
     Program PWSCF v.6.7MaX starts on 18May2022 at 17:37:33 

     This program is part of the open-source Quantum ESPRESSO suite
     for quantum simulation of materials; please cite
         "P. Giannozzi et al., J. Phys.:Condens. Matter 21 395502 (2009);
         "P. Giannozzi et al., J. Phys.:Condens. Matter 29 465901 (2017);
          URL http://www.quantum-espresso.org", 
     in publications or presentations arising from this work. More details at
     http://www.quantum-espresso.org/quote

     Parallel version (MPI), running on    48 processors

     MPI processes distributed on     1 nodes
     R & G space division:  proc/nbgrp/npool/nimage =      48
     Waiting for input...
     Reading input from standard input

     Current dimensions of program PWSCF are:
     Max number of different atomic species (ntypx) = 10
     Max number of k-points (npk) =  40000
     Max angular momentum in pseudopotentials (lmaxx) =  3
     file O.pbe-nl-kjpaw_psl.1.0.0.UPF: wavefunction(s)  2S 2P renormalized
     file Cl.pbe-nl-kjpaw_psl.1.0.0.UPF: wavefunction(s)  3S renormalized
     file Nb.pbe-spn-kjpaw_psl.1.0.0.UPF: wavefunction(s)  4S 4P 4D renormalized

     Subspace diagonalization in iterative solution of the eigenvalue problem:
     a serial algorithm will be used

     Message from routine setup:
     using ibrav=0 with symmetry is DISCOURAGED, use correct ibrav instead
 
     Parallelization info
     --------------------
     sticks:   dense  smooth     PW     G-vecs:    dense   smooth      PW
     Min         226      90     28                 8011     2025     357
     Max         227      91     29                 8013     2026     359
     Sum       10861    4353   1363               384583    97215   17183
 


     bravais-lattice index     =            0
     lattice parameter (alat)  =      12.6717  a.u.
     unit-cell volume          =     547.9313 (a.u.)^3
     number of atoms/cell      =            4
     number of atomic types    =            3
     number of electrons       =        33.00
     number of Kohn-Sham states=           21
     kinetic-energy cutoff     =     120.0000  Ry
     charge density cutoff     =    1200.0000  Ry
     scf convergence threshold =      1.0E-10
     mixing beta               =       0.7000
     number of iterations used =            8  plain     mixing
     Exchange-correlation= SLA  PW   PBX  PBC
                           (   1   4   3   4   0   0   0)

     celldm(1)=  12.671676  celldm(2)=   0.000000  celldm(3)=   0.000000
     celldm(4)=   0.000000  celldm(5)=   0.000000  celldm(6)=   0.000000

     crystal axes: (cart. coord. in units of alat)
               a(1) = (  -0.250426   0.291161   0.923316 )  
               a(2) = (   0.250426  -0.291161   0.923316 )  
               a(3) = (   0.250426   0.291161  -0.923316 )  

     reciprocal axes: (cart. coord. in units 2 pi/alat)
               b(1) = (  0.000000  1.717261  0.541527 )  
               b(2) = (  1.996594  0.000000  0.541527 )  
               b(3) = (  1.996594  1.717261  0.000000 )  


     PseudoPot. # 1 for O  read from file:
     /zfs_data/gutierre/Scratch/Cl2NbO/smearing/10x10x10/0.005/pseudo/O.pbe-nl-kjpaw_psl.1.0.0.UPF
     MD5 check sum: df3ddea38124b4e5de5e1084591730e4
     Pseudo is Projector augmented-wave + core cor, Zval =  6.0
     Generated using 'atomic' code by A. Dal Corso  v.6.7MaX
     Shape of augmentation charge: PSQ
     Using radial grid of 1095 points,  4 beta functions with: 
                l(1) =   0
                l(2) =   0
                l(3) =   1
                l(4) =   1
     Q(r) pseudized with 0 coefficients 


     PseudoPot. # 2 for Cl read from file:
     /zfs_data/gutierre/Scratch/Cl2NbO/smearing/10x10x10/0.005/pseudo/Cl.pbe-nl-kjpaw_psl.1.0.0.UPF
     MD5 check sum: 8cf6bde52c08f6236e0f72a8870677af
     Pseudo is Projector augmented-wave + core cor, Zval =  7.0
     Generated using 'atomic' code by A. Dal Corso  v.6.7MaX
     Shape of augmentation charge: PSQ
     Using radial grid of 1157 points,  4 beta functions with: 
                l(1) =   0
                l(2) =   0
                l(3) =   1
                l(4) =   1
     Q(r) pseudized with 0 coefficients 


     PseudoPot. # 3 for Nb read from file:
     /zfs_data/gutierre/Scratch/Cl2NbO/smearing/10x10x10/0.005/pseudo/Nb.pbe-spn-kjpaw_psl.1.0.0.UPF
     MD5 check sum: 1ec1a3aa7bf3cbf7f7e0d720422bce7a
     Pseudo is Projector augmented-wave + core cor, Zval = 13.0
     Generated using 'atomic' code by A. Dal Corso  v.6.7MaX
     Shape of augmentation charge: PSQ
     Using radial grid of 1227 points,  6 beta functions with: 
                l(1) =   0
                l(2) =   0
                l(3) =   1
                l(4) =   1
                l(5) =   2
                l(6) =   2
     Q(r) pseudized with 0 coefficients 


     atomic species   valence    mass     pseudopotential
        O              6.00    15.99940     O ( 1.00)
        Cl             7.00    35.45150     Cl( 1.00)
        Nb            13.00    92.90637     Nb( 1.00)

      8 Sym. Ops., with inversion, found


                                    s                        frac. trans.

      isym =  1     identity                                     

 cryst.   s( 1) = (     1          0          0      )
                  (     0          1          0      )
                  (     0          0          1      )

 cart.    s( 1) = (  1.0000000  0.0000000  0.0000000 )
                  (  0.0000000  1.0000000  0.0000000 )
                  (  0.0000000  0.0000000  1.0000000 )


      isym =  2     180 deg rotation - cart. axis [0,0,1]        

 cryst.   s( 2) = (     0          1          0      )
                  (     1          0          0      )
                  (    -1         -1         -1      )

 cart.    s( 2) = ( -1.0000000  0.0000000  0.0000000 )
                  (  0.0000000 -1.0000000  0.0000000 )
                  (  0.0000000  0.0000000  1.0000000 )


      isym =  3     180 deg rotation - cart. axis [0,1,0]        

 cryst.   s( 3) = (     0          0          1      )
                  (    -1         -1         -1      )
                  (     1          0          0      )

 cart.    s( 3) = ( -1.0000000  0.0000000  0.0000000 )
                  (  0.0000000  1.0000000  0.0000000 )
                  (  0.0000000  0.0000000 -1.0000000 )


      isym =  4     180 deg rotation - cart. axis [1,0,0]        

 cryst.   s( 4) = (    -1         -1         -1      )
                  (     0          0          1      )
                  (     0          1          0      )

 cart.    s( 4) = (  1.0000000  0.0000000  0.0000000 )
                  (  0.0000000 -1.0000000  0.0000000 )
                  (  0.0000000  0.0000000 -1.0000000 )


      isym =  5     inversion                                    

 cryst.   s( 5) = (    -1          0          0      )
                  (     0         -1          0      )
                  (     0          0         -1      )

 cart.    s( 5) = ( -1.0000000  0.0000000  0.0000000 )
                  (  0.0000000 -1.0000000  0.0000000 )
                  (  0.0000000  0.0000000 -1.0000000 )


      isym =  6     inv. 180 deg rotation - cart. axis [0,0,1]   

 cryst.   s( 6) = (     0         -1          0      )
                  (    -1          0          0      )
                  (     1          1          1      )

 cart.    s( 6) = (  1.0000000  0.0000000  0.0000000 )
                  (  0.0000000  1.0000000  0.0000000 )
                  (  0.0000000  0.0000000 -1.0000000 )


      isym =  7     inv. 180 deg rotation - cart. axis [0,1,0]   

 cryst.   s( 7) = (     0          0         -1      )
                  (     1          1          1      )
                  (    -1          0          0      )

 cart.    s( 7) = (  1.0000000  0.0000000  0.0000000 )
                  (  0.0000000 -1.0000000  0.0000000 )
                  (  0.0000000  0.0000000  1.0000000 )


      isym =  8     inv. 180 deg rotation - cart. axis [1,0,0]   

 cryst.   s( 8) = (     1          1          1      )
                  (     0          0         -1      )
                  (     0         -1          0      )

 cart.    s( 8) = ( -1.0000000  0.0000000  0.0000000 )
                  (  0.0000000  1.0000000  0.0000000 )
                  (  0.0000000  0.0000000  1.0000000 )


   Cartesian axes

     site n.     atom                  positions (alat units)
         1           O   tau(   1) = (   0.0000000   0.2911613   0.0000000  )
         2           Cl  tau(   2) = (  -0.0000000   0.2911613   0.6365338  )
         3           Cl  tau(   3) = (   0.2504264  -0.0000000   0.2867819  )
         4           Nb  tau(   4) = (   0.0000000   0.0000000   0.0000000  )

   Crystallographic axes

     site n.     atom                  positions (cryst. coord.)
         1           O   tau(   1) = (  0.5000000  0.0000000  0.5000000  )
         2           Cl  tau(   2) = (  0.8447000  0.3447000  0.5000000  )
         3           Cl  tau(   3) = (  0.1553000  0.6553000  0.5000000  )
         4           Nb  tau(   4) = (  0.0000000  0.0000000  0.0000000  )

     number of k points=   171  Methfessel-Paxton smearing, width (Ry)=  0.0050
                       cart. coord. in units 2pi/alat
        k(    1) = (   0.0000000   0.0000000   0.0000000), wk =   0.0020000
        k(    2) = (   0.1996594   0.1717261   0.0000000), wk =   0.0080000
        k(    3) = (   0.3993189   0.3434523   0.0000000), wk =   0.0080000
        k(    4) = (   0.5989783   0.5151784   0.0000000), wk =   0.0080000
        k(    5) = (   0.7986377   0.6869045   0.0000000), wk =   0.0080000
        k(    6) = (  -0.9982971  -0.8586307   0.0000000), wk =   0.0040000
        k(    7) = (   0.1996594   0.0000000   0.0541527), wk =   0.0080000
        k(    8) = (   0.3993189   0.1717261   0.0541527), wk =   0.0160000
        k(    9) = (   0.5989783   0.3434523   0.0541527), wk =   0.0160000
        k(   10) = (   0.7986377   0.5151784   0.0541527), wk =   0.0160000
        k(   11) = (   0.9982971   0.6869045   0.0541527), wk =   0.0160000
        k(   12) = (  -0.7986377  -0.8586307   0.0541527), wk =   0.0160000
        k(   13) = (  -0.5989783  -0.6869045   0.0541527), wk =   0.0160000
        k(   14) = (  -0.3993189  -0.5151784   0.0541527), wk =   0.0160000
        k(   15) = (  -0.1996594  -0.3434523   0.0541527), wk =   0.0160000
        k(   16) = (   0.0000000  -0.1717261   0.0541527), wk =   0.0080000
        k(   17) = (   0.3993189   0.0000000   0.1083053), wk =   0.0080000
        k(   18) = (   0.5989783   0.1717261   0.1083053), wk =   0.0160000
        k(   19) = (   0.7986377   0.3434523   0.1083053), wk =   0.0160000
        k(   20) = (   0.9982971   0.5151784   0.1083053), wk =   0.0160000
        k(   21) = (   1.1979566   0.6869045   0.1083053), wk =   0.0160000
        k(   22) = (  -0.5989783  -0.8586307   0.1083053), wk =   0.0160000
        k(   23) = (  -0.3993189  -0.6869045   0.1083053), wk =   0.0160000
        k(   24) = (  -0.1996594  -0.5151784   0.1083053), wk =   0.0160000
        k(   25) = (   0.0000000  -0.3434523   0.1083053), wk =   0.0080000
        k(   26) = (   0.1996594  -0.1717261   0.1083053), wk =   0.0160000
        k(   27) = (   0.5989783   0.0000000   0.1624580), wk =   0.0080000
        k(   28) = (   0.7986377   0.1717261   0.1624580), wk =   0.0160000
        k(   29) = (   0.9982971   0.3434523   0.1624580), wk =   0.0160000
        k(   30) = (   1.1979566   0.5151784   0.1624580), wk =   0.0160000
        k(   31) = (   1.3976160   0.6869045   0.1624580), wk =   0.0160000
        k(   32) = (  -0.3993189  -0.8586307   0.1624580), wk =   0.0160000
        k(   33) = (  -0.1996594  -0.6869045   0.1624580), wk =   0.0160000
        k(   34) = (  -0.0000000  -0.5151784   0.1624580), wk =   0.0080000
        k(   35) = (   0.1996594  -0.3434523   0.1624580), wk =   0.0160000
        k(   36) = (   0.3993189  -0.1717261   0.1624580), wk =   0.0160000
        k(   37) = (   0.7986377   0.0000000   0.2166107), wk =   0.0080000
        k(   38) = (   0.9982971   0.1717261   0.2166107), wk =   0.0160000
        k(   39) = (   1.1979566   0.3434523   0.2166107), wk =   0.0160000
        k(   40) = (   1.3976160   0.5151784   0.2166107), wk =   0.0160000
        k(   41) = (   1.5972754   0.6869045   0.2166107), wk =   0.0160000
        k(   42) = (  -0.1996594  -0.8586307   0.2166107), wk =   0.0160000
        k(   43) = (   0.0000000  -0.6869045   0.2166107), wk =   0.0080000
        k(   44) = (   0.1996594  -0.5151784   0.2166107), wk =   0.0160000
        k(   45) = (   0.3993189  -0.3434523   0.2166107), wk =   0.0160000
        k(   46) = (   0.5989783  -0.1717261   0.2166107), wk =   0.0160000
        k(   47) = (  -0.9982971   0.0000000  -0.2707633), wk =   0.0040000
        k(   48) = (  -0.7986377   0.1717261  -0.2707633), wk =   0.0160000
        k(   49) = (  -0.5989783   0.3434523  -0.2707633), wk =   0.0160000
        k(   50) = (  -0.3993189   0.5151784  -0.2707633), wk =   0.0160000
        k(   51) = (  -0.1996594   0.6869045  -0.2707633), wk =   0.0160000
        k(   52) = (  -1.9965943  -0.8586307  -0.2707633), wk =   0.0040000
        k(   53) = (   0.3993189   0.3434523   0.1083053), wk =   0.0160000
        k(   54) = (   0.5989783   0.5151784   0.1083053), wk =   0.0160000
        k(   55) = (   0.7986377   0.6869045   0.1083053), wk =   0.0160000
        k(   56) = (   0.9982971   0.8586307   0.1083053), wk =   0.0080000
        k(   57) = (   0.0000000   0.0000000   0.1083053), wk =   0.0040000
        k(   58) = (   0.5989783   0.3434523   0.1624580), wk =   0.0160000
        k(   59) = (   0.7986377   0.5151784   0.1624580), wk =   0.0160000
        k(   60) = (   0.9982971   0.6869045   0.1624580), wk =   0.0160000
        k(   61) = (   1.1979566   0.8586307   0.1624580), wk =   0.0160000
        k(   62) = (  -0.5989783  -0.6869045   0.1624580), wk =   0.0160000
        k(   63) = (  -0.3993189  -0.5151784   0.1624580), wk =   0.0160000
        k(   64) = (   0.0000000  -0.1717261   0.1624580), wk =   0.0080000
        k(   65) = (   0.1996594   0.0000000   0.1624580), wk =   0.0080000
        k(   66) = (   0.7986377   0.3434523   0.2166107), wk =   0.0160000
        k(   67) = (   0.9982971   0.5151784   0.2166107), wk =   0.0160000
        k(   68) = (   1.1979566   0.6869045   0.2166107), wk =   0.0160000
        k(   69) = (   1.3976160   0.8586307   0.2166107), wk =   0.0160000
        k(   70) = (  -0.3993189  -0.6869045   0.2166107), wk =   0.0160000
        k(   71) = (  -0.0000000  -0.3434523   0.2166107), wk =   0.0080000
        k(   72) = (   0.1996594  -0.1717261   0.2166107), wk =   0.0160000
        k(   73) = (   0.3993189   0.0000000   0.2166107), wk =   0.0080000
        k(   74) = (   0.9982971   0.3434523   0.2707633), wk =   0.0080000
        k(   75) = (   1.1979566   0.5151784   0.2707633), wk =   0.0160000
        k(   76) = (   1.3976160   0.6869045   0.2707633), wk =   0.0160000
        k(   77) = (   1.5972754   0.8586307   0.2707633), wk =   0.0080000
        k(   78) = (   0.0000000  -0.5151784   0.2707633), wk =   0.0080000
        k(   79) = (   0.1996594  -0.3434523   0.2707633), wk =   0.0160000
        k(   80) = (   0.3993189  -0.1717261   0.2707633), wk =   0.0160000
        k(   81) = (   0.5989783   0.0000000   0.2707633), wk =   0.0080000
        k(   82) = (  -0.5989783   0.5151784  -0.2166107), wk =   0.0160000
        k(   83) = (  -1.9965943  -0.6869045  -0.2166107), wk =   0.0080000
        k(   84) = (  -1.7969349  -0.5151784  -0.2166107), wk =   0.0160000
        k(   85) = (  -1.5972754  -0.3434523  -0.2166107), wk =   0.0160000
        k(   86) = (  -1.3976160  -0.1717261  -0.2166107), wk =   0.0160000
        k(   87) = (  -1.1979566   0.0000000  -0.2166107), wk =   0.0080000
        k(   88) = (   0.0000000   0.8586307  -0.1624580), wk =   0.0080000
        k(   89) = (  -1.7969349  -0.6869045  -0.1624580), wk =   0.0160000
        k(   90) = (  -1.5972754  -0.5151784  -0.1624580), wk =   0.0160000
        k(   91) = (  -1.3976160  -0.3434523  -0.1624580), wk =   0.0160000
        k(   92) = (  -1.1979566  -0.1717261  -0.1624580), wk =   0.0160000
        k(   93) = (  -0.9982971   0.0000000  -0.1624580), wk =   0.0080000
        k(   94) = (  -0.0000000   0.6869045  -0.1083053), wk =   0.0080000
        k(   95) = (   0.1996594   0.8586307  -0.1083053), wk =   0.0160000
        k(   96) = (  -1.5972754  -0.6869045  -0.1083053), wk =   0.0160000
        k(   97) = (  -1.3976160  -0.5151784  -0.1083053), wk =   0.0160000
        k(   98) = (  -1.1979566  -0.3434523  -0.1083053), wk =   0.0160000
        k(   99) = (  -0.9982971  -0.1717261  -0.1083053), wk =   0.0160000
        k(  100) = (  -0.7986377   0.0000000  -0.1083053), wk =   0.0080000
        k(  101) = (   0.0000000   0.5151784  -0.0541527), wk =   0.0080000
        k(  102) = (   0.1996594   0.6869045  -0.0541527), wk =   0.0160000
        k(  103) = (   0.3993189   0.8586307  -0.0541527), wk =   0.0160000
        k(  104) = (  -1.3976160  -0.6869045  -0.0541527), wk =   0.0160000
        k(  105) = (  -1.1979566  -0.5151784  -0.0541527), wk =   0.0160000
        k(  106) = (  -0.9982971  -0.3434523  -0.0541527), wk =   0.0160000
        k(  107) = (  -0.7986377  -0.1717261  -0.0541527), wk =   0.0160000
        k(  108) = (  -0.5989783   0.0000000  -0.0541527), wk =   0.0080000
        k(  109) = (   0.0000000   0.3434523   0.0000000), wk =   0.0040000
        k(  110) = (   0.1996594   0.5151784   0.0000000), wk =   0.0080000
        k(  111) = (   0.3993189   0.6869045   0.0000000), wk =   0.0080000
        k(  112) = (   0.5989783   0.8586307   0.0000000), wk =   0.0080000
        k(  113) = (  -1.1979566  -0.6869045   0.0000000), wk =   0.0080000
        k(  114) = (  -0.9982971  -0.5151784   0.0000000), wk =   0.0080000
        k(  115) = (  -0.7986377  -0.3434523   0.0000000), wk =   0.0080000
        k(  116) = (  -0.5989783  -0.1717261   0.0000000), wk =   0.0080000
        k(  117) = (  -0.3993189   0.0000000   0.0000000), wk =   0.0040000
        k(  118) = (   0.7986377   0.6869045   0.2166107), wk =   0.0160000
        k(  119) = (   0.9982971   0.8586307   0.2166107), wk =   0.0080000
        k(  120) = (   0.0000000   0.0000000   0.2166107), wk =   0.0040000
        k(  121) = (   0.9982971   0.6869045   0.2707633), wk =   0.0080000
        k(  122) = (   1.1979566   0.8586307   0.2707633), wk =   0.0080000
        k(  123) = (  -0.0000000  -0.1717261   0.2707633), wk =   0.0080000
        k(  124) = (   0.1996594   0.0000000   0.2707633), wk =   0.0080000
        k(  125) = (   0.0000000  -0.3434523   0.3249160), wk =   0.0080000
        k(  126) = (   0.1996594  -0.1717261   0.3249160), wk =   0.0160000
        k(  127) = (   0.3993189   0.0000000   0.3249160), wk =   0.0080000
        k(  128) = (  -1.9965943  -0.5151784  -0.1624580), wk =   0.0080000
        k(  129) = (  -1.7969349  -0.3434523  -0.1624580), wk =   0.0160000
        k(  130) = (  -1.5972754  -0.1717261  -0.1624580), wk =   0.0160000
        k(  131) = (  -1.3976160   0.0000000  -0.1624580), wk =   0.0080000
        k(  132) = (   0.0000000   1.0303568  -0.1083053), wk =   0.0080000
        k(  133) = (  -1.7969349  -0.5151784  -0.1083053), wk =   0.0160000
        k(  134) = (  -1.5972754  -0.3434523  -0.1083053), wk =   0.0160000
        k(  135) = (  -1.3976160  -0.1717261  -0.1083053), wk =   0.0160000
        k(  136) = (  -1.1979566   0.0000000  -0.1083053), wk =   0.0080000
        k(  137) = (  -0.0000000   0.8586307  -0.0541527), wk =   0.0080000
        k(  138) = (   0.1996594   1.0303568  -0.0541527), wk =   0.0160000
        k(  139) = (  -1.5972754  -0.5151784  -0.0541527), wk =   0.0160000
        k(  140) = (  -1.3976160  -0.3434523  -0.0541527), wk =   0.0160000
        k(  141) = (  -1.1979566  -0.1717261  -0.0541527), wk =   0.0160000
        k(  142) = (  -0.9982971   0.0000000  -0.0541527), wk =   0.0080000
        k(  143) = (   0.0000000   0.6869045   0.0000000), wk =   0.0040000
        k(  144) = (   0.1996594   0.8586307   0.0000000), wk =   0.0080000
        k(  145) = (   0.3993189   1.0303568   0.0000000), wk =   0.0080000
        k(  146) = (  -1.3976160  -0.5151784   0.0000000), wk =   0.0080000
        k(  147) = (  -1.1979566  -0.3434523   0.0000000), wk =   0.0080000
        k(  148) = (  -0.9982971  -0.1717261   0.0000000), wk =   0.0080000
        k(  149) = (  -0.7986377   0.0000000   0.0000000), wk =   0.0040000
        k(  150) = (  -0.0000000   0.0000000   0.3249160), wk =   0.0040000
        k(  151) = (   0.0000000  -0.1717261   0.3790686), wk =   0.0080000
        k(  152) = (   0.1996594   0.0000000   0.3790686), wk =   0.0080000
        k(  153) = (  -1.9965943  -0.3434523  -0.1083053), wk =   0.0080000
        k(  154) = (  -1.7969349  -0.1717261  -0.1083053), wk =   0.0160000
        k(  155) = (  -1.5972754   0.0000000  -0.1083053), wk =   0.0080000
        k(  156) = (   0.0000000   1.2020829  -0.0541527), wk =   0.0080000
        k(  157) = (  -1.7969349  -0.3434523  -0.0541527), wk =   0.0160000
        k(  158) = (  -1.5972754  -0.1717261  -0.0541527), wk =   0.0160000
        k(  159) = (  -1.3976160   0.0000000  -0.0541527), wk =   0.0080000
        k(  160) = (  -0.0000000   1.0303568  -0.0000000), wk =   0.0040000
        k(  161) = (   0.1996594   1.2020829  -0.0000000), wk =   0.0080000
        k(  162) = (  -1.5972754  -0.3434523  -0.0000000), wk =   0.0080000
        k(  163) = (  -1.3976160  -0.1717261  -0.0000000), wk =   0.0080000
        k(  164) = (  -1.1979566   0.0000000  -0.0000000), wk =   0.0040000
        k(  165) = (   0.0000000   0.0000000   0.4332213), wk =   0.0040000
        k(  166) = (  -1.9965943  -0.1717261  -0.0541527), wk =   0.0080000
        k(  167) = (  -1.7969349   0.0000000  -0.0541527), wk =   0.0080000
        k(  168) = (   0.0000000   1.3738091   0.0000000), wk =   0.0040000
        k(  169) = (  -1.7969349  -0.1717261   0.0000000), wk =   0.0080000
        k(  170) = (  -1.5972754   0.0000000   0.0000000), wk =   0.0040000
        k(  171) = (  -1.9965943  -1.7172613  -0.5415266), wk =   0.0020000

                       cryst. coord.
        k(    1) = (   0.0000000   0.0000000   0.0000000), wk =   0.0020000
        k(    2) = (  -0.0000000   0.0000000   0.1000000), wk =   0.0080000
        k(    3) = (  -0.0000000   0.0000000   0.2000000), wk =   0.0080000
        k(    4) = (   0.0000000   0.0000000   0.3000000), wk =   0.0080000
        k(    5) = (  -0.0000000   0.0000000   0.4000000), wk =   0.0080000
        k(    6) = (   0.0000000   0.0000000  -0.5000000), wk =   0.0040000
        k(    7) = (  -0.0000000   0.1000000   0.0000000), wk =   0.0080000
        k(    8) = (  -0.0000000   0.1000000   0.1000000), wk =   0.0160000
        k(    9) = (  -0.0000000   0.1000000   0.2000000), wk =   0.0160000
        k(   10) = (  -0.0000000   0.1000000   0.3000000), wk =   0.0160000
        k(   11) = (  -0.0000000   0.1000000   0.4000000), wk =   0.0160000
        k(   12) = (   0.0000000   0.1000000  -0.5000000), wk =   0.0160000
        k(   13) = (   0.0000000   0.1000000  -0.4000000), wk =   0.0160000
        k(   14) = (   0.0000000   0.1000000  -0.3000000), wk =   0.0160000
        k(   15) = (   0.0000000   0.1000000  -0.2000000), wk =   0.0160000
        k(   16) = (   0.0000000   0.1000000  -0.1000000), wk =   0.0080000
        k(   17) = (  -0.0000000   0.2000000   0.0000000), wk =   0.0080000
        k(   18) = (  -0.0000000   0.2000000   0.1000000), wk =   0.0160000
        k(   19) = (  -0.0000000   0.2000000   0.2000000), wk =   0.0160000
        k(   20) = (   0.0000000   0.2000000   0.3000000), wk =   0.0160000
        k(   21) = (  -0.0000000   0.2000000   0.4000000), wk =   0.0160000
        k(   22) = (   0.0000000   0.2000000  -0.5000000), wk =   0.0160000
        k(   23) = (   0.0000000   0.2000000  -0.4000000), wk =   0.0160000
        k(   24) = (   0.0000000   0.2000000  -0.3000000), wk =   0.0160000
        k(   25) = (   0.0000000   0.2000000  -0.2000000), wk =   0.0080000
        k(   26) = (   0.0000000   0.2000000  -0.1000000), wk =   0.0160000
        k(   27) = (   0.0000000   0.3000000   0.0000000), wk =   0.0080000
        k(   28) = (  -0.0000000   0.3000000   0.1000000), wk =   0.0160000
        k(   29) = (   0.0000000   0.3000000   0.2000000), wk =   0.0160000
        k(   30) = (   0.0000000   0.3000000   0.3000000), wk =   0.0160000
        k(   31) = (  -0.0000000   0.3000000   0.4000000), wk =   0.0160000
        k(   32) = (   0.0000000   0.3000000  -0.5000000), wk =   0.0160000
        k(   33) = (   0.0000000   0.3000000  -0.4000000), wk =   0.0160000
        k(   34) = (   0.0000000   0.3000000  -0.3000000), wk =   0.0080000
        k(   35) = (   0.0000000   0.3000000  -0.2000000), wk =   0.0160000
        k(   36) = (   0.0000000   0.3000000  -0.1000000), wk =   0.0160000
        k(   37) = (  -0.0000000   0.4000000   0.0000000), wk =   0.0080000
        k(   38) = (  -0.0000000   0.4000000   0.1000000), wk =   0.0160000
        k(   39) = (  -0.0000000   0.4000000   0.2000000), wk =   0.0160000
        k(   40) = (  -0.0000000   0.4000000   0.3000000), wk =   0.0160000
        k(   41) = (  -0.0000000   0.4000000   0.4000000), wk =   0.0160000
        k(   42) = (   0.0000000   0.4000000  -0.5000000), wk =   0.0160000
        k(   43) = (   0.0000000   0.4000000  -0.4000000), wk =   0.0080000
        k(   44) = (   0.0000000   0.4000000  -0.3000000), wk =   0.0160000
        k(   45) = (   0.0000000   0.4000000  -0.2000000), wk =   0.0160000
        k(   46) = (  -0.0000000   0.4000000  -0.1000000), wk =   0.0160000
        k(   47) = (   0.0000000  -0.5000000   0.0000000), wk =   0.0040000
        k(   48) = (   0.0000000  -0.5000000   0.1000000), wk =   0.0160000
        k(   49) = (   0.0000000  -0.5000000   0.2000000), wk =   0.0160000
        k(   50) = (   0.0000000  -0.5000000   0.3000000), wk =   0.0160000
        k(   51) = (   0.0000000  -0.5000000   0.4000000), wk =   0.0160000
        k(   52) = (   0.0000000  -0.5000000  -0.5000000), wk =   0.0040000
        k(   53) = (   0.1000000   0.1000000   0.1000000), wk =   0.0160000
        k(   54) = (   0.1000000   0.1000000   0.2000000), wk =   0.0160000
        k(   55) = (   0.1000000   0.1000000   0.3000000), wk =   0.0160000
        k(   56) = (   0.1000000   0.1000000   0.4000000), wk =   0.0080000
        k(   57) = (   0.1000000   0.1000000  -0.1000000), wk =   0.0040000
        k(   58) = (   0.1000000   0.2000000   0.1000000), wk =   0.0160000
        k(   59) = (   0.1000000   0.2000000   0.2000000), wk =   0.0160000
        k(   60) = (   0.1000000   0.2000000   0.3000000), wk =   0.0160000
        k(   61) = (   0.1000000   0.2000000   0.4000000), wk =   0.0160000
        k(   62) = (   0.1000000   0.2000000  -0.5000000), wk =   0.0160000
        k(   63) = (   0.1000000   0.2000000  -0.4000000), wk =   0.0160000
        k(   64) = (   0.1000000   0.2000000  -0.2000000), wk =   0.0080000
        k(   65) = (   0.1000000   0.2000000  -0.1000000), wk =   0.0080000
        k(   66) = (   0.1000000   0.3000000   0.1000000), wk =   0.0160000
        k(   67) = (   0.1000000   0.3000000   0.2000000), wk =   0.0160000
        k(   68) = (   0.1000000   0.3000000   0.3000000), wk =   0.0160000
        k(   69) = (   0.1000000   0.3000000   0.4000000), wk =   0.0160000
        k(   70) = (   0.1000000   0.3000000  -0.5000000), wk =   0.0160000
        k(   71) = (   0.1000000   0.3000000  -0.3000000), wk =   0.0080000
        k(   72) = (   0.1000000   0.3000000  -0.2000000), wk =   0.0160000
        k(   73) = (   0.1000000   0.3000000  -0.1000000), wk =   0.0080000
        k(   74) = (   0.1000000   0.4000000   0.1000000), wk =   0.0080000
        k(   75) = (   0.1000000   0.4000000   0.2000000), wk =   0.0160000
        k(   76) = (   0.1000000   0.4000000   0.3000000), wk =   0.0160000
        k(   77) = (   0.1000000   0.4000000   0.4000000), wk =   0.0080000
        k(   78) = (   0.1000000   0.4000000  -0.4000000), wk =   0.0080000
        k(   79) = (   0.1000000   0.4000000  -0.3000000), wk =   0.0160000
        k(   80) = (   0.1000000   0.4000000  -0.2000000), wk =   0.0160000
        k(   81) = (   0.1000000   0.4000000  -0.1000000), wk =   0.0080000
        k(   82) = (   0.1000000  -0.5000000   0.2000000), wk =   0.0160000
        k(   83) = (   0.1000000  -0.5000000  -0.5000000), wk =   0.0080000
        k(   84) = (   0.1000000  -0.5000000  -0.4000000), wk =   0.0160000
        k(   85) = (   0.1000000  -0.5000000  -0.3000000), wk =   0.0160000
        k(   86) = (   0.1000000  -0.5000000  -0.2000000), wk =   0.0160000
        k(   87) = (   0.1000000  -0.5000000  -0.1000000), wk =   0.0080000
        k(   88) = (   0.1000000  -0.4000000   0.4000000), wk =   0.0080000
        k(   89) = (   0.1000000  -0.4000000  -0.5000000), wk =   0.0160000
        k(   90) = (   0.1000000  -0.4000000  -0.4000000), wk =   0.0160000
        k(   91) = (   0.1000000  -0.4000000  -0.3000000), wk =   0.0160000
        k(   92) = (   0.1000000  -0.4000000  -0.2000000), wk =   0.0160000
        k(   93) = (   0.1000000  -0.4000000  -0.1000000), wk =   0.0080000
        k(   94) = (   0.1000000  -0.3000000   0.3000000), wk =   0.0080000
        k(   95) = (   0.1000000  -0.3000000   0.4000000), wk =   0.0160000
        k(   96) = (   0.1000000  -0.3000000  -0.5000000), wk =   0.0160000
        k(   97) = (   0.1000000  -0.3000000  -0.4000000), wk =   0.0160000
        k(   98) = (   0.1000000  -0.3000000  -0.3000000), wk =   0.0160000
        k(   99) = (   0.1000000  -0.3000000  -0.2000000), wk =   0.0160000
        k(  100) = (   0.1000000  -0.3000000  -0.1000000), wk =   0.0080000
        k(  101) = (   0.1000000  -0.2000000   0.2000000), wk =   0.0080000
        k(  102) = (   0.1000000  -0.2000000   0.3000000), wk =   0.0160000
        k(  103) = (   0.1000000  -0.2000000   0.4000000), wk =   0.0160000
        k(  104) = (   0.1000000  -0.2000000  -0.5000000), wk =   0.0160000
        k(  105) = (   0.1000000  -0.2000000  -0.4000000), wk =   0.0160000
        k(  106) = (   0.1000000  -0.2000000  -0.3000000), wk =   0.0160000
        k(  107) = (   0.1000000  -0.2000000  -0.2000000), wk =   0.0160000
        k(  108) = (   0.1000000  -0.2000000  -0.1000000), wk =   0.0080000
        k(  109) = (   0.1000000  -0.1000000   0.1000000), wk =   0.0040000
        k(  110) = (   0.1000000  -0.1000000   0.2000000), wk =   0.0080000
        k(  111) = (   0.1000000  -0.1000000   0.3000000), wk =   0.0080000
        k(  112) = (   0.1000000  -0.1000000   0.4000000), wk =   0.0080000
        k(  113) = (   0.1000000  -0.1000000  -0.5000000), wk =   0.0080000
        k(  114) = (   0.1000000  -0.1000000  -0.4000000), wk =   0.0080000
        k(  115) = (   0.1000000  -0.1000000  -0.3000000), wk =   0.0080000
        k(  116) = (   0.1000000  -0.1000000  -0.2000000), wk =   0.0080000
        k(  117) = (   0.1000000  -0.1000000  -0.1000000), wk =   0.0040000
        k(  118) = (   0.2000000   0.2000000   0.2000000), wk =   0.0160000
        k(  119) = (   0.2000000   0.2000000   0.3000000), wk =   0.0080000
        k(  120) = (   0.2000000   0.2000000  -0.2000000), wk =   0.0040000
        k(  121) = (   0.2000000   0.3000000   0.2000000), wk =   0.0080000
        k(  122) = (   0.2000000   0.3000000   0.3000000), wk =   0.0080000
        k(  123) = (   0.2000000   0.3000000  -0.3000000), wk =   0.0080000
        k(  124) = (   0.2000000   0.3000000  -0.2000000), wk =   0.0080000
        k(  125) = (   0.2000000   0.4000000  -0.4000000), wk =   0.0080000
        k(  126) = (   0.2000000   0.4000000  -0.3000000), wk =   0.0160000
        k(  127) = (   0.2000000   0.4000000  -0.2000000), wk =   0.0080000
        k(  128) = (   0.2000000  -0.5000000  -0.5000000), wk =   0.0080000
        k(  129) = (   0.2000000  -0.5000000  -0.4000000), wk =   0.0160000
        k(  130) = (   0.2000000  -0.5000000  -0.3000000), wk =   0.0160000
        k(  131) = (   0.2000000  -0.5000000  -0.2000000), wk =   0.0080000
        k(  132) = (   0.2000000  -0.4000000   0.4000000), wk =   0.0080000
        k(  133) = (   0.2000000  -0.4000000  -0.5000000), wk =   0.0160000
        k(  134) = (   0.2000000  -0.4000000  -0.4000000), wk =   0.0160000
        k(  135) = (   0.2000000  -0.4000000  -0.3000000), wk =   0.0160000
        k(  136) = (   0.2000000  -0.4000000  -0.2000000), wk =   0.0080000
        k(  137) = (   0.2000000  -0.3000000   0.3000000), wk =   0.0080000
        k(  138) = (   0.2000000  -0.3000000   0.4000000), wk =   0.0160000
        k(  139) = (   0.2000000  -0.3000000  -0.5000000), wk =   0.0160000
        k(  140) = (   0.2000000  -0.3000000  -0.4000000), wk =   0.0160000
        k(  141) = (   0.2000000  -0.3000000  -0.3000000), wk =   0.0160000
        k(  142) = (   0.2000000  -0.3000000  -0.2000000), wk =   0.0080000
        k(  143) = (   0.2000000  -0.2000000   0.2000000), wk =   0.0040000
        k(  144) = (   0.2000000  -0.2000000   0.3000000), wk =   0.0080000
        k(  145) = (   0.2000000  -0.2000000   0.4000000), wk =   0.0080000
        k(  146) = (   0.2000000  -0.2000000  -0.5000000), wk =   0.0080000
        k(  147) = (   0.2000000  -0.2000000  -0.4000000), wk =   0.0080000
        k(  148) = (   0.2000000  -0.2000000  -0.3000000), wk =   0.0080000
        k(  149) = (   0.2000000  -0.2000000  -0.2000000), wk =   0.0040000
        k(  150) = (   0.3000000   0.3000000  -0.3000000), wk =   0.0040000
        k(  151) = (   0.3000000   0.4000000  -0.4000000), wk =   0.0080000
        k(  152) = (   0.3000000   0.4000000  -0.3000000), wk =   0.0080000
        k(  153) = (   0.3000000  -0.5000000  -0.5000000), wk =   0.0080000
        k(  154) = (   0.3000000  -0.5000000  -0.4000000), wk =   0.0160000
        k(  155) = (   0.3000000  -0.5000000  -0.3000000), wk =   0.0080000
        k(  156) = (   0.3000000  -0.4000000   0.4000000), wk =   0.0080000
        k(  157) = (   0.3000000  -0.4000000  -0.5000000), wk =   0.0160000
        k(  158) = (   0.3000000  -0.4000000  -0.4000000), wk =   0.0160000
        k(  159) = (   0.3000000  -0.4000000  -0.3000000), wk =   0.0080000
        k(  160) = (   0.3000000  -0.3000000   0.3000000), wk =   0.0040000
        k(  161) = (   0.3000000  -0.3000000   0.4000000), wk =   0.0080000
        k(  162) = (   0.3000000  -0.3000000  -0.5000000), wk =   0.0080000
        k(  163) = (   0.3000000  -0.3000000  -0.4000000), wk =   0.0080000
        k(  164) = (   0.3000000  -0.3000000  -0.3000000), wk =   0.0040000
        k(  165) = (   0.4000000   0.4000000  -0.4000000), wk =   0.0040000
        k(  166) = (   0.4000000  -0.5000000  -0.5000000), wk =   0.0080000
        k(  167) = (   0.4000000  -0.5000000  -0.4000000), wk =   0.0080000
        k(  168) = (   0.4000000  -0.4000000   0.4000000), wk =   0.0040000
        k(  169) = (   0.4000000  -0.4000000  -0.5000000), wk =   0.0080000
        k(  170) = (   0.4000000  -0.4000000  -0.4000000), wk =   0.0040000
        k(  171) = (  -0.5000000  -0.5000000  -0.5000000), wk =   0.0020000

     Dense  grid:   384583 G-vectors     FFT dimensions: ( 144, 144, 144)

     Smooth grid:    97215 G-vectors     FFT dimensions: (  90,  90,  90)

     Dynamical RAM for                 wfc:       0.08 MB

     Dynamical RAM for     wfc (w. buffer):      13.94 MB

     Dynamical RAM for           str. fact:       0.37 MB

     Dynamical RAM for           local pot:       0.00 MB

     Dynamical RAM for          nlocal pot:       0.16 MB

     Dynamical RAM for                qrad:       8.33 MB

     Dynamical RAM for          rho,v,vnew:       1.79 MB

     Dynamical RAM for               rhoin:       0.60 MB

     Dynamical RAM for            rho*nmix:       1.96 MB

     Dynamical RAM for           G-vectors:       0.47 MB

     Dynamical RAM for          h,s,v(r/c):       0.08 MB

     Dynamical RAM for          <psi|beta>:       0.01 MB

     Dynamical RAM for                 psi:       0.16 MB

     Dynamical RAM for                hpsi:       0.16 MB

     Dynamical RAM for                spsi:       0.16 MB

     Dynamical RAM for      wfcinit/wfcrot:       0.21 MB

     Dynamical RAM for           addusdens:      22.98 MB

     Dynamical RAM for          addusforce:      23.30 MB

     Dynamical RAM for         addusstress:      24.57 MB

     Estimated static dynamical RAM per process >      30.49 MB

     Estimated max dynamical RAM per process >      55.06 MB

     Estimated total dynamical RAM >       2.58 GB

     Initial potential from superposition of free atoms

     starting charge   32.99867, renormalised to   33.00000
     Starting wfcs are   25 randomized atomic wfcs
     Checking if some PAW data can be deallocated... 
       PAW data deallocated on   36 nodes for type:  1
       PAW data deallocated on   24 nodes for type:  2
       PAW data deallocated on   36 nodes for type:  3

     total cpu time spent up to now is        4.9 secs

     Self-consistent Calculation

     iteration #  1     ecut=   120.00 Ry     beta= 0.70
     Davidson diagonalization with overlap
     ethr =  1.00E-02,  avg # of iterations =  2.2

     total cpu time spent up to now is       13.3 secs

     total energy              =    -534.53035562 Ry
     estimated scf accuracy    <       0.75995111 Ry

     iteration #  2     ecut=   120.00 Ry     beta= 0.70
     Davidson diagonalization with overlap
     ethr =  2.30E-03,  avg # of iterations =  3.7

     total cpu time spent up to now is       23.1 secs

     total energy              =    -533.58743183 Ry
     estimated scf accuracy    <       8.56423204 Ry

     iteration #  3     ecut=   120.00 Ry     beta= 0.70
     Davidson diagonalization with overlap
     ethr =  2.30E-03,  avg # of iterations =  3.5

     total cpu time spent up to now is       32.3 secs

     total energy              =    -534.97545668 Ry
     estimated scf accuracy    <       0.12727418 Ry

     iteration #  4     ecut=   120.00 Ry     beta= 0.70
     Davidson diagonalization with overlap
     ethr =  3.86E-04,  avg # of iterations =  1.3

     total cpu time spent up to now is       39.7 secs

     total energy              =    -534.96754790 Ry
     estimated scf accuracy    <       0.06168922 Ry

     iteration #  5     ecut=   120.00 Ry     beta= 0.70
     Davidson diagonalization with overlap
     ethr =  1.87E-04,  avg # of iterations =  1.5

     total cpu time spent up to now is       47.2 secs

     total energy              =    -534.96465859 Ry
     estimated scf accuracy    <       0.02285958 Ry

     iteration #  6     ecut=   120.00 Ry     beta= 0.70
     Davidson diagonalization with overlap
     ethr =  6.93E-05,  avg # of iterations =  1.9

     total cpu time spent up to now is       54.8 secs

     total energy              =    -534.96703828 Ry
     estimated scf accuracy    <       0.00076298 Ry

     iteration #  7     ecut=   120.00 Ry     beta= 0.70
     Davidson diagonalization with overlap
     ethr =  2.31E-06,  avg # of iterations =  3.5

     total cpu time spent up to now is       64.6 secs

     total energy              =    -534.96727142 Ry
     estimated scf accuracy    <       0.00016666 Ry

     iteration #  8     ecut=   120.00 Ry     beta= 0.70
     Davidson diagonalization with overlap
     ethr =  5.05E-07,  avg # of iterations =  1.4

     total cpu time spent up to now is       72.1 secs

     total energy              =    -534.96727018 Ry
     estimated scf accuracy    <       0.00003404 Ry

     iteration #  9     ecut=   120.00 Ry     beta= 0.70
     Davidson diagonalization with overlap
     ethr =  1.03E-07,  avg # of iterations =  2.0

     total cpu time spent up to now is       80.2 secs

     total energy              =    -534.96727806 Ry
     estimated scf accuracy    <       0.00000103 Ry

     iteration # 10     ecut=   120.00 Ry     beta= 0.70
     Davidson diagonalization with overlap
     ethr =  3.11E-09,  avg # of iterations =  3.7

     total cpu time spent up to now is       89.8 secs

     total energy              =    -534.96727842 Ry
     estimated scf accuracy    <       0.00000003 Ry

     iteration # 11     ecut=   120.00 Ry     beta= 0.70
     Davidson diagonalization with overlap
     ethr =  8.37E-11,  avg # of iterations =  4.1

     total cpu time spent up to now is      100.7 secs

     total energy              =    -534.96727844 Ry
     estimated scf accuracy    <       0.00000003 Ry

     iteration # 12     ecut=   120.00 Ry     beta= 0.70
     Davidson diagonalization with overlap
     ethr =  8.37E-11,  avg # of iterations =  2.2

     total cpu time spent up to now is      108.8 secs

     total energy              =    -534.96727844 Ry
     estimated scf accuracy    <          5.6E-10 Ry

     iteration # 13     ecut=   120.00 Ry     beta= 0.70
     Davidson diagonalization with overlap
     ethr =  1.70E-12,  avg # of iterations =  3.5

     total cpu time spent up to now is      118.5 secs

     End of self-consistent calculation

          k = 0.0000 0.0000 0.0000 ( 12131 PWs)   bands (ev):

   -49.8780 -26.1616 -25.7915 -25.7114 -12.4485  -9.4935  -8.8033   0.6447
     2.4957   2.7166   2.8785   2.9496   3.4261   3.9408   4.1871   4.2886
     5.5292   7.1736   7.3183   8.6712   9.3582

     occupation numbers 
     1.0000   1.0000   1.0000   1.0000   1.0000   1.0000   1.0000   1.0000
     1.0000   1.0000   1.0000   1.0000   1.0000   1.0000   1.0000   1.0000
     1.0000  -0.0000  -0.0000  -0.0000  -0.0000

          k = 0.1997 0.1717 0.0000 ( 12123 PWs)   bands (ev):

   -49.8763 -26.1779 -25.7872 -25.7316 -12.3220  -9.4229  -8.8081   0.7811
     2.2236   2.3546   2.5771   3.1302   3.2707   3.7441   3.8818   4.0594
     5.8284   7.3847   7.4749   8.7307   9.8379

     occupation numbers 
     1.0000   1.0000   1.0000   1.0000   1.0000   1.0000   1.0000   1.0000
     1.0000   1.0000   1.0000   1.0000   1.0000   1.0000   1.0000   1.0000
     1.0000  -0.0000  -0.0000  -0.0000  -0.0000

          k = 0.3993 0.3435 0.0000 ( 12142 PWs)   bands (ev):

   -49.8718 -26.2198 -25.7839 -25.7760 -11.9781  -9.2311  -8.8224   1.1466
     1.6322   1.8203   2.0594   2.3825   2.7118   3.1697   3.8698   3.9989
     6.4513   7.8475   7.9223   8.9935  10.7675

     occupation numbers 
     1.0000   1.0000   1.0000   1.0000   1.0000   1.0000   1.0000   1.0000
     1.0000   1.0000   1.0000   1.0000   1.0000   1.0000   1.0000   1.0000
     1.0002  -0.0000  -0.0000  -0.0000  -0.0000

          k = 0.5990 0.5152 0.0000 ( 12161 PWs)   bands (ev):

   -49.8663 -26.2700 -25.8476 -25.7621 -11.5221  -8.9774  -8.8436   0.5170
     1.4117   1.6608   1.7319   1.8226   1.8821   2.6962   3.7380   4.0077
     7.2510   8.4140   8.5649   9.3688  11.3208

     occupation numbers 
     1.0000   1.0000   1.0000   1.0000   1.0000   1.0000   1.0000   1.0000
     1.0000   1.0000   1.0000   1.0000   1.0000   1.0000   1.0000   1.0000
    -0.0000  -0.0000  -0.0000  -0.0000  -0.0000

          k = 0.7986 0.6869 0.0000 ( 12158 PWs)   bands (ev):

   -49.8618 -26.3093 -25.8984 -25.7509 -11.1208  -8.8636  -8.7550  -0.3229
     0.8153   1.1751   1.6812   1.7843   2.2243   2.3387   3.4484   3.9482
     8.0810   8.9242   9.1298   9.6597  11.3608

     occupation numbers 
     1.0000   1.0000   1.0000   1.0000   1.0000   1.0000   1.0000   1.0000
     1.0000   1.0000   1.0000   1.0000   1.0000   1.0000   1.0000   1.0000
    -0.0000  -0.0000  -0.0000  -0.0000  -0.0000

          k =-0.9983-0.8586 0.0000 ( 12140 PWs)   bands (ev):

   -49.8601 -26.3241 -25.9176 -25.7467 -10.9580  -8.8719  -8.6651  -0.6421
     0.5764   0.9730   1.7528   1.8580   1.9598   2.6051   3.2792   3.8749
     8.4879   9.1440   9.3339   9.7862  11.3899

     occupation numbers 
     1.0000   1.0000   1.0000   1.0000   1.0000   1.0000   1.0000   1.0000
     1.0000   1.0000   1.0000   1.0000   1.0000   1.0000   1.0000   1.0000
    -0.0000  -0.0000  -0.0000  -0.0000  -0.0000

          k = 0.1997 0.0000 0.0542 ( 12144 PWs)   bands (ev):

   -49.8766 -26.1600 -25.7879 -25.7322 -12.4373  -9.4354  -8.8117   0.7687
     2.3460   2.6792   2.9174   2.9969   3.2262   3.8719   3.9711   4.1332
     5.8166   7.1158   7.2799   8.7197   9.6199

     occupation numbers 
     1.0000   1.0000   1.0000   1.0000   1.0000   1.0000   1.0000   1.0000
     1.0000   1.0000   1.0000   1.0000   1.0000   1.0000   1.0000   1.0000
     1.0000  -0.0000  -0.0000  -0.0000  -0.0000

          k = 0.3993 0.1717 0.0542 ( 12149 PWs)   bands (ev):

   -49.8727 -26.1736 -25.7856 -25.7777 -12.2931  -9.2708  -8.8240   1.0814
     2.0508   2.2928   2.5388   2.6111   3.1353   3.2145   3.8500   4.0509
     6.4190   7.2328   7.3599   8.9796  10.2728

     occupation numbers 
     1.0000   1.0000   1.0000   1.0000   1.0000   1.0000   1.0000   1.0000
     1.0000   1.0000   1.0000   1.0000   1.0000   1.0000   1.0000   1.0000
     1.0000  -0.0000  -0.0000  -0.0000  -0.0000

          k = 0.5990 0.3435 0.0542 ( 12156 PWs)   bands (ev):

   -49.8673 -26.2142 -25.8498 -25.7642 -11.9433  -9.0304  -8.8430   1.4009
     1.5868   1.7935   1.9281   2.0007   2.2187   2.8046   3.8388   4.1024
     7.1772   7.7009   7.8119   9.4089  10.9552

     occupation numbers 
     1.0000   1.0000   1.0000   1.0000   1.0000   1.0000   1.0000   1.0000
     1.0000   1.0000   1.0000   1.0000   1.0000   1.0000   1.0000   1.0000
    -0.0000  -0.0000  -0.0000  -0.0000  -0.0000

          k = 0.7986 0.5152 0.0542 ( 12169 PWs)   bands (ev):

   -49.8627 -26.2652 -25.9002 -25.7526 -11.4950  -8.8703  -8.7926   0.5385
     1.1188   1.1372   1.7025   1.8767   2.3363   2.3609   3.5918   4.0696
     7.9848   8.3379   8.5024   9.7226  11.2273

     occupation numbers 
     1.0000   1.0000   1.0000   1.0000   1.0000   1.0000   1.0000   1.0000
     1.0000   1.0000   1.0000   1.0000   1.0000   1.0000   1.0000   1.0000
    -0.0000  -0.0000  -0.0000  -0.0000  -0.0000

          k = 0.9983 0.6869 0.0542 ( 12165 PWs)   bands (ev):

   -49.8604 -26.3074 -25.9183 -25.7473 -11.1109  -8.8798  -8.6739  -0.3151
     0.6759   0.9504   1.6088   1.9540   2.1047   2.6226   3.3269   3.9186
     8.4803   8.8782   9.1009   9.7765  11.3082

     occupation numbers 
     1.0000   1.0000   1.0000   1.0000   1.0000   1.0000   1.0000   1.0000
     1.0000   1.0000   1.0000   1.0000   1.0000   1.0000   1.0000   1.0000
    -0.0000  -0.0000  -0.0000  -0.0000  -0.0000

          k =-0.7986-0.8586 0.0542 ( 12168 PWs)   bands (ev):

   -49.8615 -26.3260 -25.8977 -25.7503 -10.9676  -8.8758  -8.7246  -0.6490
     0.6956   1.1638   1.4958   1.8264   2.3020   2.4402   3.3827   3.8438
     8.1175   9.1798   9.3668   9.5923  11.3213

     occupation numbers 
     1.0000   1.0000   1.0000   1.0000   1.0000   1.0000   1.0000   1.0000
     1.0000   1.0000   1.0000   1.0000   1.0000   1.0000   1.0000   1.0000
    -0.0000  -0.0000  -0.0000  -0.0000  -0.0000

          k =-0.5990-0.6869 0.0542 ( 12172 PWs)   bands (ev):

   -49.8655 -26.3144 -25.8459 -25.7605 -11.1465  -8.9224  -8.8559  -0.3428
     1.1431   1.4014   1.7395   1.7636   1.9283   2.7286   3.6338   3.8382
     7.3113   9.0267   9.1571   9.3189  11.4349

     occupation numbers 
     1.0000   1.0000   1.0000   1.0000   1.0000   1.0000   1.0000   1.0000
     1.0000   1.0000   1.0000   1.0000   1.0000   1.0000   1.0000   1.0000
    -0.0000  -0.0000  -0.0000  -0.0000  -0.0000

          k =-0.3993-0.5152 0.0542 ( 12158 PWs)   bands (ev):

   -49.8708 -26.2760 -25.7819 -25.7739 -11.5553  -9.1702  -8.8336   0.4889
     1.2781   1.4190   1.9065   2.0558   2.6133   3.1619   3.7646   3.8716
     6.5116   8.5828   8.6180   9.0018  11.1438

     occupation numbers 
     1.0000   1.0000   1.0000   1.0000   1.0000   1.0000   1.0000   1.0000
     1.0000   1.0000   1.0000   1.0000   1.0000   1.0000   1.0000   1.0000
     1.0086  -0.0000  -0.0000  -0.0000  -0.0000

          k =-0.1997-0.3435 0.0542 ( 12131 PWs)   bands (ev):

   -49.8754 -26.2244 -25.7855 -25.7300 -12.0062  -9.3759  -8.8161   0.8523
     1.6011   1.6771   2.3639   2.7885   3.3784   3.5458   3.8013   3.9105
     5.8735   8.0140   8.0291   8.7562  10.2945

     occupation numbers 
     1.0000   1.0000   1.0000   1.0000   1.0000   1.0000   1.0000   1.0000
     1.0000   1.0000   1.0000   1.0000   1.0000   1.0000   1.0000   1.0000
     1.0000  -0.0000  -0.0000  -0.0000  -0.0000

          k = 0.0000-0.1717 0.0542 ( 12115 PWs)   bands (ev):

   -49.8777 -26.1796 -25.7908 -25.7108 -12.3330  -9.4738  -8.8088   0.6789
     2.1918   2.5103   2.5679   3.2941   3.3120   3.8274   3.9963   4.2093
     5.5487   7.4558   7.5192   8.6905   9.5909

     occupation numbers 
     1.0000   1.0000   1.0000   1.0000   1.0000   1.0000   1.0000   1.0000
     1.0000   1.0000   1.0000   1.0000   1.0000   1.0000   1.0000   1.0000
     1.0000  -0.0000  -0.0000  -0.0000  -0.0000

          k = 0.3993 0.0000 0.1083 ( 12140 PWs)   bands (ev):

   -49.8730 -26.1558 -25.7862 -25.7783 -12.4081  -9.2794  -8.8322   1.0672
     2.0652   2.4209   2.6480   2.9736   3.1868   3.5129   3.8249   3.9848
     6.4290   6.9783   7.1565   8.9427  10.0023

     occupation numbers 
     1.0000   1.0000   1.0000   1.0000   1.0000   1.0000   1.0000   1.0000
     1.0000   1.0000   1.0000   1.0000   1.0000   1.0000   1.0000   1.0000
     1.0000  -0.0000  -0.0000  -0.0000  -0.0000

          k = 0.5990 0.1717 0.1083 ( 12167 PWs)   bands (ev):

   -49.8682 -26.1683 -25.8515 -25.7659 -12.2574  -9.0693  -8.8461   1.3278
     1.6880   1.8979   2.2349   2.6488   2.9477   3.1331   3.8184   3.9978
     7.0105   7.1793   7.2776   9.3925  10.3802

     occupation numbers 
     1.0000   1.0000   1.0000   1.0000   1.0000   1.0000   1.0000   1.0000
     1.0000   1.0000   1.0000   1.0000   1.0000   1.0000   1.0000   1.0000
    -0.0000  -0.0000  -0.0000  -0.0000  -0.0000

          k = 0.7986 0.3435 0.1083 ( 12170 PWs)   bands (ev):

   -49.8637 -26.2097 -25.9025 -25.7546 -11.9151  -8.9018  -8.8141   1.0327
     1.4247   1.6275   1.7789   1.9637   2.4996   2.7766   3.7556   4.0979
     7.4655   7.7051   8.0882   9.7427  10.8095

     occupation numbers 
     1.0000   1.0000   1.0000   1.0000   1.0000   1.0000   1.0000   1.0000
     1.0000   1.0000   1.0000   1.0000   1.0000   1.0000   1.0000   1.0000
    -0.0000  -0.0000  -0.0000  -0.0000  -0.0000

          k = 0.9983 0.5152 0.1083 ( 12171 PWs)   bands (ev):

   -49.8613 -26.2633 -25.9202 -25.7489 -11.4846  -8.9003  -8.6966   0.5414
     0.8693   1.0021   1.4848   1.9749   2.4567   2.7041   3.4664   4.0087
     8.1942   8.4745   8.4933   9.7650  11.0620

     occupation numbers 
     1.0000   1.0000   1.0000   1.0000   1.0000   1.0000   1.0000   1.0000
     1.0000   1.0000   1.0000   1.0000   1.0000   1.0000   1.0000   1.0000
    -0.0000  -0.0000  -0.0000  -0.0000  -0.0000

          k = 1.1980 0.6869 0.1083 ( 12179 PWs)   bands (ev):

   -49.8618 -26.3093 -25.8984 -25.7509 -11.1207  -8.9010  -8.7143  -0.3230
     0.7806   1.1052   1.3879   1.9021   2.4503   2.5772   3.4199   3.8244
     8.1335   8.9149   9.1323   9.5326  11.1982

     occupation numbers 
     1.0000   1.0000   1.0000   1.0000   1.0000   1.0000   1.0000   1.0000
     1.0000   1.0000   1.0000   1.0000   1.0000   1.0000   1.0000   1.0000
    -0.0000  -0.0000  -0.0000  -0.0000  -0.0000

          k =-0.5990-0.8586 0.1083 ( 12174 PWs)   bands (ev):

   -49.8651 -26.3311 -25.8452 -25.7598 -10.9925  -8.8866  -8.8751  -0.6671
     1.0017   1.2837   1.6906   1.7095   2.1147   2.8055   3.6101   3.6929
     7.3533   9.1401   9.3338   9.4393  11.4204

     occupation numbers 
     1.0000   1.0000   1.0000   1.0000   1.0000   1.0000   1.0000   1.0000
     1.0000   1.0000   1.0000   1.0000   1.0000   1.0000   1.0000   1.0000
    -0.0000  -0.0000  -0.0000  -0.0000  -0.0000

          k =-0.3993-0.6869 0.1083 ( 12185 PWs)   bands (ev):

   -49.8699 -26.3206 -25.7803 -25.7722 -11.1778  -9.1033  -8.8626  -0.3666
     1.1098   1.4251   1.6169   1.9903   2.5828   3.1248   3.5865   3.8315
     6.5698   8.8775   9.2048   9.2892  11.3495

     occupation numbers 
     1.0000   1.0000   1.0000   1.0000   1.0000   1.0000   1.0000   1.0000
     1.0000   1.0000   1.0000   1.0000   1.0000   1.0000   1.0000   1.0000
     1.0336  -0.0000  -0.0000  -0.0000  -0.0000

          k =-0.1997-0.5152 0.1083 ( 12132 PWs)   bands (ev):

   -49.8744 -26.2808 -25.7834 -25.7281 -11.5820  -9.3063  -8.8399   0.4649
     0.9602   1.2725   2.3024   2.4384   3.1123   3.5186   3.6426   3.9262
     5.9287   8.6738   8.7648   8.8258  10.7158

     occupation numbers 
     1.0000   1.0000   1.0000   1.0000   1.0000   1.0000   1.0000   1.0000
     1.0000   1.0000   1.0000   1.0000   1.0000   1.0000   1.0000   1.0000
     1.0000  -0.0000  -0.0000  -0.0000  -0.0000

          k = 0.0000-0.3435 0.1083 ( 12124 PWs)   bands (ev):

   -49.8768 -26.2261 -25.7891 -25.7093 -12.0168  -9.4193  -8.8265   0.7665
     1.5839   1.6466   2.5497   3.0193   3.2870   3.5857   3.9145   4.0861
     5.5895   8.0485   8.1154   8.7411  10.0689

     occupation numbers 
     1.0000   1.0000   1.0000   1.0000   1.0000   1.0000   1.0000   1.0000
     1.0000   1.0000   1.0000   1.0000   1.0000   1.0000   1.0000   1.0000
     1.0000  -0.0000  -0.0000  -0.0000  -0.0000

          k = 0.1997-0.1717 0.1083 ( 12128 PWs)   bands (ev):

   -49.8763 -26.1779 -25.7872 -25.7316 -12.3218  -9.4098  -8.8243   0.8226
     2.2336   2.3553   2.5796   3.1116   3.2445   3.6632   3.9125   4.0583
     5.8432   7.3810   7.4885   8.7285   9.8897

     occupation numbers 
     1.0000   1.0000   1.0000   1.0000   1.0000   1.0000   1.0000   1.0000
     1.0000   1.0000   1.0000   1.0000   1.0000   1.0000   1.0000   1.0000
     1.0000  -0.0000  -0.0000  -0.0000  -0.0000

          k = 0.5990 0.0000 0.1625 ( 12144 PWs)   bands (ev):

   -49.8685 -26.1505 -25.8522 -25.7665 -12.3721  -9.0844  -8.8464   1.2721
     1.6084   1.9616   2.3388   3.0508   3.3812   3.4650   3.7099   3.7884
     6.8387   6.9378   7.2294   9.3300  10.0418

     occupation numbers 
     1.0000   1.0000   1.0000   1.0000   1.0000   1.0000   1.0000   1.0000
     1.0000   1.0000   1.0000   1.0000   1.0000   1.0000   1.0000   1.0000
    -0.0002  -0.0000  -0.0000  -0.0000  -0.0000

          k = 0.7986 0.1717 0.1625 ( 12183 PWs)   bands (ev):

   -49.8645 -26.1639 -25.9043 -25.7563 -12.2286  -8.9414  -8.8160   0.9643
     1.4255   1.8713   2.0061   2.7817   2.9226   3.3095   3.7988   3.9423
     6.9386   6.9986   8.0503   9.6952  10.2293

     occupation numbers 
     1.0000   1.0000   1.0000   1.0000   1.0000   1.0000   1.0000   1.0000
     1.0000   1.0000   1.0000   1.0000   1.0000   1.0000   1.0000   1.0000
    -0.0000  -0.0000  -0.0000  -0.0000  -0.0000

          k = 0.9983 0.3435 0.1625 ( 12171 PWs)   bands (ev):

   -49.8623 -26.2079 -25.9225 -25.7510 -11.9043  -8.9254  -8.7242   0.7657
     1.3448   1.4696   1.7516   1.9734   2.7347   3.0212   3.6672   4.0330
     7.4506   7.6597   8.4682   9.7425  10.6455

     occupation numbers 
     1.0000   1.0000   1.0000   1.0000   1.0000   1.0000   1.0000   1.0000
     1.0000   1.0000   1.0000   1.0000   1.0000   1.0000   1.0000   1.0000
    -0.0000  -0.0000  -0.0000  -0.0000  -0.0000

          k = 1.1980 0.5152 0.1625 ( 12179 PWs)   bands (ev):

   -49.8627 -26.2652 -25.9002 -25.7526 -11.4948  -8.9322  -8.7253   0.5365
     1.0003   1.1040   1.3280   2.0305   2.6063   2.7277   3.5577   3.9038
     8.1194   8.2689   8.5082   9.5052  10.9749

     occupation numbers 
     1.0000   1.0000   1.0000   1.0000   1.0000   1.0000   1.0000   1.0000
     1.0000   1.0000   1.0000   1.0000   1.0000   1.0000   1.0000   1.0000
    -0.0000  -0.0000  -0.0000  -0.0000  -0.0000

          k = 1.3976 0.6869 0.1625 ( 12174 PWs)   bands (ev):

   -49.8655 -26.3144 -25.8459 -25.7605 -11.1462  -8.9316  -8.8452  -0.3433
     1.0692   1.2931   1.6207   1.7099   2.3003   2.8739   3.6271   3.7099
     7.3669   8.9631   9.1915   9.2243  11.3261

     occupation numbers 
     1.0000   1.0000   1.0000   1.0000   1.0000   1.0000   1.0000   1.0000
     1.0000   1.0000   1.0000   1.0000   1.0000   1.0000   1.0000   1.0000
    -0.0000  -0.0000  -0.0000  -0.0000  -0.0000

          k =-0.3993-0.8586 0.1625 ( 12181 PWs)   bands (ev):

   -49.8696 -26.3375 -25.7796 -25.7716 -11.0228  -9.0518  -8.9011  -0.6894
     1.0190   1.3691   1.6970   1.8872   2.5959   3.0594   3.5010   3.8501
     6.6059   8.8582   9.4491   9.5030  11.4123

     occupation numbers 
     1.0000   1.0000   1.0000   1.0000   1.0000   1.0000   1.0000   1.0000
     1.0000   1.0000   1.0000   1.0000   1.0000   1.0000   1.0000   1.0000
     0.9164  -0.0000  -0.0000  -0.0000  -0.0000

          k =-0.1997-0.6869 0.1625 ( 12157 PWs)   bands (ev):

   -49.8735 -26.3256 -25.7817 -25.7266 -11.2028  -9.2338  -8.8788  -0.3857
     0.8555   1.2565   2.0300   2.3348   2.8939   3.4675   3.5402   3.9528
     5.9753   8.7987   9.3022   9.3625  11.0028

     occupation numbers 
     1.0000   1.0000   1.0000   1.0000   1.0000   1.0000   1.0000   1.0000
     1.0000   1.0000   1.0000   1.0000   1.0000   1.0000   1.0000   1.0000
     1.0000  -0.0000  -0.0000  -0.0000  -0.0000

          k =-0.0000-0.5152 0.1625 ( 12150 PWs)   bands (ev):

   -49.8758 -26.2826 -25.7870 -25.7075 -11.5920  -9.3440  -8.8581   0.4534
     0.8654   1.2659   2.5999   2.6955   2.7653   3.5349   3.9582   3.9984
     5.6363   8.7240   8.8007   8.8587  10.5265

     occupation numbers 
     1.0000   1.0000   1.0000   1.0000   1.0000   1.0000   1.0000   1.0000
     1.0000   1.0000   1.0000   1.0000   1.0000   1.0000   1.0000   1.0000
     1.0000  -0.0000  -0.0000  -0.0000  -0.0000

          k = 0.1997-0.3435 0.1625 ( 12136 PWs)   bands (ev):

   -49.8754 -26.2244 -25.7855 -25.7300 -12.0058  -9.3512  -8.8460   0.9185
     1.5950   1.7311   2.3530   2.7850   3.1624   3.5586   3.7247   4.0396
     5.8922   8.0224   8.0296   8.7577  10.3874

     occupation numbers 
     1.0000   1.0000   1.0000   1.0000   1.0000   1.0000   1.0000   1.0000
     1.0000   1.0000   1.0000   1.0000   1.0000   1.0000   1.0000   1.0000
     1.0000  -0.0000  -0.0000  -0.0000  -0.0000

          k = 0.3993-0.1717 0.1625 ( 12150 PWs)   bands (ev):

   -49.8727 -26.1736 -25.7856 -25.7777 -12.2929  -9.2536  -8.8435   1.1104
     2.0659   2.2415   2.4992   2.6141   3.1078   3.2878   3.8496   4.0501
     6.4549   7.2122   7.3790   8.9059  10.2795

     occupation numbers 
     1.0000   1.0000   1.0000   1.0000   1.0000   1.0000   1.0000   1.0000
     1.0000   1.0000   1.0000   1.0000   1.0000   1.0000   1.0000   1.0000
     1.0003  -0.0000  -0.0000  -0.0000  -0.0000

          k = 0.7986 0.0000 0.2166 ( 12180 PWs)   bands (ev):

   -49.8649 -26.1463 -25.9050 -25.7569 -12.3431  -8.9682  -8.8037   0.9162
     1.3414   2.0092   2.0572   3.1638   3.4341   3.5061   3.7034   3.8137
     6.6855   6.7480   8.0485   9.5850   9.9364

     occupation numbers 
     1.0000   1.0000   1.0000   1.0000   1.0000   1.0000   1.0000   1.0000
     1.0000   1.0000   1.0000   1.0000   1.0000   1.0000   1.0000   1.0000
     0.0900  -0.0278  -0.0000  -0.0000  -0.0000

          k = 0.9983 0.1717 0.2166 ( 12176 PWs)   bands (ev):

   -49.8632 -26.1623 -25.9244 -25.7526 -12.2175  -8.9455  -8.7463   0.7105
     1.3421   1.8374   1.9538   2.8468   2.9829   3.4757   3.8519   3.8565
     6.8817   6.9267   8.4508   9.6535  10.1810

     occupation numbers 
     1.0000   1.0000   1.0000   1.0000   1.0000   1.0000   1.0000   1.0000
     1.0000   1.0000   1.0000   1.0000   1.0000   1.0000   1.0000   1.0000
    -0.0000  -0.0000  -0.0000  -0.0000  -0.0000

          k = 1.1980 0.3435 0.2166 ( 12170 PWs)   bands (ev):

   -49.8637 -26.2097 -25.9025 -25.7546 -11.9150  -8.9599  -8.7508   0.9322
     1.2814   1.4757   1.7631   2.1218   2.7501   2.9906   3.7350   3.9958
     7.4899   7.7049   8.1113   9.5192  10.6075

     occupation numbers 
     1.0000   1.0000   1.0000   1.0000   1.0000   1.0000   1.0000   1.0000
     1.0000   1.0000   1.0000   1.0000   1.0000   1.0000   1.0000   1.0000
    -0.0000  -0.0000  -0.0000  -0.0000  -0.0000

          k = 1.3976 0.5152 0.2166 ( 12163 PWs)   bands (ev):

   -49.8663 -26.2700 -25.8476 -25.7622 -11.5216  -8.9856  -8.8328   0.5130
     1.3103   1.3410   1.5768   1.8529   2.4292   2.9294   3.6722   3.8975
     7.3453   8.3814   8.5818   9.1630  11.1284

     occupation numbers 
     1.0000   1.0000   1.0000   1.0000   1.0000   1.0000   1.0000   1.0000
     1.0000   1.0000   1.0000   1.0000   1.0000   1.0000   1.0000   1.0000
    -0.0000  -0.0000  -0.0000  -0.0000  -0.0000

          k = 1.5973 0.6869 0.2166 ( 12180 PWs)   bands (ev):

   -49.8699 -26.3206 -25.7803 -25.7722 -11.1774  -9.0606  -8.9079  -0.3674
     1.0938   1.4522   1.6719   1.9564   2.5859   3.0822   3.4907   3.9294
     6.6075   8.8266   9.2317   9.2627  11.3505

     occupation numbers 
     1.0000   1.0000   1.0000   1.0000   1.0000   1.0000   1.0000   1.0000
     1.0000   1.0000   1.0000   1.0000   1.0000   1.0000   1.0000   1.0000
     0.9055  -0.0000  -0.0000  -0.0000  -0.0000

          k =-0.1997-0.8586 0.2166 ( 12166 PWs)   bands (ev):

   -49.8732 -26.3426 -25.7810 -25.7260 -11.0468  -9.1885  -8.9137  -0.7073
     0.7749   1.4012   1.8538   2.2578   2.8232   3.4314   3.5094   3.9706
     5.9978   8.8155   9.5291   9.5881  11.1227

     occupation numbers 
     1.0000   1.0000   1.0000   1.0000   1.0000   1.0000   1.0000   1.0000
     1.0000   1.0000   1.0000   1.0000   1.0000   1.0000   1.0000   1.0000
     1.0000  -0.0000  -0.0000  -0.0000  -0.0000

          k = 0.0000-0.6869 0.2166 ( 12148 PWs)   bands (ev):

   -49.8749 -26.3275 -25.7853 -25.7060 -11.2121  -9.2718  -8.8976  -0.3932
     0.7532   1.2606   2.3279   2.4609   2.6456   3.4658   3.9446   3.9717
     5.6743   8.8544   9.3000   9.4337  10.8395

     occupation numbers 
     1.0000   1.0000   1.0000   1.0000   1.0000   1.0000   1.0000   1.0000
     1.0000   1.0000   1.0000   1.0000   1.0000   1.0000   1.0000   1.0000
     1.0000  -0.0000  -0.0000  -0.0000  -0.0000

          k = 0.1997-0.5152 0.2166 ( 12155 PWs)   bands (ev):

   -49.8744 -26.2808 -25.7834 -25.7281 -11.5816  -9.2743  -8.8774   0.4612
     0.9964   1.4041   2.1848   2.4742   2.9443   3.5246   3.5722   4.0331
     5.9476   8.7073   8.7523   8.8133  10.8126

     occupation numbers 
     1.0000   1.0000   1.0000   1.0000   1.0000   1.0000   1.0000   1.0000
     1.0000   1.0000   1.0000   1.0000   1.0000   1.0000   1.0000   1.0000
     1.0000  -0.0000  -0.0000  -0.0000  -0.0000

          k = 0.3993-0.3435 0.2166 ( 12158 PWs)   bands (ev):

   -49.8718 -26.2198 -25.7839 -25.7760 -11.9777  -9.1983  -8.8590   1.1802
     1.6070   1.9028   2.0250   2.3373   2.6368   3.2695   3.7206   4.1063
     6.5110   7.8302   7.9466   8.8839  10.7806

     occupation numbers 
     1.0000   1.0000   1.0000   1.0000   1.0000   1.0000   1.0000   1.0000
     1.0000   1.0000   1.0000   1.0000   1.0000   1.0000   1.0000   1.0000
     1.0083  -0.0000  -0.0000  -0.0000  -0.0000

          k = 0.5990-0.1717 0.2166 ( 12169 PWs)   bands (ev):

   -49.8682 -26.1683 -25.8515 -25.7659 -12.2572  -9.0724  -8.8414   1.2596
     1.5482   1.9276   2.3081   2.6787   3.0169   3.2123   3.8013   4.0146
     7.0117   7.1760   7.2936   9.2537  10.2918

     occupation numbers 
     1.0000   1.0000   1.0000   1.0000   1.0000   1.0000   1.0000   1.0000
     1.0000   1.0000   1.0000   1.0000   1.0000   1.0000   1.0000   1.0000
    -0.0000  -0.0000  -0.0000  -0.0000  -0.0000

          k =-0.9983 0.0000-0.2708 ( 12202 PWs)   bands (ev):

   -49.8635 -26.1446 -25.9251 -25.7532 -12.3320  -8.9531  -8.7546   0.6886
     1.3301   1.9213   2.0322   3.3101   3.3291   3.4733   3.7553   3.9324
     6.5640   6.7179   8.4419   9.5248  10.0165

     occupation numbers 
     1.0000   1.0000   1.0000   1.0000   1.0000   1.0000   1.0000   1.0000
     1.0000   1.0000   1.0000   1.0000   1.0000   1.0000   1.0000   1.0000
     1.0354  -0.0299  -0.0000  -0.0000  -0.0000

          k =-0.7986 0.1717-0.2708 ( 12180 PWs)   bands (ev):

   -49.8645 -26.1639 -25.9043 -25.7563 -12.2285  -8.9741  -8.7801   0.9067
     1.2928   1.8715   2.1128   2.7897   3.0014   3.3937   3.7748   3.9605
     6.9224   6.9917   8.0757   9.5519  10.1434

     occupation numbers 
     1.0000   1.0000   1.0000   1.0000   1.0000   1.0000   1.0000   1.0000
     1.0000   1.0000   1.0000   1.0000   1.0000   1.0000   1.0000   1.0000
    -0.0000  -0.0000  -0.0000  -0.0000  -0.0000

          k =-0.5990 0.3435-0.2708 ( 12163 PWs)   bands (ev):

   -49.8673 -26.2142 -25.8498 -25.7642 -11.9430  -9.0366  -8.8343   1.2778
     1.4551   1.6373   1.8415   2.1234   2.5761   3.0034   3.7787   4.0596
     7.2804   7.6482   7.8220   9.1905  10.7757

     occupation numbers 
     1.0000   1.0000   1.0000   1.0000   1.0000   1.0000   1.0000   1.0000
     1.0000   1.0000   1.0000   1.0000   1.0000   1.0000   1.0000   1.0000
    -0.0000  -0.0000  -0.0000  -0.0000  -0.0000

          k =-0.3993 0.5152-0.2708 ( 12180 PWs)   bands (ev):

   -49.8708 -26.2760 -25.7819 -25.7739 -11.5548  -9.1259  -8.8819   0.4840
     1.2397   1.6189   1.7343   2.1378   2.5376   3.2088   3.5511   4.0388
     6.5719   8.5552   8.6620   8.8964  11.1525

     occupation numbers 
     1.0000   1.0000   1.0000   1.0000   1.0000   1.0000   1.0000   1.0000
     1.0000   1.0000   1.0000   1.0000   1.0000   1.0000   1.0000   1.0000
     1.0322  -0.0000  -0.0000  -0.0000  -0.0000

          k =-0.1997 0.6869-0.2708 ( 12164 PWs)   bands (ev):

   -49.8735 -26.3256 -25.7817 -25.7266 -11.2025  -9.2062  -8.9100  -0.3863
     0.8517   1.4230   1.9055   2.3176   2.8367   3.4425   3.5301   3.9998
     5.9878   8.8109   9.2926   9.3648  11.0627

     occupation numbers 
     1.0000   1.0000   1.0000   1.0000   1.0000   1.0000   1.0000   1.0000
     1.0000   1.0000   1.0000   1.0000   1.0000   1.0000   1.0000   1.0000
     1.0000  -0.0000  -0.0000  -0.0000  -0.0000

          k =-1.9966-0.8586-0.2708 ( 12134 PWs)   bands (ev):

   -49.8746 -26.3445 -25.7846 -25.7054 -11.0560  -9.2393  -8.9187  -0.7142
     0.6785   1.3368   2.1372   2.3783   2.6627   3.4391   3.9257   3.9688
     5.6889   8.8740   9.5299   9.6539  10.9505

     occupation numbers 
     1.0000   1.0000   1.0000   1.0000   1.0000   1.0000   1.0000   1.0000
     1.0000   1.0000   1.0000   1.0000   1.0000   1.0000   1.0000   1.0000
     1.0000  -0.0000  -0.0000  -0.0000  -0.0000

          k = 0.3993 0.3435 0.1083 ( 12146 PWs)   bands (ev):

   -49.8718 -26.2198 -25.7839 -25.7760 -11.9780  -9.2226  -8.8319   1.1537
     1.6256   1.8447   2.0502   2.3880   2.6574   3.2129   3.8161   4.0411
     6.4673   7.8406   7.9316   8.9609  10.7743

     occupation numbers 
     1.0000   1.0000   1.0000   1.0000   1.0000   1.0000   1.0000   1.0000
     1.0000   1.0000   1.0000   1.0000   1.0000   1.0000   1.0000   1.0000
     1.0006  -0.0000  -0.0000  -0.0000  -0.0000

          k = 0.5990 0.5152 0.1083 ( 12157 PWs)   bands (ev):

   -49.8663 -26.2700 -25.8476 -25.7621 -11.5220  -8.9786  -8.8419   0.5164
     1.3930   1.6054   1.6892   1.7705   2.0426   2.7374   3.7289   3.9923
     7.2643   8.4039   8.5684   9.3435  11.2981

     occupation numbers 
     1.0000   1.0000   1.0000   1.0000   1.0000   1.0000   1.0000   1.0000
     1.0000   1.0000   1.0000   1.0000   1.0000   1.0000   1.0000   1.0000
    -0.0000  -0.0000  -0.0000  -0.0000  -0.0000

          k = 0.7986 0.6869 0.1083 ( 12163 PWs)   bands (ev):

   -49.8618 -26.3093 -25.8984 -25.7509 -11.1208  -8.8687  -8.7495  -0.3229
     0.8149   1.1548   1.6971   1.7408   2.2512   2.3815   3.4402   3.9383
     8.0873   8.9183   9.1303   9.6480  11.3524

     occupation numbers 
     1.0000   1.0000   1.0000   1.0000   1.0000   1.0000   1.0000   1.0000
     1.0000   1.0000   1.0000   1.0000   1.0000   1.0000   1.0000   1.0000
    -0.0000  -0.0000  -0.0000  -0.0000  -0.0000

          k = 0.9983 0.8586 0.1083 ( 12158 PWs)   bands (ev):

   -49.8601 -26.3241 -25.9176 -25.7467 -10.9580  -8.8719  -8.6651  -0.6421
     0.5840   0.9551   1.7697   1.8796   1.9362   2.6124   3.2481   3.8953
     8.4892   9.1449   9.3393   9.7674  11.3771

     occupation numbers 
     1.0000   1.0000   1.0000   1.0000   1.0000   1.0000   1.0000   1.0000
     1.0000   1.0000   1.0000   1.0000   1.0000   1.0000   1.0000   1.0000
    -0.0000  -0.0000  -0.0000  -0.0000  -0.0000

          k = 0.0000 0.0000 0.1083 ( 12125 PWs)   bands (ev):

   -49.8780 -26.1616 -25.7915 -25.7114 -12.4483  -9.4788  -8.8220   0.6951
     2.5113   2.7003   2.8432   3.0035   3.4189   3.8587   4.1560   4.2640
     5.5412   7.1737   7.3382   8.7050   9.4178

     occupation numbers 
     1.0000   1.0000   1.0000   1.0000   1.0000   1.0000   1.0000   1.0000
     1.0000   1.0000   1.0000   1.0000   1.0000   1.0000   1.0000   1.0000
     1.0000  -0.0000  -0.0000  -0.0000  -0.0000

          k = 0.5990 0.3435 0.1625 ( 12175 PWs)   bands (ev):

   -49.8673 -26.2142 -25.8498 -25.7642 -11.9432  -9.0328  -8.8396   1.3511
     1.5376   1.7104   1.8807   2.0515   2.3823   2.8869   3.8168   4.0871
     7.2146   7.6780   7.8171   9.3273  10.8883

     occupation numbers 
     1.0000   1.0000   1.0000   1.0000   1.0000   1.0000   1.0000   1.0000
     1.0000   1.0000   1.0000   1.0000   1.0000   1.0000   1.0000   1.0000
    -0.0000  -0.0000  -0.0000  -0.0000  -0.0000

          k = 0.7986 0.5152 0.1625 ( 12175 PWs)   bands (ev):

   -49.8627 -26.2652 -25.9002 -25.7526 -11.4950  -8.8914  -8.7702   0.5379
     1.0962   1.1123   1.6069   1.8934   2.4090   2.4755   3.5789   4.0367
     8.0159   8.3188   8.5034   9.6706  11.1725

     occupation numbers 
     1.0000   1.0000   1.0000   1.0000   1.0000   1.0000   1.0000   1.0000
     1.0000   1.0000   1.0000   1.0000   1.0000   1.0000   1.0000   1.0000
    -0.0000  -0.0000  -0.0000  -0.0000  -0.0000

          k = 0.9983 0.6869 0.1625 ( 12172 PWs)   bands (ev):

   -49.8604 -26.3074 -25.9183 -25.7473 -11.1109  -8.8798  -8.6739  -0.3151
     0.6912   0.9194   1.6604   1.8999   2.1187   2.6464   3.2816   3.9454
     8.4852   8.8767   9.1067   9.7503  11.2968

     occupation numbers 
     1.0000   1.0000   1.0000   1.0000   1.0000   1.0000   1.0000   1.0000
     1.0000   1.0000   1.0000   1.0000   1.0000   1.0000   1.0000   1.0000
    -0.0000  -0.0000  -0.0000  -0.0000  -0.0000

          k = 1.1980 0.8586 0.1625 ( 12169 PWs)   bands (ev):

   -49.8615 -26.3260 -25.8977 -25.7503 -10.9676  -8.8758  -8.7246  -0.6490
     0.7011   1.1378   1.5595   1.7641   2.3110   2.4585   3.3690   3.8492
     8.1187   9.1651   9.3707   9.5979  11.3435

     occupation numbers 
     1.0000   1.0000   1.0000   1.0000   1.0000   1.0000   1.0000   1.0000
     1.0000   1.0000   1.0000   1.0000   1.0000   1.0000   1.0000   1.0000
    -0.0000  -0.0000  -0.0000  -0.0000  -0.0000

          k =-0.5990-0.6869 0.1625 ( 12176 PWs)   bands (ev):

   -49.8655 -26.3144 -25.8459 -25.7605 -11.1464  -8.9248  -8.8531  -0.3429
     1.1158   1.4258   1.6302   1.7229   2.0825   2.7672   3.6299   3.8083
     7.3240   8.9823   9.1774   9.3163  11.4286

     occupation numbers 
     1.0000   1.0000   1.0000   1.0000   1.0000   1.0000   1.0000   1.0000
     1.0000   1.0000   1.0000   1.0000   1.0000   1.0000   1.0000   1.0000
    -0.0000  -0.0000  -0.0000  -0.0000  -0.0000

          k =-0.3993-0.5152 0.1625 ( 12172 PWs)   bands (ev):

   -49.8708 -26.2760 -25.7819 -25.7739 -11.5551  -9.1550  -8.8504   0.4870
     1.2433   1.5115   1.8253   2.1285   2.5451   3.1986   3.6547   3.9629
     6.5341   8.5649   8.6449   8.9572  11.1502

     occupation numbers 
     1.0000   1.0000   1.0000   1.0000   1.0000   1.0000   1.0000   1.0000
     1.0000   1.0000   1.0000   1.0000   1.0000   1.0000   1.0000   1.0000
     1.0209  -0.0000  -0.0000  -0.0000  -0.0000

          k = 0.0000-0.1717 0.1625 ( 12102 PWs)   bands (ev):

   -49.8777 -26.1796 -25.7909 -25.7108 -12.3326  -9.4452  -8.8448   0.7746
     2.2113   2.5396   2.5647   3.2196   3.3026   3.6571   4.0426   4.1606
     5.5621   7.4557   7.5407   8.7516   9.7109

     occupation numbers 
     1.0000   1.0000   1.0000   1.0000   1.0000   1.0000   1.0000   1.0000
     1.0000   1.0000   1.0000   1.0000   1.0000   1.0000   1.0000   1.0000
     1.0000  -0.0000  -0.0000  -0.0000  -0.0000

          k = 0.1997 0.0000 0.1625 ( 12126 PWs)   bands (ev):

   -49.8766 -26.1600 -25.7879 -25.7322 -12.4369  -9.4090  -8.8442   0.8540
     2.3601   2.6377   2.8590   3.0908   3.1930   3.7426   3.9991   4.0807
     5.8503   7.1053   7.3153   8.7180   9.7076

     occupation numbers 
     1.0000   1.0000   1.0000   1.0000   1.0000   1.0000   1.0000   1.0000
     1.0000   1.0000   1.0000   1.0000   1.0000   1.0000   1.0000   1.0000
     1.0000  -0.0000  -0.0000  -0.0000  -0.0000

          k = 0.7986 0.3435 0.2166 ( 12174 PWs)   bands (ev):

   -49.8637 -26.2097 -25.9025 -25.7546 -11.9151  -8.9339  -8.7797   0.9788
     1.3708   1.5555   1.7663   2.0197   2.6314   2.8736   3.7426   4.0579
     7.4784   7.7046   8.0944   9.6390  10.7246

     occupation numbers 
     1.0000   1.0000   1.0000   1.0000   1.0000   1.0000   1.0000   1.0000
     1.0000   1.0000   1.0000   1.0000   1.0000   1.0000   1.0000   1.0000
    -0.0000  -0.0000  -0.0000  -0.0000  -0.0000

          k = 0.9983 0.5152 0.2166 ( 12175 PWs)   bands (ev):

   -49.8613 -26.2633 -25.9202 -25.7489 -11.4846  -8.9003  -8.6966   0.5408
     0.8650   0.9928   1.5540   1.8948   2.4433   2.7633   3.4309   4.0239
     8.2090   8.4766   8.4817   9.7410  11.0718

     occupation numbers 
     1.0000   1.0000   1.0000   1.0000   1.0000   1.0000   1.0000   1.0000
     1.0000   1.0000   1.0000   1.0000   1.0000   1.0000   1.0000   1.0000
    -0.0000  -0.0000  -0.0000  -0.0000  -0.0000

          k = 1.1980 0.6869 0.2166 ( 12177 PWs)   bands (ev):

   -49.8618 -26.3093 -25.8984 -25.7509 -11.1207  -8.8925  -8.7237  -0.3230
     0.7980   1.0952   1.4903   1.8409   2.3940   2.5399   3.4127   3.8676
     8.1210   8.9053   9.1331   9.5713  11.2617

     occupation numbers 
     1.0000   1.0000   1.0000   1.0000   1.0000   1.0000   1.0000   1.0000
     1.0000   1.0000   1.0000   1.0000   1.0000   1.0000   1.0000   1.0000
    -0.0000  -0.0000  -0.0000  -0.0000  -0.0000

          k = 1.3976 0.8586 0.2166 ( 12177 PWs)   bands (ev):

   -49.8651 -26.3311 -25.8452 -25.7598 -10.9925  -8.8866  -8.8751  -0.6671
     0.9927   1.3273   1.6415   1.6880   2.1572   2.8031   3.6296   3.6688
     7.3531   9.0999   9.3847   9.4324  11.4499

     occupation numbers 
     1.0000   1.0000   1.0000   1.0000   1.0000   1.0000   1.0000   1.0000
     1.0000   1.0000   1.0000   1.0000   1.0000   1.0000   1.0000   1.0000
    -0.0000  -0.0000  -0.0000  -0.0000  -0.0000

          k =-0.3993-0.6869 0.2166 ( 12179 PWs)   bands (ev):

   -49.8699 -26.3206 -25.7803 -25.7722 -11.1776  -9.0865  -8.8805  -0.3670
     1.0896   1.4811   1.6063   1.9882   2.5693   3.1031   3.5489   3.8793
     6.5866   8.8537   9.2256   9.2682  11.3506

     occupation numbers 
     1.0000   1.0000   1.0000   1.0000   1.0000   1.0000   1.0000   1.0000
     1.0000   1.0000   1.0000   1.0000   1.0000   1.0000   1.0000   1.0000
     1.0070  -0.0000  -0.0000  -0.0000  -0.0000

          k =-0.0000-0.3435 0.2166 ( 12157 PWs)   bands (ev):

   -49.8768 -26.2261 -25.7892 -25.7093 -12.0163  -9.3793  -8.8755   0.8815
     1.5838   1.7207   2.5862   2.9743   3.0149   3.4775   4.0213   4.0787
     5.5990   8.0481   8.1146   8.8129  10.2353

     occupation numbers 
     1.0000   1.0000   1.0000   1.0000   1.0000   1.0000   1.0000   1.0000
     1.0000   1.0000   1.0000   1.0000   1.0000   1.0000   1.0000   1.0000
     1.0000  -0.0000  -0.0000  -0.0000  -0.0000

          k = 0.1997-0.1717 0.2166 ( 12136 PWs)   bands (ev):

   -49.8763 -26.1779 -25.7872 -25.7316 -12.3214  -9.3715  -8.8707   0.9431
     2.2425   2.3625   2.5830   3.0363   3.1906   3.5677   3.8890   4.0600
     5.8792   7.3746   7.5194   8.7399  10.0064

     occupation numbers 
     1.0000   1.0000   1.0000   1.0000   1.0000   1.0000   1.0000   1.0000
     1.0000   1.0000   1.0000   1.0000   1.0000   1.0000   1.0000   1.0000
     1.0000  -0.0000  -0.0000  -0.0000  -0.0000

          k = 0.3993 0.0000 0.2166 ( 12146 PWs)   bands (ev):

   -49.8730 -26.1558 -25.7862 -25.7784 -12.4077  -9.2542  -8.8605   1.1158
     2.0821   2.2658   2.6821   2.9202   3.2851   3.5337   3.8671   3.9381
     6.4797   6.9461   7.1826   8.8421   9.9990

     occupation numbers 
     1.0000   1.0000   1.0000   1.0000   1.0000   1.0000   1.0000   1.0000
     1.0000   1.0000   1.0000   1.0000   1.0000   1.0000   1.0000   1.0000
     1.0015  -0.0000  -0.0000  -0.0000  -0.0000

          k = 0.9983 0.3435 0.2708 ( 12160 PWs)   bands (ev):

   -49.8623 -26.2079 -25.9225 -25.7510 -11.9043  -8.9254  -8.7242   0.7551
     1.3467   1.5286   1.7452   1.9121   2.7286   3.0570   3.6523   4.0357
     7.4552   7.6603   8.4647   9.7225  10.6673

     occupation numbers 
     1.0000   1.0000   1.0000   1.0000   1.0000   1.0000   1.0000   1.0000
     1.0000   1.0000   1.0000   1.0000   1.0000   1.0000   1.0000   1.0000
    -0.0000  -0.0000  -0.0000  -0.0000  -0.0000

          k = 1.1980 0.5152 0.2708 ( 12171 PWs)   bands (ev):

   -49.8627 -26.2652 -25.9002 -25.7526 -11.4949  -8.9146  -8.7450   0.5371
     1.0427   1.1047   1.4595   1.9611   2.5021   2.6243   3.5621   3.9770
     8.0682   8.2902   8.5057   9.5874  11.0784

     occupation numbers 
     1.0000   1.0000   1.0000   1.0000   1.0000   1.0000   1.0000   1.0000
     1.0000   1.0000   1.0000   1.0000   1.0000   1.0000   1.0000   1.0000
    -0.0000  -0.0000  -0.0000  -0.0000  -0.0000

          k = 1.3976 0.6869 0.2708 ( 12176 PWs)   bands (ev):

   -49.8655 -26.3144 -25.8459 -25.7605 -11.1463  -8.9284  -8.8490  -0.3431
     1.0868   1.3760   1.6385   1.6678   2.2149   2.8228   3.6267   3.7594
     7.3451   8.9518   9.1908   9.2867  11.3921

     occupation numbers 
     1.0000   1.0000   1.0000   1.0000   1.0000   1.0000   1.0000   1.0000
     1.0000   1.0000   1.0000   1.0000   1.0000   1.0000   1.0000   1.0000
    -0.0000  -0.0000  -0.0000  -0.0000  -0.0000

          k = 1.5973 0.8586 0.2708 ( 12178 PWs)   bands (ev):

   -49.8696 -26.3375 -25.7796 -25.7716 -11.0228  -9.0518  -8.9011  -0.6894
     1.0090   1.3885   1.6982   1.8774   2.6029   3.0329   3.5257   3.8444
     6.6062   8.8568   9.4578   9.4944  11.4118

     occupation numbers 
     1.0000   1.0000   1.0000   1.0000   1.0000   1.0000   1.0000   1.0000
     1.0000   1.0000   1.0000   1.0000   1.0000   1.0000   1.0000   1.0000
     0.9146  -0.0000  -0.0000  -0.0000  -0.0000

          k = 0.0000-0.5152 0.2708 ( 12146 PWs)   bands (ev):

   -49.8758 -26.2826 -25.7870 -25.7075 -11.5915  -9.2988  -8.9112   0.4490
     0.9437   1.4133   2.4767   2.6316   2.6961   3.4089   3.9386   4.1084
     5.6447   8.7123   8.8435   8.8764  10.6813

     occupation numbers 
     1.0000   1.0000   1.0000   1.0000   1.0000   1.0000   1.0000   1.0000
     1.0000   1.0000   1.0000   1.0000   1.0000   1.0000   1.0000   1.0000
     1.0000  -0.0000  -0.0000  -0.0000  -0.0000

          k = 0.1997-0.3435 0.2708 ( 12151 PWs)   bands (ev):

   -49.8754 -26.2244 -25.7855 -25.7300 -12.0053  -9.3037  -8.9018   1.0417
     1.5975   1.8177   2.2899   2.7770   2.9797   3.4705   3.6501   4.1605
     5.9227   8.0285   8.0310   8.7821  10.5210

     occupation numbers 
     1.0000   1.0000   1.0000   1.0000   1.0000   1.0000   1.0000   1.0000
     1.0000   1.0000   1.0000   1.0000   1.0000   1.0000   1.0000   1.0000
     1.0000  -0.0000  -0.0000  -0.0000  -0.0000

          k = 0.3993-0.1717 0.2708 ( 12145 PWs)   bands (ev):

   -49.8727 -26.1736 -25.7856 -25.7777 -12.2925  -9.2218  -8.8789   1.1718
     1.9913   2.2271   2.4584   2.6244   3.1403   3.3290   3.8193   4.0637
     6.5161   7.1893   7.3984   8.8067  10.2674

     occupation numbers 
[...]

   -49.8777 -26.1796 -25.7909 -25.7108 -12.3314  -9.3132  -9.0005   1.1925
     2.2412   2.5409   2.6527   2.7566   3.2565   3.4953   3.9902   4.0052
     5.5883   7.4554   7.6224   8.9483  10.0642

     occupation numbers 
     1.0000   1.0000   1.0000   1.0000   1.0000   1.0000   1.0000   1.0000
     1.0000   1.0000   1.0000   1.0000   1.0000   1.0000   1.0000   1.0000
     1.0000  -0.0000  -0.0000  -0.0000  -0.0000

          k = 0.1997 0.0000 0.3791 ( 12139 PWs)   bands (ev):

   -49.8766 -26.1600 -25.7880 -25.7322 -12.4359  -9.2900  -8.9829   1.2420
     2.1431   2.6333   2.7890   3.0643   3.3206   3.5761   3.8681   3.9017
     5.9280   7.0873   7.4119   8.7975   9.8879

     occupation numbers 
     1.0000   1.0000   1.0000   1.0000   1.0000   1.0000   1.0000   1.0000
     1.0000   1.0000   1.0000   1.0000   1.0000   1.0000   1.0000   1.0000
     1.0000  -0.0000  -0.0000  -0.0000  -0.0000

          k =-1.9966-0.3435-0.1083 ( 12184 PWs)   bands (ev):

   -49.8768 -26.2261 -25.7892 -25.7093 -12.0151  -9.2339  -9.0408   1.2151
     1.6480   1.8980   2.3647   2.6843   2.9978   3.1687   3.8702   4.2721
     5.6194   8.0744   8.1136   8.9723  10.5837

     occupation numbers 
     1.0000   1.0000   1.0000   1.0000   1.0000   1.0000   1.0000   1.0000
     1.0000   1.0000   1.0000   1.0000   1.0000   1.0000   1.0000   1.0000
     1.0000  -0.0000  -0.0000  -0.0000  -0.0000

          k =-1.7969-0.1717-0.1083 ( 12146 PWs)   bands (ev):

   -49.8763 -26.1779 -25.7873 -25.7316 -12.3203  -9.2378  -9.0224   1.3593
     2.0013   2.4531   2.5391   2.9320   3.0951   3.4840   3.7554   4.0274
     5.9447   7.3664   7.5774   8.8318  10.1869

     occupation numbers 
     1.0000   1.0000   1.0000   1.0000   1.0000   1.0000   1.0000   1.0000
     1.0000   1.0000   1.0000   1.0000   1.0000   1.0000   1.0000   1.0000
     1.0000  -0.0000  -0.0000  -0.0000  -0.0000

          k =-1.5973 0.0000-0.1083 ( 12149 PWs)   bands (ev):

   -49.8730 -26.1558 -25.7862 -25.7784 -12.4070  -9.1776  -8.9442   1.3142
     1.7503   2.3140   2.6719   2.8530   3.5131   3.6407   3.7729   3.8622
     6.6025   6.8946   7.2206   8.6845   9.9262

     occupation numbers 
     1.0000   1.0000   1.0000   1.0000   1.0000   1.0000   1.0000   1.0000
     1.0000   1.0000   1.0000   1.0000   1.0000   1.0000   1.0000   1.0000
     0.9381  -0.0000  -0.0000  -0.0000  -0.0000

          k = 0.0000 1.2021-0.0542 ( 12199 PWs)   bands (ev):

   -49.8758 -26.2826 -25.7871 -25.7075 -11.5907  -9.1663  -9.0565   0.4437
     1.2466   1.4263   2.3380   2.6853   2.7006   2.9343   3.8374   4.3467
     5.6544   8.7183   8.8535   8.9642  10.8841

     occupation numbers 
     1.0000   1.0000   1.0000   1.0000   1.0000   1.0000   1.0000   1.0000
     1.0000   1.0000   1.0000   1.0000   1.0000   1.0000   1.0000   1.0000
     1.0000  -0.0000  -0.0000  -0.0000  -0.0000

          k =-1.7969-0.3435-0.0542 ( 12166 PWs)   bands (ev):

   -49.8754 -26.2244 -25.7856 -25.7300 -12.0045  -9.1608  -9.0581   1.3175
     1.6999   1.9016   1.9992   2.7096   2.9617   3.2680   3.5048   4.2865
     5.9710   8.0288   8.0323   8.8642  10.6993

     occupation numbers 
     1.0000   1.0000   1.0000   1.0000   1.0000   1.0000   1.0000   1.0000
     1.0000   1.0000   1.0000   1.0000   1.0000   1.0000   1.0000   1.0000
     1.0000  -0.0000  -0.0000  -0.0000  -0.0000

          k =-1.5973-0.1717-0.0542 ( 12148 PWs)   bands (ev):

   -49.8727 -26.1736 -25.7856 -25.7778 -12.2918  -9.1477  -8.9589   1.3841
     1.6461   2.2774   2.4925   2.6073   3.2856   3.3321   3.6931   4.0995
     6.6223   7.1668   7.4107   8.6908  10.2007

     occupation numbers 
     1.0000   1.0000   1.0000   1.0000   1.0000   1.0000   1.0000   1.0000
     1.0000   1.0000   1.0000   1.0000   1.0000   1.0000   1.0000   1.0000
     0.7781  -0.0000  -0.0000  -0.0000  -0.0000

          k =-1.3976 0.0000-0.0542 ( 12172 PWs)   bands (ev):

   -49.8685 -26.1505 -25.8522 -25.7666 -12.3715  -9.0935  -8.8320   1.1185
     1.2861   2.0539   2.5469   2.9599   3.6093   3.6310   3.7906   3.8718
     6.7291   6.9275   7.3820   8.8718   9.7800

     occupation numbers 
     1.0000   1.0000   1.0000   1.0000   1.0000   1.0000   1.0000   1.0000
     1.0000   1.0000   1.0000   1.0000   1.0000   1.0000   1.0000   1.0000
    -0.0355  -0.0000  -0.0000  -0.0000  -0.0000

          k =-0.0000 1.0304-0.0000 ( 12163 PWs)   bands (ev):

   -49.8749 -26.3275 -25.7853 -25.7060 -11.2115  -9.1847  -8.9943  -0.3945
     0.9788   1.1686   2.4597   2.5295   2.6889   2.7897   3.8710   4.2824
     5.6766   8.9265   9.3025   9.4323  10.9369

     occupation numbers 
     1.0000   1.0000   1.0000   1.0000   1.0000   1.0000   1.0000   1.0000
     1.0000   1.0000   1.0000   1.0000   1.0000   1.0000   1.0000   1.0000
     1.0000  -0.0000  -0.0000  -0.0000  -0.0000

          k = 0.1997 1.2021-0.0000 ( 12188 PWs)   bands (ev):

   -49.8744 -26.2808 -25.7835 -25.7281 -11.5806  -9.1008  -9.0649   0.4535
     1.3831   1.4015   2.0389   2.3975   2.9671   3.1258   3.4079   4.3094
     5.9926   8.6366   8.7776   8.9214  11.0199

     occupation numbers 
     1.0000   1.0000   1.0000   1.0000   1.0000   1.0000   1.0000   1.0000
     1.0000   1.0000   1.0000   1.0000   1.0000   1.0000   1.0000   1.0000
     1.0000  -0.0000  -0.0000  -0.0000  -0.0000

          k =-1.5973-0.3435-0.0000 ( 12148 PWs)   bands (ev):

   -49.8718 -26.2198 -25.7839 -25.7761 -11.9768  -9.0973  -8.9671   1.4097
     1.4367   1.8183   2.0987   2.1548   2.9355   3.1785   3.5194   4.2162
     6.6370   7.8336   7.9344   8.7405  10.7290

     occupation numbers 
     1.0000   1.0000   1.0000   1.0000   1.0000   1.0000   1.0000   1.0000
     1.0000   1.0000   1.0000   1.0000   1.0000   1.0000   1.0000   1.0000
     0.6135  -0.0000  -0.0000  -0.0000  -0.0000

          k =-1.3976-0.1717-0.0000 ( 12171 PWs)   bands (ev):

   -49.8682 -26.1683 -25.8515 -25.7659 -12.2567  -9.0802  -8.8294   1.1320
     1.2973   1.9218   2.4714   2.6963   3.1955   3.4618   3.7377   4.0481
     6.9834   7.1814   7.3939   8.8775  10.0497

     occupation numbers 
     1.0000   1.0000   1.0000   1.0000   1.0000   1.0000   1.0000   1.0000
     1.0000   1.0000   1.0000   1.0000   1.0000   1.0000   1.0000   1.0000
    -0.0000  -0.0000  -0.0000  -0.0000  -0.0000

          k =-1.1980 0.0000-0.0000 ( 12181 PWs)   bands (ev):

   -49.8649 -26.1463 -25.9050 -25.7569 -12.3429  -9.0220  -8.7424   0.8347
     1.0593   1.9904   2.3471   3.1123   3.4796   3.6379   3.7716   3.9457
     6.6624   6.6712   8.1285   9.3465   9.6556

     occupation numbers 
     1.0000   1.0000   1.0000   1.0000   1.0000   1.0000   1.0000   1.0000
     1.0000   1.0000   1.0000   1.0000   1.0000   1.0000   1.0000   1.0000
     0.3046   0.2106  -0.0000  -0.0000  -0.0000

          k = 0.0000 0.0000 0.4332 ( 12116 PWs)   bands (ev):

   -49.8780 -26.1616 -25.7916 -25.7114 -12.4466  -9.2837  -9.0511   1.3276
     2.2682   2.6761   2.7554   3.3212   3.3256   3.3402   3.8224   4.0677
     5.5796   7.1746   7.5015   8.9895   9.8522

     occupation numbers 
     1.0000   1.0000   1.0000   1.0000   1.0000   1.0000   1.0000   1.0000
     1.0000   1.0000   1.0000   1.0000   1.0000   1.0000   1.0000   1.0000
     1.0000  -0.0000  -0.0000  -0.0000  -0.0000

          k =-1.9966-0.1717-0.0542 ( 12155 PWs)   bands (ev):

   -49.8777 -26.1796 -25.7910 -25.7108 -12.3310  -9.2263  -9.0947   1.4102
     2.1647   2.5027   2.6295   2.6966   3.2337   3.4762   3.9580   3.9620
     5.5921   7.4553   7.6504   9.0091  10.1603

     occupation numbers 
     1.0000   1.0000   1.0000   1.0000   1.0000   1.0000   1.0000   1.0000
     1.0000   1.0000   1.0000   1.0000   1.0000   1.0000   1.0000   1.0000
     1.0000  -0.0000  -0.0000  -0.0000  -0.0000

          k =-1.7969 0.0000-0.0542 ( 12131 PWs)   bands (ev):

   -49.8766 -26.1600 -25.7880 -25.7322 -12.4355  -9.2190  -9.0599   1.4882
     1.8985   2.6911   2.7756   3.0108   3.4214   3.5515   3.7650   3.8564
     5.9440   7.0840   7.4390   8.8422   9.9181

     occupation numbers 
     1.0000   1.0000   1.0000   1.0000   1.0000   1.0000   1.0000   1.0000
     1.0000   1.0000   1.0000   1.0000   1.0000   1.0000   1.0000   1.0000
     1.0000  -0.0000  -0.0000  -0.0000  -0.0000

          k = 0.0000 1.3738 0.0000 ( 12161 PWs)   bands (ev):

   -49.8768 -26.2261 -25.7892 -25.7093 -12.0150  -9.1503  -9.1276   1.2860
     1.7080   1.9071   2.2397   2.7046   2.9929   3.1053   3.8433   4.2954
     5.6227   8.0820   8.1135   8.9994  10.6400

     occupation numbers 
     1.0000   1.0000   1.0000   1.0000   1.0000   1.0000   1.0000   1.0000
     1.0000   1.0000   1.0000   1.0000   1.0000   1.0000   1.0000   1.0000
     1.0000  -0.0000  -0.0000  -0.0000  -0.0000

          k =-1.7969-0.1717 0.0000 ( 12155 PWs)   bands (ev):

   -49.8763 -26.1779 -25.7873 -25.7316 -12.3201  -9.1856  -9.0776   1.5176
     1.8530   2.4873   2.5147   2.9548   3.0607   3.4733   3.7296   4.0183
     5.9538   7.3654   7.5866   8.8548  10.2080

     occupation numbers 
     1.0000   1.0000   1.0000   1.0000   1.0000   1.0000   1.0000   1.0000
     1.0000   1.0000   1.0000   1.0000   1.0000   1.0000   1.0000   1.0000
     1.0000  -0.0000  -0.0000  -0.0000  -0.0000

          k =-1.5973 0.0000 0.0000 ( 12141 PWs)   bands (ev):

   -49.8730 -26.1558 -25.7862 -25.7784 -12.4069  -9.1581  -8.9650   1.4005
     1.6325   2.3405   2.6638   2.8444   3.5904   3.6763   3.7035   3.8396
     6.6244   6.8874   7.2256   8.6658   9.9064

     occupation numbers 
     1.0000   1.0000   1.0000   1.0000   1.0000   1.0000   1.0000   1.0000
     1.0000   1.0000   1.0000   1.0000   1.0000   1.0000   1.0000   1.0000
     0.7565  -0.0000  -0.0000  -0.0000  -0.0000

          k =-1.9966-1.7173-0.5415 ( 12132 PWs)   bands (ev):

   -49.8780 -26.1616 -25.7916 -25.7114 -12.4464  -9.2195  -9.1193   1.4843
     2.1171   2.7019   2.7499   3.3024   3.3042   3.3847   3.7578   4.0464
     5.5797   7.1747   7.5203   9.0231   9.8934

     occupation numbers 
     1.0000   1.0000   1.0000   1.0000   1.0000   1.0000   1.0000   1.0000
     1.0000   1.0000   1.0000   1.0000   1.0000   1.0000   1.0000   1.0000
     1.0000  -0.0000  -0.0000  -0.0000  -0.0000

     the Fermi energy is     6.6462 ev

!    total energy              =    -534.96727844 Ry

     total all-electron energy =     -9636.857521 Ry
     estimated scf accuracy    <          9.9E-11 Ry
     smearing contrib. (-TS)   =      -0.00001622 Ry
     internal energy E=F+TS    =    -534.96726222 Ry

     The total energy is F=E-TS. E is the sum of the following terms:
     one-electron contribution =     -93.92572118 Ry
     hartree contribution      =      61.19489527 Ry
     xc contribution           =     -39.53713309 Ry
     ewald contribution        =    -135.48921389 Ry
     one-center paw contrib.   =    -327.21008933 Ry
      -> PAW hartree energy AE =      29.13411825 Ry
      -> PAW hartree energy PS =     -29.10403854 Ry
      -> PAW xc energy AE      =     -17.04440394 Ry
      -> PAW xc energy PS      =       7.42025605 Ry
      -> total E_H with PAW    =      61.22497498 Ry
      -> total E_XC with PAW   =     -49.16128099 Ry

     convergence has been achieved in  13 iterations

     Forces acting on atoms (cartesian axes, Ry/au):

     atom    1 type  1   force =     0.00000000    0.00000000    0.00000000
     atom    2 type  2   force =     0.00000000    0.00000000    0.03590124
     atom    3 type  2   force =    -0.00000000   -0.00000000   -0.03590124
     atom    4 type  3   force =     0.00000000    0.00000000    0.00000000
     The non-local contrib.  to forces
     atom    1 type  1   force =    -0.00000000   -0.00000000    0.00000000
     atom    2 type  2   force =    -0.00000000    0.00000000    0.06522571
     atom    3 type  2   force =    -0.00000000   -0.00000000   -0.06522571
     atom    4 type  3   force =     0.00000000    0.00000000    0.00000000
     The ionic contribution  to forces
     atom    1 type  1   force =    -0.00000000   -0.00000000    0.00000000
     atom    2 type  2   force =     0.00000001    0.00000000  -10.07462875
     atom    3 type  2   force =    -0.00000001   -0.00000000   10.07462875
     atom    4 type  3   force =    -0.00000000   -0.00000000    0.00000000
     The local contribution  to forces
     atom    1 type  1   force =     0.00000000    0.00000000    0.00000000
     atom    2 type  2   force =     0.00000002   -0.00000003   10.04380515
     atom    3 type  2   force =    -0.00000002    0.00000003  -10.04380515
     atom    4 type  3   force =     0.00000000    0.00000000    0.00000000
     The core correction contribution to forces
     atom    1 type  1   force =     0.00000000    0.00000000    0.00000000
     atom    2 type  2   force =    -0.00000000    0.00000000    0.00149356
     atom    3 type  2   force =     0.00000000   -0.00000000   -0.00149356
     atom    4 type  3   force =     0.00000000    0.00000000    0.00000000
     The Hubbard contrib.    to forces
     atom    1 type  1   force =     0.00000000    0.00000000    0.00000000
     atom    2 type  2   force =     0.00000000    0.00000000    0.00000000
     atom    3 type  2   force =     0.00000000    0.00000000    0.00000000
     atom    4 type  3   force =     0.00000000    0.00000000    0.00000000
     The SCF correction term to forces
     atom    1 type  1   force =    -0.00000000   -0.00000000   -0.00000000
     atom    2 type  2   force =    -0.00000000    0.00000000    0.00000557
     atom    3 type  2   force =     0.00000000   -0.00000000   -0.00000557
     atom    4 type  3   force =    -0.00000000    0.00000000    0.00000000

     Total force =     0.050772     Total SCF correction =     0.000008


     Computing stress (Cartesian axis) and pressure

          total   stress  (Ry/bohr**3)                   (kbar)     P=      -38.96
  -0.00028259   0.00000000  -0.00000000          -41.57        0.00       -0.00
  -0.00000000  -0.00025553  -0.00000000           -0.00      -37.59       -0.00
  -0.00000000   0.00000000  -0.00025646           -0.00        0.00      -37.73

     kinetic stress (kbar)  14785.04      0.00      0.00
                                0.00  14763.42      0.00
                                0.00      0.00  14801.05

     local   stress (kbar) -18937.15     -0.00      0.00
                               -0.00 -24119.76      0.00
                                0.00      0.00   4060.56

     nonloc. stress (kbar)   8008.36     -0.00     -0.00
                               -0.00   7931.73     -0.00
                               -0.00      0.00   8007.17

     hartree stress (kbar)   8387.64      0.00     -0.00
                                0.00  10079.44     -0.00
                               -0.00     -0.00  -2037.87

     exc-cor stress (kbar)  -1130.79     -0.00     -0.00
                               -0.00  -1122.27     -0.00
                               -0.00     -0.00  -1130.37

     corecor stress (kbar)  -2029.54      0.00      0.00
                                0.00  -2028.70      0.00
                                0.00      0.00  -2029.58

     ewald   stress (kbar)  -9125.13      0.00     -0.00
                                0.00  -5541.44     -0.00
                               -0.00     -0.00 -21708.70

     hubbard stress (kbar)      0.00      0.00      0.00
                                0.00      0.00      0.00
                                0.00      0.00      0.00

     DFT-D   stress (kbar)      0.00      0.00      0.00
                                0.00      0.00      0.00
                                0.00      0.00      0.00

     XDM     stress (kbar)      0.00      0.00      0.00
                                0.00      0.00      0.00
                                0.00      0.00      0.00

     dft-nl  stress (kbar)      0.00      0.00      0.00
                                0.00      0.00      0.00
                                0.00      0.00      0.00

     TS-vdW  stress (kbar)      0.00      0.00      0.00
                                0.00      0.00      0.00
                                0.00      0.00      0.00



     Writing output data file /zfs_data/gutierre/Scratch/Cl2NbO/smearing/10x10x10/0.005/tmp/Cl2NbO.save/
 
     init_run     :      4.41s CPU      4.57s WALL (       1 calls)
     electrons    :    111.05s CPU    113.73s WALL (       1 calls)
     forces       :      0.88s CPU      0.89s WALL (       1 calls)
     stress       :      2.13s CPU      2.14s WALL (       1 calls)

     Called by init_run:
     wfcinit      :      3.18s CPU      3.29s WALL (       1 calls)
     wfcinit:atom :      0.02s CPU      0.03s WALL (     171 calls)
     wfcinit:wfcr :      3.06s CPU      3.16s WALL (     171 calls)
     potinit      :      0.37s CPU      0.39s WALL (       1 calls)
     hinit0       :      0.48s CPU      0.49s WALL (       1 calls)

     Called by electrons:
     c_bands      :     88.41s CPU     90.51s WALL (      13 calls)
     sum_band     :     19.45s CPU     19.89s WALL (      13 calls)
     v_of_rho     :      1.24s CPU      1.29s WALL (      14 calls)
     v_h          :      0.10s CPU      0.10s WALL (      14 calls)
     v_xc         :      1.31s CPU      1.36s WALL (      16 calls)
     newd         :      1.08s CPU      1.09s WALL (      14 calls)
     PAW_pot      :      0.73s CPU      0.74s WALL (      14 calls)
     mix_rho      :      0.18s CPU      0.19s WALL (      13 calls)

     Called by c_bands:
     init_us_2    :      1.21s CPU      1.27s WALL (    4959 calls)
     cegterg      :     85.83s CPU     87.79s WALL (    2223 calls)

     Called by sum_band:
     sum_band:wei :      0.06s CPU      0.06s WALL (      13 calls)
     sum_band:loo :     18.15s CPU     18.55s WALL (      13 calls)
     sum_band:buf :      0.17s CPU      0.18s WALL (    2223 calls)
     sum_band:ini :      0.58s CPU      0.60s WALL (    2223 calls)
     sum_band:cal :      0.62s CPU      0.63s WALL (    2223 calls)
     sum_band:bec :      0.06s CPU      0.07s WALL (    2223 calls)
     addusdens    :      1.08s CPU      1.11s WALL (      13 calls)
     addusd:skk   :      0.01s CPU      0.01s WALL (      39 calls)
     addusd:dgemm :      0.32s CPU      0.34s WALL (      39 calls)
     addusd:qvan2 :      0.70s CPU      0.71s WALL (      39 calls)

     Called by *egterg:
     cdiaghg      :      4.66s CPU      4.86s WALL (    8104 calls)
     cegterg:over :      1.63s CPU      1.67s WALL (    5881 calls)
     cegterg:upda :      0.52s CPU      0.53s WALL (    5881 calls)
     cegterg:last :      0.79s CPU      0.80s WALL (    4279 calls)
     h_psi        :     78.98s CPU     80.75s WALL (    8275 calls)
     s_psi        :      0.57s CPU      0.58s WALL (    8275 calls)
     g_psi        :      0.10s CPU      0.11s WALL (    5881 calls)

     Called by h_psi:
     h_psi:calbec :      1.95s CPU      1.99s WALL (    8275 calls)
     vloc_psi     :     75.86s CPU     77.56s WALL (    8275 calls)
     add_vuspsi   :      0.89s CPU      0.91s WALL (    8275 calls)

     General routines
     calbec       :      2.66s CPU      2.72s WALL (   11353 calls)
     fft          :      1.07s CPU      1.08s WALL (     205 calls)
     ffts         :      0.02s CPU      0.02s WALL (      27 calls)
     fftw         :     83.19s CPU     85.14s WALL (  281467 calls)
     interpolate  :      0.10s CPU      0.10s WALL (      14 calls)
 
     Parallel routines
     fft_scatt_xy :     10.87s CPU     11.03s WALL (  281699 calls)
     fft_scatt_yz :     36.64s CPU     37.50s WALL (  281699 calls)

     PAW routines
     PAW_pot      :      0.73s CPU      0.74s WALL (      14 calls)
     PAW_symme    :      0.03s CPU      0.03s WALL (      27 calls)
 
     PWSCF        :   1m59.74s CPU   2m 8.35s WALL

 
   This run was terminated on:  17:39:42  18May2022            

=------------------------------------------------------------------------------=
   JOB DONE.
=------------------------------------------------------------------------------=
