MPI startup(): Warning: I_MPI_PMI_LIBRARY will be ignored since the hydra process manager was found
MPI startup(): Warning: I_MPI_PMI_LIBRARY will be ignored since the hydra process manager was found
MPI startup(): Warning: I_MPI_PMI_LIBRARY will be ignored since the hydra process manager was found
MPI startup(): Warning: I_MPI_PMI_LIBRARY will be ignored since the hydra process manager was found
MPI startup(): Warning: I_MPI_PMI_LIBRARY will be ignored since the hydra process manager was found
MPI startup(): Warning: I_MPI_PMI_LIBRARY will be ignored since the hydra process manager was found
MPI startup(): Warning: I_MPI_PMI_LIBRARY will be ignored since the hydra process manager was found
MPI startup(): Warning: I_MPI_PMI_LIBRARY will be ignored since the hydra process manager was found
MPI startup(): Warning: I_MPI_PMI_LIBRARY will be ignored since the hydra process manager was found
MPI startup(): Warning: I_MPI_PMI_LIBRARY will be ignored since the hydra process manager was found
MPI startup(): Warning: I_MPI_PMI_LIBRARY will be ignored since the hydra process manager was found
MPI startup(): Warning: I_MPI_PMI_LIBRARY will be ignored since the hydra process manager was found
MPI startup(): Warning: I_MPI_PMI_LIBRARY will be ignored since the hydra process manager was found
MPI startup(): Warning: I_MPI_PMI_LIBRARY will be ignored since the hydra process manager was found
MPI startup(): Warning: I_MPI_PMI_LIBRARY will be ignored since the hydra process manager was found
MPI startup(): Warning: I_MPI_PMI_LIBRARY will be ignored since the hydra process manager was found
MPI startup(): Warning: I_MPI_PMI_LIBRARY will be ignored since the hydra process manager was found
MPI startup(): Warning: I_MPI_PMI_LIBRARY will be ignored since the hydra process manager was found
MPI startup(): Warning: I_MPI_PMI_LIBRARY will be ignored since the hydra process manager was found
MPI startup(): Warning: I_MPI_PMI_LIBRARY will be ignored since the hydra process manager was found
MPI startup(): Warning: I_MPI_PMI_LIBRARY will be ignored since the hydra process manager was found
MPI startup(): Warning: I_MPI_PMI_LIBRARY will be ignored since the hydra process manager was found
MPI startup(): Warning: I_MPI_PMI_LIBRARY will be ignored since the hydra process manager was found
MPI startup(): Warning: I_MPI_PMI_LIBRARY will be ignored since the hydra process manager was found

     Program PWSCF v.6.7MaX starts on 30Jul2021 at 18:33: 8 

     This program is part of the open-source Quantum ESPRESSO suite
     for quantum simulation of materials; please cite
         "P. Giannozzi et al., J. Phys.:Condens. Matter 21 395502 (2009);
         "P. Giannozzi et al., J. Phys.:Condens. Matter 29 465901 (2017);
          URL http://www.quantum-espresso.org", 
     in publications or presentations arising from this work. More details at
     http://www.quantum-espresso.org/quote

     Parallel version (MPI), running on    24 processors

     MPI processes distributed on     1 nodes
     R & G space division:  proc/nbgrp/npool/nimage =      24
     Waiting for input...
     Reading input from standard input

     Current dimensions of program PWSCF are:
     Max number of different atomic species (ntypx) = 10
     Max number of k-points (npk) =  40000
     Max angular momentum in pseudopotentials (lmaxx) =  3
     file Cr.rel-pbe-spn-kjpaw_psl.1.0.0.UPF: wavefunction(s)  3S 3P 3P 3D 3D renormalized
     file Si.rel-pbe-n-kjpaw_psl.1.0.0.UPF: wavefunction(s)  3S 3P 3P renormalized

     Subspace diagonalization in iterative solution of the eigenvalue problem:
     a serial algorithm will be used

     Message from routine setup:
     using ibrav=0 with symmetry is DISCOURAGED, use correct ibrav instead
 
     Parallelization info
     --------------------
     sticks:   dense  smooth     PW     G-vecs:    dense   smooth      PW
     Min         126      50     14                 5264     1328     212
     Max         127      51     15                 5269     1335     215
     Sum        3045    1209    357               126419    31919    5137
 


     bravais-lattice index     =            0
     lattice parameter (alat)  =       8.7475  a.u.
     unit-cell volume          =     669.3575 (a.u.)^3
     number of atoms/cell      =            8
     number of atomic types    =            2
     number of electrons       =        72.00
     number of Kohn-Sham states=           86
     kinetic-energy cutoff     =      50.0000  Ry
     charge density cutoff     =     500.0000  Ry
     scf convergence threshold =      1.0E-06
     mixing beta               =       0.7000
     number of iterations used =            8  plain     mixing
     Exchange-correlation= SLA  PW   PBX  PBC
                           (   1   4   3   4   0   0   0)
     Non magnetic calculation with spin-orbit


     celldm(1)=   8.747542  celldm(2)=   0.000000  celldm(3)=   0.000000
     celldm(4)=   0.000000  celldm(5)=   0.000000  celldm(6)=   0.000000

     crystal axes: (cart. coord. in units of alat)
               a(1) = (   1.000000   0.000000   0.000000 )  
               a(2) = (   0.000000   1.000000   0.000000 )  
               a(3) = (   0.000000   0.000000   1.000000 )  

     reciprocal axes: (cart. coord. in units 2 pi/alat)
               b(1) = (  1.000000  0.000000  0.000000 )  
               b(2) = (  0.000000  1.000000  0.000000 )  
               b(3) = (  0.000000  0.000000  1.000000 )  


     PseudoPot. # 1 for Cr read from file:
     ../../../../pseudo/Cr.rel-pbe-spn-kjpaw_psl.1.0.0.UPF
     MD5 check sum: 1e24e2b5251376a8b945118fca0c7981
     Pseudo is Projector augmented-wave + core cor, Zval = 14.0
     Generated using &quot;atomic&quot; code by A. Dal Corso  v.6.3
     Shape of augmentation charge: PSQ
     Using radial grid of 1183 points, 10 beta functions with: 
                l(1) =   0
                l(2) =   0
                l(3) =   1
                l(4) =   1
                l(5) =   1
                l(6) =   1
                l(7) =   2
                l(8) =   2
                l(9) =   2
               l(10) =   2
     Q(r) pseudized with 0 coefficients 


     PseudoPot. # 2 for Si read from file:
     ../../../../pseudo/Si.rel-pbe-n-kjpaw_psl.1.0.0.UPF
     MD5 check sum: d74f6caf6830ea4c2076867160cab1b0
     Pseudo is Projector augmented-wave + core cor, Zval =  4.0
     Generated using &quot;atomic&quot; code by A. Dal Corso  v.6.3
     Shape of augmentation charge: PSQ
     Using radial grid of 1141 points, 10 beta functions with: 
                l(1) =   0
                l(2) =   0
                l(3) =   1
                l(4) =   1
                l(5) =   1
                l(6) =   1
                l(7) =   2
                l(8) =   2
                l(9) =   2
               l(10) =   2
     Q(r) pseudized with 0 coefficients 


     atomic species   valence    mass     pseudopotential
        Cr            14.00    51.99600     Cr( 1.00)
        Si             4.00    28.08500     Si( 1.00)

     12 Sym. Ops. (no inversion) found ( 9 have fractional translation)


                                    s                        frac. trans.

      isym =  1     identity                                     

 cryst.   s( 1) = (     1          0          0      )
                  (     0          1          0      )
                  (     0          0          1      )

 cart.    s( 1) = (  1.0000000  0.0000000  0.0000000 )
                  (  0.0000000  1.0000000  0.0000000 )
                  (  0.0000000  0.0000000  1.0000000 )


      isym =  2     180 deg rotation - cart. axis [0,0,1]        

 cryst.   s( 2) = (    -1          0          0      )    f =(  0.5000000 )
                  (     0         -1          0      )       (  0.0000000 )
                  (     0          0          1      )       ( -0.5000000 )

 cart.    s( 2) = ( -1.0000000  0.0000000  0.0000000 )    f =(  0.5000000 )
                  (  0.0000000 -1.0000000  0.0000000 )       (  0.0000000 )
                  (  0.0000000  0.0000000  1.0000000 )       ( -0.5000000 )


      isym =  3     180 deg rotation - cart. axis [0,1,0]        

 cryst.   s( 3) = (    -1          0          0      )    f =(  0.0000000 )
                  (     0          1          0      )       ( -0.5000000 )
                  (     0          0         -1      )       (  0.5000000 )

 cart.    s( 3) = ( -1.0000000  0.0000000  0.0000000 )    f =(  0.0000000 )
                  (  0.0000000  1.0000000  0.0000000 )       ( -0.5000000 )
                  (  0.0000000  0.0000000 -1.0000000 )       (  0.5000000 )


      isym =  4     180 deg rotation - cart. axis [1,0,0]        

 cryst.   s( 4) = (     1          0          0      )    f =(  0.5000000 )
                  (     0         -1          0      )       (  0.5000000 )
                  (     0          0         -1      )       (  0.0000000 )

 cart.    s( 4) = (  1.0000000  0.0000000  0.0000000 )    f =(  0.5000000 )
                  (  0.0000000 -1.0000000  0.0000000 )       (  0.5000000 )
                  (  0.0000000  0.0000000 -1.0000000 )       (  0.0000000 )


      isym =  5     120 deg rotation - cart. axis [-1,-1,-1]     

 cryst.   s( 5) = (     0          0          1      )
                  (     1          0          0      )
                  (     0          1          0      )

 cart.    s( 5) = (  0.0000000  1.0000000  0.0000000 )
                  (  0.0000000  0.0000000  1.0000000 )
                  (  1.0000000  0.0000000  0.0000000 )


      isym =  6     120 deg rotation - cart. axis [-1,1,1]       

 cryst.   s( 6) = (     0          0         -1      )    f =(  0.0000000 )
                  (    -1          0          0      )       ( -0.5000000 )
                  (     0          1          0      )       (  0.5000000 )

 cart.    s( 6) = (  0.0000000 -1.0000000  0.0000000 )    f =(  0.0000000 )
                  (  0.0000000  0.0000000  1.0000000 )       ( -0.5000000 )
                  ( -1.0000000  0.0000000  0.0000000 )       (  0.5000000 )


      isym =  7     120 deg rotation - cart. axis [1,1,-1]       

 cryst.   s( 7) = (     0          0         -1      )    f =(  0.5000000 )
                  (     1          0          0      )       (  0.5000000 )
                  (     0         -1          0      )       (  0.0000000 )

 cart.    s( 7) = (  0.0000000  1.0000000  0.0000000 )    f =(  0.5000000 )
                  (  0.0000000  0.0000000 -1.0000000 )       (  0.5000000 )
                  ( -1.0000000  0.0000000  0.0000000 )       (  0.0000000 )


      isym =  8     120 deg rotation - cart. axis [1,-1,1]       

 cryst.   s( 8) = (     0          0          1      )    f =(  0.5000000 )
                  (    -1          0          0      )       (  0.0000000 )
                  (     0         -1          0      )       ( -0.5000000 )

 cart.    s( 8) = (  0.0000000 -1.0000000  0.0000000 )    f =(  0.5000000 )
                  (  0.0000000  0.0000000 -1.0000000 )       (  0.0000000 )
                  (  1.0000000  0.0000000  0.0000000 )       ( -0.5000000 )


      isym =  9     120 deg rotation - cart. axis [1,1,1]        

 cryst.   s( 9) = (     0          1          0      )
                  (     0          0          1      )
                  (     1          0          0      )

 cart.    s( 9) = (  0.0000000  0.0000000  1.0000000 )
                  (  1.0000000  0.0000000  0.0000000 )
                  (  0.0000000  1.0000000  0.0000000 )


      isym = 10     120 deg rotation - cart. axis [-1,1,-1]      

 cryst.   s(10) = (     0         -1          0      )    f =(  0.5000000 )
                  (     0          0         -1      )       (  0.5000000 )
                  (     1          0          0      )       (  0.0000000 )

 cart.    s(10) = (  0.0000000  0.0000000  1.0000000 )    f =(  0.5000000 )
                  ( -1.0000000  0.0000000  0.0000000 )       (  0.5000000 )
                  (  0.0000000 -1.0000000  0.0000000 )       (  0.0000000 )


      isym = 11     120 deg rotation - cart. axis [1,-1,-1]      

 cryst.   s(11) = (     0         -1          0      )    f =(  0.5000000 )
                  (     0          0          1      )       (  0.0000000 )
                  (    -1          0          0      )       ( -0.5000000 )

 cart.    s(11) = (  0.0000000  0.0000000 -1.0000000 )    f =(  0.5000000 )
                  ( -1.0000000  0.0000000  0.0000000 )       (  0.0000000 )
                  (  0.0000000  1.0000000  0.0000000 )       ( -0.5000000 )


      isym = 12     120 deg rotation - cart. axis [-1,-1,1]      

 cryst.   s(12) = (     0          1          0      )    f =(  0.0000000 )
                  (     0          0         -1      )       ( -0.5000000 )
                  (    -1          0          0      )       (  0.5000000 )

 cart.    s(12) = (  0.0000000  0.0000000 -1.0000000 )    f =(  0.0000000 )
                  (  1.0000000  0.0000000  0.0000000 )       ( -0.5000000 )
                  (  0.0000000 -1.0000000  0.0000000 )       (  0.5000000 )


   Cartesian axes

     site n.     atom                  positions (alat units)
         1           Cr  tau(   1) = (   0.8640000   0.3640000   0.1360000  )
         2           Cr  tau(   2) = (   0.3640000   0.1360000   0.8640000  )
         3           Cr  tau(   3) = (   0.1360000   0.8640000   0.3640000  )
         4           Cr  tau(   4) = (   0.6360000   0.6360000   0.6360000  )
         5           Si  tau(   5) = (   0.1540000   0.6540000   0.8460000  )
         6           Si  tau(   6) = (   0.6540000   0.8460000   0.1540000  )
         7           Si  tau(   7) = (   0.8460000   0.1540000   0.6540000  )
         8           Si  tau(   8) = (   0.3460000   0.3460000   0.3460000  )

   Crystallographic axes

     site n.     atom                  positions (cryst. coord.)
         1           Cr  tau(   1) = (  0.8640000  0.3640000  0.1360000  )
         2           Cr  tau(   2) = (  0.3640000  0.1360000  0.8640000  )
         3           Cr  tau(   3) = (  0.1360000  0.8640000  0.3640000  )
         4           Cr  tau(   4) = (  0.6360000  0.6360000  0.6360000  )
         5           Si  tau(   5) = (  0.1540000  0.6540000  0.8460000  )
         6           Si  tau(   6) = (  0.6540000  0.8460000  0.1540000  )
         7           Si  tau(   7) = (  0.8460000  0.1540000  0.6540000  )
         8           Si  tau(   8) = (  0.3460000  0.3460000  0.3460000  )

     number of k points=    24  Methfessel-Paxton smearing, width (Ry)=  0.0200
                       cart. coord. in units 2pi/alat
        k(    1) = (   0.0000000   0.0000000   0.0000000), wk =   0.0046296
        k(    2) = (   0.0000000   0.0000000   0.1666667), wk =   0.0277778
        k(    3) = (   0.0000000   0.0000000   0.3333333), wk =   0.0277778
        k(    4) = (   0.0000000   0.0000000  -0.5000000), wk =   0.0138889
        k(    5) = (   0.0000000   0.1666667   0.1666667), wk =   0.0555556
        k(    6) = (   0.0000000   0.1666667   0.3333333), wk =   0.0555556
        k(    7) = (   0.0000000   0.1666667  -0.5000000), wk =   0.0277778
        k(    8) = (   0.0000000   0.3333333   0.3333333), wk =   0.0555556
        k(    9) = (   0.0000000   0.3333333  -0.5000000), wk =   0.0277778
        k(   10) = (   0.0000000  -0.5000000  -0.5000000), wk =   0.0138889
        k(   11) = (   0.1666667   0.1666667   0.1666667), wk =   0.0370370
        k(   12) = (   0.1666667   0.1666667   0.3333333), wk =   0.1111111
        k(   13) = (   0.1666667   0.1666667  -0.5000000), wk =   0.0555556
        k(   14) = (   0.1666667   0.3333333   0.3333333), wk =   0.1111111
        k(   15) = (   0.1666667   0.3333333  -0.5000000), wk =   0.0555556
        k(   16) = (   0.1666667  -0.5000000  -0.5000000), wk =   0.0277778
        k(   17) = (   0.3333333   0.3333333   0.3333333), wk =   0.0370370
        k(   18) = (   0.3333333   0.3333333  -0.5000000), wk =   0.0555556
        k(   19) = (   0.3333333  -0.5000000  -0.5000000), wk =   0.0277778
        k(   20) = (  -0.5000000  -0.5000000  -0.5000000), wk =   0.0046296
        k(   21) = (   0.0000000   0.3333333   0.1666667), wk =   0.0555556
        k(   22) = (   0.0000000  -0.5000000   0.1666667), wk =   0.0277778
        k(   23) = (   0.0000000  -0.5000000   0.3333333), wk =   0.0277778
        k(   24) = (  -0.1666667  -0.5000000   0.3333333), wk =   0.0555556

                       cryst. coord.
        k(    1) = (   0.0000000   0.0000000   0.0000000), wk =   0.0046296
        k(    2) = (   0.0000000   0.0000000   0.1666667), wk =   0.0277778
        k(    3) = (   0.0000000   0.0000000   0.3333333), wk =   0.0277778
        k(    4) = (   0.0000000   0.0000000  -0.5000000), wk =   0.0138889
        k(    5) = (   0.0000000   0.1666667   0.1666667), wk =   0.0555556
        k(    6) = (   0.0000000   0.1666667   0.3333333), wk =   0.0555556
        k(    7) = (   0.0000000   0.1666667  -0.5000000), wk =   0.0277778
        k(    8) = (   0.0000000   0.3333333   0.3333333), wk =   0.0555556
        k(    9) = (   0.0000000   0.3333333  -0.5000000), wk =   0.0277778
        k(   10) = (   0.0000000  -0.5000000  -0.5000000), wk =   0.0138889
        k(   11) = (   0.1666667   0.1666667   0.1666667), wk =   0.0370370
        k(   12) = (   0.1666667   0.1666667   0.3333333), wk =   0.1111111
        k(   13) = (   0.1666667   0.1666667  -0.5000000), wk =   0.0555556
        k(   14) = (   0.1666667   0.3333333   0.3333333), wk =   0.1111111
        k(   15) = (   0.1666667   0.3333333  -0.5000000), wk =   0.0555556
        k(   16) = (   0.1666667  -0.5000000  -0.5000000), wk =   0.0277778
        k(   17) = (   0.3333333   0.3333333   0.3333333), wk =   0.0370370
        k(   18) = (   0.3333333   0.3333333  -0.5000000), wk =   0.0555556
        k(   19) = (   0.3333333  -0.5000000  -0.5000000), wk =   0.0277778
        k(   20) = (  -0.5000000  -0.5000000  -0.5000000), wk =   0.0046296
        k(   21) = (   0.0000000   0.3333333   0.1666667), wk =   0.0555556
        k(   22) = (   0.0000000  -0.5000000   0.1666667), wk =   0.0277778
        k(   23) = (   0.0000000  -0.5000000   0.3333333), wk =   0.0277778
        k(   24) = (  -0.1666667  -0.5000000   0.3333333), wk =   0.0555556

     Dense  grid:   126419 G-vectors     FFT dimensions: (  64,  64,  64)

     Smooth grid:    31919 G-vectors     FFT dimensions: (  40,  40,  40)

     Dynamical RAM for                 wfc:       0.44 MB

     Dynamical RAM for     wfc (w. buffer):      10.89 MB

     Dynamical RAM for           str. fact:       0.16 MB

     Dynamical RAM for           local pot:       0.00 MB

     Dynamical RAM for          nlocal pot:       0.69 MB

     Dynamical RAM for                qrad:       9.40 MB

     Dynamical RAM for          rho,v,vnew:       2.09 MB

     Dynamical RAM for               rhoin:       0.70 MB

     Dynamical RAM for            rho*nmix:       5.15 MB

     Dynamical RAM for           G-vectors:       0.31 MB

     Dynamical RAM for          h,s,v(r/c):       1.35 MB

     Dynamical RAM for          <psi|beta>:       0.71 MB

     Dynamical RAM for                 psi:       0.87 MB

     Dynamical RAM for                hpsi:       0.87 MB

     Dynamical RAM for                spsi:       0.87 MB

     Dynamical RAM for      wfcinit/wfcrot:       1.14 MB

     Dynamical RAM for           addusdens:      49.36 MB

     Estimated static dynamical RAM per process >      30.38 MB

     Estimated max dynamical RAM per process >      79.74 MB

     Estimated total dynamical RAM >       1.87 GB

     Initial potential from superposition of free atoms

     starting charge   71.99469, renormalised to   72.00000
     Starting wfcs are  112 randomized atomic wfcs
     Checking if some PAW data can be deallocated... 
       PAW data deallocated on   12 nodes for type:  1
       PAW data deallocated on   12 nodes for type:  2

     total cpu time spent up to now is        5.1 secs

     Self-consistent Calculation

     iteration #  1     ecut=    50.00 Ry     beta= 0.70
     Davidson diagonalization with overlap
     ethr =  1.00E-02,  avg # of iterations =  2.0

     Threshold (ethr) on eigenvalues was too large:
     Diagonalizing with lowered threshold

     Davidson diagonalization with overlap
     ethr =  2.08E-04,  avg # of iterations =  4.3

     total cpu time spent up to now is       17.5 secs

     total energy              =   -1180.28391945 Ry
     estimated scf accuracy    <       0.18833635 Ry

     iteration #  2     ecut=    50.00 Ry     beta= 0.70
     Davidson diagonalization with overlap
     ethr =  2.62E-04,  avg # of iterations =  3.2

     total cpu time spent up to now is       24.1 secs

     total energy              =   -1180.28596983 Ry
     estimated scf accuracy    <       0.08791894 Ry

     iteration #  3     ecut=    50.00 Ry     beta= 0.70
     Davidson diagonalization with overlap
     ethr =  1.22E-04,  avg # of iterations =  5.0

     total cpu time spent up to now is       32.1 secs

     total energy              =   -1180.29977471 Ry
     estimated scf accuracy    <       0.16537198 Ry

     iteration #  4     ecut=    50.00 Ry     beta= 0.70
     Davidson diagonalization with overlap
     ethr =  1.22E-04,  avg # of iterations =  4.1

     total cpu time spent up to now is       38.4 secs

     total energy              =   -1180.32336281 Ry
     estimated scf accuracy    <       0.00018462 Ry

     iteration #  5     ecut=    50.00 Ry     beta= 0.70
     Davidson diagonalization with overlap
     ethr =  2.56E-07,  avg # of iterations =  9.5

     total cpu time spent up to now is       50.3 secs

     total energy              =   -1180.32414567 Ry
     estimated scf accuracy    <       0.00110409 Ry

     iteration #  6     ecut=    50.00 Ry     beta= 0.70
     Davidson diagonalization with overlap
     ethr =  2.56E-07,  avg # of iterations =  5.2

     total cpu time spent up to now is       58.5 secs

     total energy              =   -1180.32432377 Ry
     estimated scf accuracy    <       0.00001457 Ry

     iteration #  7     ecut=    50.00 Ry     beta= 0.70
     Davidson diagonalization with overlap
     ethr =  2.02E-08,  avg # of iterations =  2.1

     total cpu time spent up to now is       63.6 secs

     total energy              =   -1180.32432204 Ry
     estimated scf accuracy    <       0.00000653 Ry

     iteration #  8     ecut=    50.00 Ry     beta= 0.70
     Davidson diagonalization with overlap
     ethr =  9.06E-09,  avg # of iterations =  3.3

     total cpu time spent up to now is       69.5 secs

     End of self-consistent calculation

          k = 0.0000 0.0000 0.0000 (  3911 PWs)   bands (ev):

   -56.5109 -56.5109 -56.4762 -56.4762 -56.4762 -56.4762 -56.4762 -56.4762
   -28.5824 -28.5824 -28.5750 -28.5750 -28.5750 -28.5750 -28.4859 -28.4859
   -27.6179 -27.6179 -27.6179 -27.6179 -27.5415 -27.5415 -27.5415 -27.5415
   -27.5371 -27.5371 -27.4549 -27.4549 -27.4545 -27.4545 -27.4545 -27.4545
     2.7002   2.7002   7.4586   7.4586   7.4586   7.4586   7.4676   7.4676
    10.5387  10.5387  10.5466  10.5466  10.5466  10.5466  11.9133  11.9133
    11.9133  11.9133  11.9244  11.9244  12.6042  12.6042  12.7741  12.7741
    12.7741  12.7741  13.1466  13.1466  13.1466  13.1466  13.1477  13.1477
    13.6745  13.6745  13.6745  13.6745  13.6785  13.6785  15.5560  15.5560
    15.5872  15.5872  15.5872  15.5872  15.7712  15.7712  15.7712  15.7712
    16.6698  16.6698  16.7001  16.7001  16.7001  16.7001

     occupation numbers 
     1.0000   1.0000   1.0000   1.0000   1.0000   1.0000   1.0000   1.0000
     1.0000   1.0000   1.0000   1.0000   1.0000   1.0000   1.0000   1.0000
     1.0000   1.0000   1.0000   1.0000   1.0000   1.0000   1.0000   1.0000
     1.0000   1.0000   1.0000   1.0000   1.0000   1.0000   1.0000   1.0000
     1.0000   1.0000   1.0000   1.0000   1.0000   1.0000   1.0000   1.0000
     1.0000   1.0000   1.0000   1.0000   1.0000   1.0000   1.0000   1.0000
     1.0000   1.0000   1.0000   1.0000   1.0000   1.0000   1.0000   1.0000
     1.0000   1.0000   1.0000   1.0000   1.0000   1.0000   1.0000   1.0000
     1.0000   1.0000   1.0000   1.0000   1.0000   1.0000  -0.0038  -0.0038
    -0.0024  -0.0024  -0.0024  -0.0024  -0.0001  -0.0001  -0.0001  -0.0001
    -0.0000  -0.0000  -0.0000  -0.0000  -0.0000  -0.0000

          k = 0.0000 0.0000 0.1667 (  3964 PWs)   bands (ev):

   -56.5091 -56.5091 -56.4818 -56.4818 -56.4757 -56.4757 -56.4729 -56.4729
   -28.5901 -28.5833 -28.5793 -28.5786 -28.5645 -28.5613 -28.4909 -28.4908
   -27.6347 -27.6266 -27.6049 -27.5972 -27.5541 -27.5483 -27.5445 -27.5352
   -27.5325 -27.5202 -27.4652 -27.4631 -27.4601 -27.4532 -27.4521 -27.4470
     2.8922   2.8922   6.5417   6.5442   7.5647   7.5666   8.1213   8.1306
     9.9497   9.9538  10.6643  10.6668  11.0736  11.0764  11.2889  11.2896
    11.5019  11.5067  12.4509  12.4612  12.7414  12.7637  12.8047  12.8112
    13.0133  13.0166  13.1106  13.1132  13.1999  13.2019  13.2306  13.2309
    13.5343  13.5444  13.6348  13.6373  13.9661  13.9666  15.2976  15.3184
    15.4213  15.4288  15.6979  15.7074  15.7530  15.7714  15.7963  15.8218
    16.4110  16.4265  16.5993  16.6068  16.9948  17.0153

     occupation numbers 
     1.0000   1.0000   1.0000   1.0000   1.0000   1.0000   1.0000   1.0000
     1.0000   1.0000   1.0000   1.0000   1.0000   1.0000   1.0000   1.0000
     1.0000   1.0000   1.0000   1.0000   1.0000   1.0000   1.0000   1.0000
     1.0000   1.0000   1.0000   1.0000   1.0000   1.0000   1.0000   1.0000
     1.0000   1.0000   1.0000   1.0000   1.0000   1.0000   1.0000   1.0000
     1.0000   1.0000   1.0000   1.0000   1.0000   1.0000   1.0000   1.0000
     1.0000   1.0000   1.0000   1.0000   1.0000   1.0000   1.0000   1.0000
     1.0000   1.0000   1.0000   1.0000   1.0000   1.0000   1.0000   1.0000
     1.0000   1.0000   1.0000   1.0000   1.0000   1.0000  -0.0352  -0.0337
    -0.0178  -0.0166  -0.0004  -0.0003  -0.0001  -0.0001  -0.0001  -0.0000
    -0.0000  -0.0000  -0.0000  -0.0000  -0.0000  -0.0000

          k = 0.0000 0.0000 0.3333 (  3988 PWs)   bands (ev):

   -56.5042 -56.5042 -56.4892 -56.4892 -56.4743 -56.4743 -56.4719 -56.4719
   -28.5927 -28.5861 -28.5849 -28.5812 -28.5457 -28.5432 -28.5048 -28.5043
   -27.6424 -27.6345 -27.5866 -27.5821 -27.5666 -27.5469 -27.5417 -27.5329
   -27.5312 -27.5009 -27.4826 -27.4696 -27.4667 -27.4559 -27.4513 -27.4452
     3.4527   3.4527   5.4218   5.4225   7.8618   7.8658   8.5115   8.5210
     9.6530   9.6545  10.6605  10.6627  10.7732  10.7854  11.0463  11.0493
    11.8646  11.8666  12.1361  12.1518  12.8405  12.8564  12.9350  12.9444
    13.1171  13.1230  13.1725  13.1778  13.2609  13.2637  13.3964  13.3987
    13.4542  13.4562  13.9185  13.9224  14.1201  14.1268  14.8927  14.9268
    15.3621  15.3706  15.5405  15.5588  15.7489  15.7771  15.8586  15.8826
    16.1985  16.2143  16.3745  16.3881  17.3101  17.3260

     occupation numbers 
     1.0000   1.0000   1.0000   1.0000   1.0000   1.0000   1.0000   1.0000
     1.0000   1.0000   1.0000   1.0000   1.0000   1.0000   1.0000   1.0000
     1.0000   1.0000   1.0000   1.0000   1.0000   1.0000   1.0000   1.0000
     1.0000   1.0000   1.0000   1.0000   1.0000   1.0000   1.0000   1.0000
     1.0000   1.0000   1.0000   1.0000   1.0000   1.0000   1.0000   1.0000
     1.0000   1.0000   1.0000   1.0000   1.0000   1.0000   1.0000   1.0000
     1.0000   1.0000   1.0000   1.0000   1.0000   1.0000   1.0000   1.0000
     1.0000   1.0000   1.0000   1.0000   1.0000   1.0000   1.0000   1.0000
     1.0000   1.0000   1.0000   1.0000   1.0001   1.0001   0.6851   0.5839
    -0.0276  -0.0262  -0.0047  -0.0036  -0.0001  -0.0001  -0.0000  -0.0000
    -0.0000  -0.0000  -0.0000  -0.0000  -0.0000  -0.0000

          k = 0.0000 0.0000-0.5000 (  3980 PWs)   bands (ev):

   -56.4971 -56.4971 -56.4971 -56.4971 -56.4727 -56.4727 -56.4727 -56.4727
   -28.5903 -28.5903 -28.5846 -28.5846 -28.5244 -28.5244 -28.5230 -28.5230
   -27.6412 -27.6412 -27.5764 -27.5764 -27.5613 -27.5613 -27.5383 -27.5383
   -27.5077 -27.5077 -27.4833 -27.4833 -27.4616 -27.4616 -27.4481 -27.4481
     4.3302   4.3302   4.3304   4.3304   8.2842   8.2842   8.2906   8.2906
    10.0183  10.0183  10.0223  10.0223  10.8999  10.8999  10.9109  10.9109
    12.2491  12.2491  12.2556  12.2556  12.6876  12.6876  12.6999  12.6999
    13.1445  13.1445  13.1449  13.1449  13.2397  13.2397  13.2435  13.2435
    13.7852  13.7852  13.7884  13.7884  14.5682  14.5682  14.5967  14.5967
    15.4059  15.4059  15.4237  15.4237  15.8107  15.8107  15.8403  15.8403
    16.1696  16.1696  16.1833  16.1833  17.5460  17.5484

     occupation numbers 
     1.0000   1.0000   1.0000   1.0000   1.0000   1.0000   1.0000   1.0000
     1.0000   1.0000   1.0000   1.0000   1.0000   1.0000   1.0000   1.0000
     1.0000   1.0000   1.0000   1.0000   1.0000   1.0000   1.0000   1.0000
     1.0000   1.0000   1.0000   1.0000   1.0000   1.0000   1.0000   1.0000
     1.0000   1.0000   1.0000   1.0000   1.0000   1.0000   1.0000   1.0000
     1.0000   1.0000   1.0000   1.0000   1.0000   1.0000   1.0000   1.0000
     1.0000   1.0000   1.0000   1.0000   1.0000   1.0000   1.0000   1.0000
     1.0000   1.0000   1.0000   1.0000   1.0000   1.0000   1.0000   1.0000
     1.0000   1.0000   1.0000   1.0000   1.0311   1.0311   1.0344   1.0344
    -0.0203  -0.0203  -0.0174  -0.0174  -0.0000  -0.0000  -0.0000  -0.0000
    -0.0000  -0.0000  -0.0000  -0.0000  -0.0000  -0.0000

          k = 0.0000 0.1667 0.1667 (  3972 PWs)   bands (ev):

   -56.5075 -56.5075 -56.4837 -56.4837 -56.4762 -56.4762 -56.4721 -56.4721
   -28.5919 -28.5861 -28.5770 -28.5768 -28.5608 -28.5570 -28.4957 -28.4955
   -27.6354 -27.6313 -27.5957 -27.5917 -27.5554 -27.5520 -27.5478 -27.5407
   -27.5244 -27.5110 -27.4740 -27.4703 -27.4630 -27.4543 -27.4475 -27.4433
     3.0818   3.0819   6.3991   6.4033   7.2093   7.2137   8.4085   8.4138
     9.8341   9.8374  10.5116  10.5140  10.7886  10.7899  11.3588  11.3618
    11.7816  11.7820  12.4139  12.4194  12.5895  12.5971  12.9971  12.9983
    13.0928  13.1010  13.1744  13.1752  13.2461  13.2527  13.3384  13.3434
    13.4697  13.4775  13.7349  13.7490  14.0778  14.0851  15.2555  15.2772
    15.3050  15.3243  15.5400  15.5520  15.7001  15.7211  15.8183  15.8427
    16.2810  16.2980  16.6110  16.6207  17.0369  17.0714

     occupation numbers 
     1.0000   1.0000   1.0000   1.0000   1.0000   1.0000   1.0000   1.0000
     1.0000   1.0000   1.0000   1.0000   1.0000   1.0000   1.0000   1.0000
     1.0000   1.0000   1.0000   1.0000   1.0000   1.0000   1.0000   1.0000
     1.0000   1.0000   1.0000   1.0000   1.0000   1.0000   1.0000   1.0000
     1.0000   1.0000   1.0000   1.0000   1.0000   1.0000   1.0000   1.0000
     1.0000   1.0000   1.0000   1.0000   1.0000   1.0000   1.0000   1.0000
     1.0000   1.0000   1.0000   1.0000   1.0000   1.0000   1.0000   1.0000
     1.0000   1.0000   1.0000   1.0000   1.0000   1.0000   1.0000   1.0000
     1.0000   1.0000   1.0000   1.0000   1.0000   1.0000  -0.0330  -0.0352
    -0.0349  -0.0331  -0.0047  -0.0040  -0.0004  -0.0002  -0.0000  -0.0000
    -0.0000  -0.0000  -0.0000  -0.0000  -0.0000  -0.0000

          k = 0.0000 0.1667 0.3333 (  4006 PWs)   bands (ev):

   -56.5029 -56.5029 -56.4893 -56.4893 -56.4753 -56.4753 -56.4722 -56.4722
   -28.5918 -28.5867 -28.5807 -28.5786 -28.5463 -28.5438 -28.5087 -28.5084
   -27.6387 -27.6333 -27.5847 -27.5792 -27.5653 -27.5520 -27.5453 -27.5375
   -27.5258 -27.4972 -27.4914 -27.4758 -27.4688 -27.4573 -27.4439 -27.4402
     3.6343   3.6346   5.5394   5.5411   7.3646   7.3672   8.4342   8.4375
     9.7345   9.7377  10.1908  10.1950  10.9892  10.9923  11.3869  11.3964
    11.7537  11.7581  12.1908  12.1994  12.5961  12.6038  12.8783  12.8871
    13.1146  13.1240  13.2537  13.2595  13.3815  13.3828  13.5283  13.5383
    13.5913  13.6044  13.9911  14.0017  14.2460  14.2584  14.9124  14.9434
    15.2285  15.2471  15.3491  15.3591  15.6583  15.6833  15.8101  15.8403
    16.1552  16.1646  16.4432  16.4562  17.2404  17.2732

     occupation numbers 
     1.0000   1.0000   1.0000   1.0000   1.0000   1.0000   1.0000   1.0000
     1.0000   1.0000   1.0000   1.0000   1.0000   1.0000   1.0000   1.0000
     1.0000   1.0000   1.0000   1.0000   1.0000   1.0000   1.0000   1.0000
     1.0000   1.0000   1.0000   1.0000   1.0000   1.0000   1.0000   1.0000
     1.0000   1.0000   1.0000   1.0000   1.0000   1.0000   1.0000   1.0000
     1.0000   1.0000   1.0000   1.0000   1.0000   1.0000   1.0000   1.0000
     1.0000   1.0000   1.0000   1.0000   1.0000   1.0000   1.0000   1.0000
     1.0000   1.0000   1.0000   1.0000   1.0000   1.0000   1.0000   1.0000
     1.0000   1.0000   1.0000   1.0000   1.0007   1.0009   0.6272   0.5326
    -0.0261  -0.0314  -0.0297  -0.0281  -0.0008  -0.0005  -0.0000  -0.0000
    -0.0000  -0.0000  -0.0000  -0.0000  -0.0000  -0.0000

          k = 0.0000 0.1667-0.5000 (  3996 PWs)   bands (ev):

   -56.4963 -56.4963 -56.4963 -56.4963 -56.4735 -56.4735 -56.4735 -56.4735
   -28.5880 -28.5880 -28.5825 -28.5825 -28.5278 -28.5278 -28.5252 -28.5252
   -27.6370 -27.6370 -27.5765 -27.5765 -27.5619 -27.5619 -27.5378 -27.5378
   -27.5155 -27.5155 -27.4836 -27.4836 -27.4642 -27.4642 -27.4410 -27.4410
     4.4949   4.4949   4.4956   4.4956   7.8967   7.8967   7.9035   7.9035
    10.0164  10.0164  10.0203  10.0203  11.1051  11.1051  11.1190  11.1190
    12.0918  12.0918  12.0964  12.0964  12.5420  12.5420  12.5577  12.5577
    13.2780  13.2780  13.2789  13.2789  13.3934  13.3934  13.3947  13.3947
    13.8688  13.8688  13.8728  13.8728  14.6233  14.6233  14.6547  14.6547
    15.2416  15.2416  15.2563  15.2563  15.7185  15.7185  15.7482  15.7482
    16.2433  16.2433  16.2539  16.2539  17.4884  17.4904

     occupation numbers 
     1.0000   1.0000   1.0000   1.0000   1.0000   1.0000   1.0000   1.0000
     1.0000   1.0000   1.0000   1.0000   1.0000   1.0000   1.0000   1.0000
     1.0000   1.0000   1.0000   1.0000   1.0000   1.0000   1.0000   1.0000
     1.0000   1.0000   1.0000   1.0000   1.0000   1.0000   1.0000   1.0000
     1.0000   1.0000   1.0000   1.0000   1.0000   1.0000   1.0000   1.0000
     1.0000   1.0000   1.0000   1.0000   1.0000   1.0000   1.0000   1.0000
     1.0000   1.0000   1.0000   1.0000   1.0000   1.0000   1.0000   1.0000
     1.0000   1.0000   1.0000   1.0000   1.0000   1.0000   1.0000   1.0000
     1.0000   1.0000   1.0000   1.0000   1.0354   1.0354   1.0326   1.0326
    -0.0301  -0.0301  -0.0332  -0.0332  -0.0003  -0.0003  -0.0001  -0.0001
    -0.0000  -0.0000  -0.0000  -0.0000  -0.0000  -0.0000

          k = 0.0000 0.3333 0.3333 (  4008 PWs)   bands (ev):

   -56.4992 -56.4992 -56.4907 -56.4907 -56.4763 -56.4763 -56.4734 -56.4734
   -28.5879 -28.5839 -28.5769 -28.5760 -28.5440 -28.5417 -28.5195 -28.5188
   -27.6302 -27.6289 -27.5858 -27.5801 -27.5612 -27.5535 -27.5419 -27.5408
   -27.5246 -27.5051 -27.5028 -27.4914 -27.4627 -27.4489 -27.4396 -27.4364
     4.1599   4.1604   5.6417   5.6438   6.6800   6.6827   7.8214   7.8251
    10.0331  10.0358  10.3065  10.3095  10.9423  10.9440  11.2599  11.2620
    11.8964  11.9028  12.1599  12.1643  12.3111  12.3207  12.6302  12.6380
    13.1813  13.1897  13.3932  13.3981  13.5622  13.5650  13.7226  13.7279
    13.8857  13.8973  14.0966  14.1093  14.4904  14.5160  14.8511  14.8627
    14.9441  14.9643  15.0609  15.0775  15.5263  15.5493  15.6065  15.6364
    16.2360  16.2448  16.4936  16.5005  17.1509  17.1815

     occupation numbers 
     1.0000   1.0000   1.0000   1.0000   1.0000   1.0000   1.0000   1.0000
     1.0000   1.0000   1.0000   1.0000   1.0000   1.0000   1.0000   1.0000
     1.0000   1.0000   1.0000   1.0000   1.0000   1.0000   1.0000   1.0000
     1.0000   1.0000   1.0000   1.0000   1.0000   1.0000   1.0000   1.0000
     1.0000   1.0000   1.0000   1.0000   1.0000   1.0000   1.0000   1.0000
     1.0000   1.0000   1.0000   1.0000   1.0000   1.0000   1.0000   1.0000
     1.0000   1.0000   1.0000   1.0000   1.0000   1.0000   1.0000   1.0000
     1.0000   1.0000   1.0000   1.0000   1.0000   1.0000   1.0000   1.0000
     1.0000   1.0000   1.0000   1.0001   1.0184   1.0226   0.7959   0.7667
     0.5303   0.4675   0.1940   0.1560  -0.0056  -0.0042  -0.0018  -0.0011
    -0.0000  -0.0000  -0.0000  -0.0000  -0.0000  -0.0000

          k = 0.0000 0.3333-0.5000 (  4000 PWs)   bands (ev):

   -56.4945 -56.4945 -56.4945 -56.4945 -56.4753 -56.4753 -56.4753 -56.4753
   -28.5821 -28.5821 -28.5779 -28.5779 -28.5341 -28.5341 -28.5312 -28.5312
   -27.6249 -27.6249 -27.5881 -27.5881 -27.5535 -27.5535 -27.5357 -27.5357
   -27.5237 -27.5237 -27.5024 -27.5024 -27.4514 -27.4514 -27.4368 -27.4368
     4.9512   4.9512   4.9525   4.9525   7.0302   7.0302   7.0350   7.0350
    10.3321  10.3321  10.3340  10.3340  11.2394  11.2394  11.2478  11.2478
    11.7625  11.7625  11.7679  11.7679  12.3356  12.3356  12.3431  12.3431
    13.3689  13.3689  13.3760  13.3760  13.6773  13.6773  13.6859  13.6859
    14.1729  14.1729  14.1784  14.1784  14.6137  14.6137  14.6328  14.6328
    14.9466  14.9466  14.9615  14.9615  15.5019  15.5019  15.5261  15.5261
    16.4441  16.4441  16.4548  16.4548  17.1991  17.2055

     occupation numbers 
     1.0000   1.0000   1.0000   1.0000   1.0000   1.0000   1.0000   1.0000
     1.0000   1.0000   1.0000   1.0000   1.0000   1.0000   1.0000   1.0000
     1.0000   1.0000   1.0000   1.0000   1.0000   1.0000   1.0000   1.0000
     1.0000   1.0000   1.0000   1.0000   1.0000   1.0000   1.0000   1.0000
     1.0000   1.0000   1.0000   1.0000   1.0000   1.0000   1.0000   1.0000
     1.0000   1.0000   1.0000   1.0000   1.0000   1.0000   1.0000   1.0000
     1.0000   1.0000   1.0000   1.0000   1.0000   1.0000   1.0000   1.0000
     1.0000   1.0000   1.0000   1.0000   1.0000   1.0000   1.0000   1.0000
     1.0002   1.0002   1.0002   1.0002   1.0354   1.0354   1.0351   1.0351
     0.5225   0.5225   0.4763   0.4763  -0.0076  -0.0076  -0.0057  -0.0057
    -0.0000  -0.0000  -0.0000  -0.0000  -0.0000  -0.0000

          k = 0.0000-0.5000-0.5000 (  4012 PWs)   bands (ev):

   -56.4935 -56.4935 -56.4935 -56.4935 -56.4763 -56.4763 -56.4763 -56.4763
   -28.5769 -28.5769 -28.5769 -28.5769 -28.5363 -28.5363 -28.5363 -28.5363
   -27.6072 -27.6072 -27.6072 -27.6072 -27.5401 -27.5401 -27.5401 -27.5401
   -27.5202 -27.5202 -27.5202 -27.5202 -27.4406 -27.4406 -27.4406 -27.4406
     5.3731   5.3731   5.3731   5.3731   6.4293   6.4293   6.4293   6.4293
    10.7073  10.7073  10.7073  10.7073  11.2443  11.2443  11.2443  11.2443
    11.3869  11.3869  11.3869  11.3869  12.2860  12.2860  12.2860  12.2860
    13.3642  13.3642  13.3642  13.3642  14.0096  14.0096  14.0096  14.0096
    14.2970  14.2970  14.2970  14.2970  14.5279  14.5279  14.5279  14.5279
    14.7603  14.7603  14.7603  14.7603  15.4212  15.4212  15.4212  15.4212
    16.5911  16.5911  16.5911  16.5911  16.9887  16.9887

     occupation numbers 
     1.0000   1.0000   1.0000   1.0000   1.0000   1.0000   1.0000   1.0000
     1.0000   1.0000   1.0000   1.0000   1.0000   1.0000   1.0000   1.0000
     1.0000   1.0000   1.0000   1.0000   1.0000   1.0000   1.0000   1.0000
     1.0000   1.0000   1.0000   1.0000   1.0000   1.0000   1.0000   1.0000
     1.0000   1.0000   1.0000   1.0000   1.0000   1.0000   1.0000   1.0000
     1.0000   1.0000   1.0000   1.0000   1.0000   1.0000   1.0000   1.0000
     1.0000   1.0000   1.0000   1.0000   1.0000   1.0000   1.0000   1.0000
     1.0000   1.0000   1.0000   1.0000   1.0000   1.0000   1.0000   1.0000
     1.0017   1.0017   1.0017   1.0017   1.0247   1.0247   1.0247   1.0247
     0.9637   0.9637   0.9637   0.9637  -0.0178  -0.0178  -0.0178  -0.0178
    -0.0000  -0.0000  -0.0000  -0.0000  -0.0000  -0.0000

          k = 0.1667 0.1667 0.1667 (  4001 PWs)   bands (ev):

   -56.5059 -56.5059 -56.4848 -56.4848 -56.4769 -56.4769 -56.4720 -56.4720
   -28.5923 -28.5869 -28.5751 -28.5750 -28.5587 -28.5547 -28.5003 -28.5000
   -27.6348 -27.6325 -27.5932 -27.5843 -27.5558 -27.5516 -27.5507 -27.5479
   -27.5188 -27.5058 -27.4835 -27.4705 -27.4637 -27.4600 -27.4425 -27.4419
     3.2690   3.2690   6.3468   6.3534   7.0400   7.0486   8.3248   8.3271
     9.7337   9.7364  10.5188  10.5196  10.5489  10.5503  11.3869  11.3924
    11.9894  11.9899  12.3217  12.3298  12.8303  12.8356  12.8362  12.8425
    13.1042  13.1096  13.1360  13.1360  13.2119  13.2179  13.5236  13.5286
    13.6028  13.6123  13.7856  13.7910  14.1547  14.1633  15.2079  15.2225
    15.2756  15.2902  15.4743  15.4756  15.5266  15.5421  15.7960  15.8107
    16.2271  16.2439  16.6065  16.6180  17.0511  17.0913

     occupation numbers 
     1.0000   1.0000   1.0000   1.0000   1.0000   1.0000   1.0000   1.0000
     1.0000   1.0000   1.0000   1.0000   1.0000   1.0000   1.0000   1.0000
     1.0000   1.0000   1.0000   1.0000   1.0000   1.0000   1.0000   1.0000
     1.0000   1.0000   1.0000   1.0000   1.0000   1.0000   1.0000   1.0000
     1.0000   1.0000   1.0000   1.0000   1.0000   1.0000   1.0000   1.0000
     1.0000   1.0000   1.0000   1.0000   1.0000   1.0000   1.0000   1.0000
     1.0000   1.0000   1.0000   1.0000   1.0000   1.0000   1.0000   1.0000
     1.0000   1.0000   1.0000   1.0000   1.0000   1.0000   1.0000   1.0000
     1.0000   1.0000   1.0000   1.0000   1.0001   1.0002  -0.0168  -0.0237
    -0.0352  -0.0354  -0.0105  -0.0104  -0.0056  -0.0046  -0.0001  -0.0000
    -0.0000  -0.0000  -0.0000  -0.0000  -0.0000  -0.0000

          k = 0.1667 0.1667 0.3333 (  4003 PWs)   bands (ev):

   -56.5016 -56.5016 -56.4892 -56.4892 -56.4763 -56.4763 -56.4726 -56.4726
   -28.5904 -28.5858 -28.5777 -28.5762 -28.5473 -28.5446 -28.5128 -28.5120
   -27.6354 -27.6312 -27.5843 -27.5761 -27.5640 -27.5548 -27.5477 -27.5429
   -27.5203 -27.5071 -27.4847 -27.4745 -27.4723 -27.4608 -27.4402 -27.4386
     3.8133   3.8135   5.6540   5.6561   7.1843   7.1883   8.2404   8.2439
     9.3535   9.3560  10.2229  10.2252  10.9262  10.9298  11.4692  11.4724
    11.8306  11.8347  12.2190  12.2211  12.7524  12.7613  12.9459  12.9520
    13.0798  13.0884  13.1981  13.2065  13.2943  13.2978  13.5457  13.5525
    13.7639  13.7691  14.0145  14.0235  14.3541  14.3714  14.9090  14.9364
    15.1928  15.2079  15.2852  15.2952  15.5057  15.5202  15.7162  15.7370
    16.1687  16.1781  16.4561  16.4700  17.2205  17.2516

     occupation numbers 
     1.0000   1.0000   1.0000   1.0000   1.0000   1.0000   1.0000   1.0000
     1.0000   1.0000   1.0000   1.0000   1.0000   1.0000   1.0000   1.0000
     1.0000   1.0000   1.0000   1.0000   1.0000   1.0000   1.0000   1.0000
     1.0000   1.0000   1.0000   1.0000   1.0000   1.0000   1.0000   1.0000
     1.0000   1.0000   1.0000   1.0000   1.0000   1.0000   1.0000   1.0000
     1.0000   1.0000   1.0000   1.0000   1.0000   1.0000   1.0000   1.0000
     1.0000   1.0000   1.0000   1.0000   1.0000   1.0000   1.0000   1.0000
     1.0000   1.0000   1.0000   1.0000   1.0000   1.0000   1.0000   1.0000
     1.0000   1.0000   1.0000   1.0000   1.0039   1.0049   0.6375   0.5543
    -0.0074  -0.0168  -0.0355  -0.0353  -0.0073  -0.0061  -0.0003  -0.0002
    -0.0000  -0.0000  -0.0000  -0.0000  -0.0000  -0.0000

          k = 0.1667 0.1667-0.5000 (  3976 PWs)   bands (ev):

   -56.4954 -56.4954 -56.4954 -56.4954 -56.4743 -56.4743 -56.4743 -56.4743
   -28.5856 -28.5856 -28.5803 -28.5803 -28.5309 -28.5309 -28.5275 -28.5275
   -27.6331 -27.6331 -27.5747 -27.5747 -27.5658 -27.5658 -27.5364 -27.5364
   -27.5216 -27.5216 -27.4798 -27.4798 -27.4670 -27.4670 -27.4385 -27.4385
     4.6562   4.6562   4.6570   4.6570   7.7199   7.7199   7.7261   7.7261
     9.6739   9.6739   9.6752   9.6752  11.4007  11.4007  11.4088  11.4088
    11.8745  11.8745  11.8780  11.8780  12.7989  12.7989  12.8108  12.8108
    13.1830  13.1830  13.1935  13.1935  13.4193  13.4193  13.4234  13.4234
    13.9242  13.9242  13.9321  13.9321  14.6749  14.6749  14.7087  14.7087
    15.1652  15.1652  15.1852  15.1852  15.6067  15.6067  15.6293  15.6293
    16.2627  16.2627  16.2723  16.2723  17.5737  17.5749

     occupation numbers 
     1.0000   1.0000   1.0000   1.0000   1.0000   1.0000   1.0000   1.0000
     1.0000   1.0000   1.0000   1.0000   1.0000   1.0000   1.0000   1.0000
     1.0000   1.0000   1.0000   1.0000   1.0000   1.0000   1.0000   1.0000
     1.0000   1.0000   1.0000   1.0000   1.0000   1.0000   1.0000   1.0000
     1.0000   1.0000   1.0000   1.0000   1.0000   1.0000   1.0000   1.0000
     1.0000   1.0000   1.0000   1.0000   1.0000   1.0000   1.0000   1.0000
     1.0000   1.0000   1.0000   1.0000   1.0000   1.0000   1.0000   1.0000
     1.0000   1.0000   1.0000   1.0000   1.0000   1.0000   1.0000   1.0000
     1.0000   1.0000   1.0000   1.0000   1.0275   1.0275   1.0115   1.0115
     0.0162   0.0162  -0.0018  -0.0018  -0.0018  -0.0018  -0.0013  -0.0013
    -0.0000  -0.0000  -0.0000  -0.0000  -0.0000  -0.0000

          k = 0.1667 0.3333 0.3333 (  3974 PWs)   bands (ev):

   -56.4980 -56.4980 -56.4900 -56.4900 -56.4773 -56.4773 -56.4741 -56.4741
   -28.5859 -28.5822 -28.5743 -28.5735 -28.5459 -28.5437 -28.5231 -28.5220
   -27.6279 -27.6250 -27.5849 -27.5776 -27.5659 -27.5574 -27.5463 -27.5393
   -27.5235 -27.5144 -27.4908 -27.4827 -27.4665 -27.4551 -27.4393 -27.4361
     4.3299   4.3303   5.7599   5.7633   6.7230   6.7284   7.7784   7.7820
     9.2018   9.2051  10.0641  10.0677  10.9696  10.9718  11.5801  11.5842
    11.7461  11.7482  12.2605  12.2640  12.4948  12.5011  12.8127  12.8191
    13.1526  13.1568  13.2543  13.2664  13.4014  13.4086  13.6937  13.7089
    13.9188  13.9350  14.2302  14.2410  14.5663  14.5944  14.8659  14.8800
    14.9500  14.9611  15.1257  15.1524  15.4090  15.4118  15.5553  15.5707
    16.2312  16.2387  16.4605  16.4686  17.1004  17.1252

     occupation numbers 
     1.0000   1.0000   1.0000   1.0000   1.0000   1.0000   1.0000   1.0000
     1.0000   1.0000   1.0000   1.0000   1.0000   1.0000   1.0000   1.0000
     1.0000   1.0000   1.0000   1.0000   1.0000   1.0000   1.0000   1.0000
     1.0000   1.0000   1.0000   1.0000   1.0000   1.0000   1.0000   1.0000
     1.0000   1.0000   1.0000   1.0000   1.0000   1.0000   1.0000   1.0000
     1.0000   1.0000   1.0000   1.0000   1.0000   1.0000   1.0000   1.0000
     1.0000   1.0000   1.0000   1.0000   1.0000   1.0000   1.0000   1.0000
     1.0000   1.0000   1.0000   1.0000   1.0000   1.0000   1.0000   1.0000
     1.0000   1.0000   1.0006   1.0007   1.0308   1.0342   0.7583   0.7206
     0.5120   0.4776   0.0664   0.0303  -0.0198  -0.0193  -0.0038  -0.0031
    -0.0000  -0.0000  -0.0000  -0.0000  -0.0000  -0.0000

          k = 0.1667 0.3333-0.5000 (  3988 PWs)   bands (ev):

   -56.4935 -56.4935 -56.4935 -56.4935 -56.4763 -56.4763 -56.4763 -56.4763
   -28.5797 -28.5797 -28.5756 -28.5756 -28.5371 -28.5371 -28.5339 -28.5339
   -27.6217 -27.6217 -27.5857 -27.5857 -27.5614 -27.5614 -27.5375 -27.5375
   -27.5234 -27.5234 -27.4922 -27.4922 -27.4561 -27.4561 -27.4377 -27.4377
     5.1018   5.1018   5.1032   5.1032   7.0749   7.0749   7.0802   7.0802
     9.6240   9.6240   9.6276   9.6276  11.2882  11.2882  11.2900  11.2900
    11.9359  11.9359  11.9447  11.9447  12.5647  12.5647  12.5740  12.5740
    13.2666  13.2666  13.2726  13.2726  13.5502  13.5502  13.5652  13.5652
    14.2362  14.2362  14.2451  14.2451  14.7114  14.7114  14.7326  14.7326
    14.9643  14.9643  14.9822  14.9822  15.4458  15.4458  15.4627  15.4627
    16.3869  16.3869  16.3944  16.3944  17.1622  17.1692

     occupation numbers 
     1.0000   1.0000   1.0000   1.0000   1.0000   1.0000   1.0000   1.0000
     1.0000   1.0000   1.0000   1.0000   1.0000   1.0000   1.0000   1.0000
     1.0000   1.0000   1.0000   1.0000   1.0000   1.0000   1.0000   1.0000
     1.0000   1.0000   1.0000   1.0000   1.0000   1.0000   1.0000   1.0000
     1.0000   1.0000   1.0000   1.0000   1.0000   1.0000   1.0000   1.0000
     1.0000   1.0000   1.0000   1.0000   1.0000   1.0000   1.0000   1.0000
     1.0000   1.0000   1.0000   1.0000   1.0000   1.0000   1.0000   1.0000
     1.0000   1.0000   1.0000   1.0000   1.0000   1.0000   1.0000   1.0000
     1.0006   1.0006   1.0007   1.0007   1.0098   1.0098   0.9934   0.9934
     0.4675   0.4675   0.4126   0.4126  -0.0141  -0.0141  -0.0119  -0.0119
    -0.0000  -0.0000  -0.0000  -0.0000  -0.0000  -0.0000

          k = 0.1667-0.5000-0.5000 (  4008 PWs)   bands (ev):

   -56.4923 -56.4923 -56.4923 -56.4923 -56.4775 -56.4775 -56.4775 -56.4775
   -28.5745 -28.5745 -28.5743 -28.5743 -28.5394 -28.5394 -28.5392 -28.5392
   -27.6079 -27.6079 -27.6011 -27.6011 -27.5559 -27.5559 -27.5415 -27.5415
   -27.5180 -27.5180 -27.5029 -27.5029 -27.4470 -27.4470 -27.4411 -27.4411
     5.5096   5.5096   5.5110   5.5110   6.5321   6.5321   6.5347   6.5347
     9.8356   9.8356   9.8397   9.8397  10.8971  10.8971  10.8993  10.8993
    12.1907  12.1907  12.1933  12.1933  12.3756  12.3756  12.3787  12.3787
    13.2230  13.2230  13.2237  13.2237  13.7574  13.7574  13.7713  13.7713
    14.3930  14.3930  14.4000  14.4000  14.6979  14.6979  14.7152  14.7152
    14.8392  14.8392  14.8410  14.8410  15.3679  15.3679  15.3681  15.3681
    16.4878  16.4878  16.4893  16.4893  16.9542  16.9561

     occupation numbers 
     1.0000   1.0000   1.0000   1.0000   1.0000   1.0000   1.0000   1.0000
     1.0000   1.0000   1.0000   1.0000   1.0000   1.0000   1.0000   1.0000
     1.0000   1.0000   1.0000   1.0000   1.0000   1.0000   1.0000   1.0000
     1.0000   1.0000   1.0000   1.0000   1.0000   1.0000   1.0000   1.0000
     1.0000   1.0000   1.0000   1.0000   1.0000   1.0000   1.0000   1.0000
     1.0000   1.0000   1.0000   1.0000   1.0000   1.0000   1.0000   1.0000
     1.0000   1.0000   1.0000   1.0000   1.0000   1.0000   1.0000   1.0000
     1.0000   1.0000   1.0000   1.0000   1.0000   1.0000   1.0000   1.0000
     1.0065   1.0065   1.0071   1.0071   1.0179   1.0179   1.0073   1.0073
     0.8240   0.8240   0.8198   0.8198  -0.0267  -0.0267  -0.0267  -0.0267
    -0.0000  -0.0000  -0.0000  -0.0000  -0.0000  -0.0000

          k = 0.3333 0.3333 0.3333 (  3996 PWs)   bands (ev):

   -56.4948 -56.4948 -56.4892 -56.4892 -56.4793 -56.4793 -56.4763 -56.4763
   -28.5804 -28.5772 -28.5694 -28.5693 -28.5487 -28.5468 -28.5323 -28.5308
   -27.6203 -27.6166 -27.5835 -27.5736 -27.5734 -27.5720 -27.5502 -27.5371
   -27.5269 -27.5069 -27.4866 -27.4683 -27.4680 -27.4675 -27.4416 -27.4383
     4.8161   4.8165   5.9684   5.9748   6.6644   6.6747   7.5035   7.5061
     8.7494   8.7544   9.4991   9.5053  10.5503  10.5547  11.1941  11.1959
    12.0067  12.0085  12.4972  12.5003  12.7688  12.7729  12.8488  12.8505
    13.1384  13.1502  13.1961  13.2029  13.2657  13.2680  13.5448  13.5479
    14.1402  14.1448  14.4920  14.5003  14.7926  14.8293  14.8508  14.8624
    14.9962  15.0070  15.1374  15.1433  15.2638  15.2907  15.4138  15.4330
    16.2554  16.2623  16.3897  16.3924  16.9561  16.9644

     occupation numbers 
     1.0000   1.0000   1.0000   1.0000   1.0000   1.0000   1.0000   1.0000
     1.0000   1.0000   1.0000   1.0000   1.0000   1.0000   1.0000   1.0000
     1.0000   1.0000   1.0000   1.0000   1.0000   1.0000   1.0000   1.0000
     1.0000   1.0000   1.0000   1.0000   1.0000   1.0000   1.0000   1.0000
     1.0000   1.0000   1.0000   1.0000   1.0000   1.0000   1.0000   1.0000
     1.0000   1.0000   1.0000   1.0000   1.0000   1.0000   1.0000   1.0000
     1.0000   1.0000   1.0000   1.0000   1.0000   1.0000   1.0000   1.0000
     1.0000   1.0000   1.0000   1.0000   1.0000   1.0000   1.0000   1.0000
     1.0001   1.0001   1.0187   1.0200   0.9168   0.8462   0.7966   0.7673
     0.3703   0.3381   0.0494   0.0416  -0.0342  -0.0354  -0.0190  -0.0160
    -0.0000  -0.0000  -0.0000  -0.0000  -0.0000  -0.0000

          k = 0.3333 0.3333-0.5000 (  4018 PWs)   bands (ev):

   -56.4910 -56.4910 -56.4910 -56.4910 -56.4788 -56.4788 -56.4788 -56.4788
   -28.5736 -28.5736 -28.5700 -28.5700 -28.5441 -28.5441 -28.5409 -28.5409
   -27.6125 -27.6125 -27.5838 -27.5838 -27.5734 -27.5734 -27.5469 -27.5469
   -27.5125 -27.5125 -27.4808 -27.4808 -27.4624 -27.4624 -27.4426 -27.4426
     5.5153   5.5153   5.5172   5.5172   6.9778   6.9778   6.9836   6.9836
     9.0514   9.0514   9.0572   9.0572  10.5643  10.5643  10.5672  10.5672
    12.3851  12.3851  12.3935  12.3935  12.8186  12.8186  12.8262  12.8262
    13.1327  13.1327  13.1437  13.1437  13.3776  13.3776  13.3860  13.3860
    14.4660  14.4660  14.4743  14.4743  14.8613  14.8613  14.8770  14.8770
    15.0811  15.0811  15.1003  15.1003  15.2970  15.2970  15.3133  15.3133
    16.3316  16.3316  16.3410  16.3410  16.9300  16.9333

     occupation numbers 
     1.0000   1.0000   1.0000   1.0000   1.0000   1.0000   1.0000   1.0000
     1.0000   1.0000   1.0000   1.0000   1.0000   1.0000   1.0000   1.0000
     1.0000   1.0000   1.0000   1.0000   1.0000   1.0000   1.0000   1.0000
     1.0000   1.0000   1.0000   1.0000   1.0000   1.0000   1.0000   1.0000
     1.0000   1.0000   1.0000   1.0000   1.0000   1.0000   1.0000   1.0000
     1.0000   1.0000   1.0000   1.0000   1.0000   1.0000   1.0000   1.0000
     1.0000   1.0000   1.0000   1.0000   1.0000   1.0000   1.0000   1.0000
     1.0000   1.0000   1.0000   1.0000   1.0000   1.0000   1.0000   1.0000
     1.0147   1.0147   1.0159   1.0159   0.7702   0.7702   0.7289   0.7289
     0.1483   0.1483   0.1097   0.1097  -0.0353  -0.0353  -0.0342  -0.0342
    -0.0000  -0.0000  -0.0000  -0.0000  -0.0000  -0.0000

          k = 0.3333-0.5000-0.5000 (  4000 PWs)   bands (ev):

   -56.4892 -56.4892 -56.4892 -56.4892 -56.4806 -56.4806 -56.4806 -56.4806
   -28.5677 -28.5677 -28.5674 -28.5674 -28.5475 -28.5475 -28.5471 -28.5471
   -27.6019 -27.6019 -27.5935 -27.5935 -27.5736 -27.5736 -27.5512 -27.5512
   -27.5048 -27.5048 -27.4827 -27.4827 -27.4574 -27.4574 -27.4492 -27.4492
     5.8937   5.8937   5.8967   5.8967   6.6664   6.6664   6.6718   6.6718
     9.0948   9.0948   9.1014   9.1014  10.0583  10.0583  10.0624  10.0624
    12.6142  12.6142  12.6182  12.6182  12.7998  12.7998  12.8019  12.8019
    13.0426  13.0426  13.0427  13.0427  13.3523  13.3523  13.3629  13.3629
    14.6566  14.6566  14.6642  14.6642  14.9731  14.9731  14.9806  14.9806
    15.0651  15.0651  15.0706  15.0706  15.2558  15.2558  15.2676  15.2676
    16.3688  16.3688  16.3701  16.3701  16.7218  16.7220

     occupation numbers 
     1.0000   1.0000   1.0000   1.0000   1.0000   1.0000   1.0000   1.0000
     1.0000   1.0000   1.0000   1.0000   1.0000   1.0000   1.0000   1.0000
     1.0000   1.0000   1.0000   1.0000   1.0000   1.0000   1.0000   1.0000
     1.0000   1.0000   1.0000   1.0000   1.0000   1.0000   1.0000   1.0000
     1.0000   1.0000   1.0000   1.0000   1.0000   1.0000   1.0000   1.0000
     1.0000   1.0000   1.0000   1.0000   1.0000   1.0000   1.0000   1.0000
     1.0000   1.0000   1.0000   1.0000   1.0000   1.0000   1.0000   1.0000
     1.0000   1.0000   1.0000   1.0000   1.0000   1.0000   1.0000   1.0000
     1.0323   1.0323   1.0306   1.0306   0.4403   0.4403   0.4174   0.4174
     0.1840   0.1840   0.1713   0.1713  -0.0331  -0.0331  -0.0346  -0.0346
    -0.0000  -0.0000  -0.0000  -0.0000  -0.0000  -0.0000

          k =-0.5000-0.5000-0.5000 (  4032 PWs)   bands (ev):

   -56.4849 -56.4849 -56.4849 -56.4849 -56.4849 -56.4849 -56.4849 -56.4849
   -28.5583 -28.5583 -28.5575 -28.5575 -28.5575 -28.5575 -28.5575 -28.5575
   -27.5898 -27.5898 -27.5898 -27.5898 -27.5898 -27.5898 -27.5553 -27.5553
   -27.4978 -27.4978 -27.4638 -27.4638 -27.4638 -27.4638 -27.4638 -27.4638
     6.4007   6.4007   6.4007   6.4007   6.4007   6.4007   6.4109   6.4109
     9.2395   9.2395   9.2517   9.2517   9.2517   9.2517   9.2517   9.2517
    12.9175  12.9175  12.9240  12.9240  12.9240  12.9240  12.9240  12.9240
    13.0004  13.0004  13.0052  13.0052  13.0052  13.0052  13.0052  13.0052
    14.9343  14.9343  14.9362  14.9362  14.9362  14.9362  14.9362  14.9362
    15.2373  15.2373  15.2373  15.2373  15.2373  15.2373  15.2804  15.2804
    16.4112  16.4119  16.4234  16.4234  16.4234  16.4234

     occupation numbers 
     1.0000   1.0000   1.0000   1.0000   1.0000   1.0000   1.0000   1.0000
     1.0000   1.0000   1.0000   1.0000   1.0000   1.0000   1.0000   1.0000
     1.0000   1.0000   1.0000   1.0000   1.0000   1.0000   1.0000   1.0000
     1.0000   1.0000   1.0000   1.0000   1.0000   1.0000   1.0000   1.0000
     1.0000   1.0000   1.0000   1.0000   1.0000   1.0000   1.0000   1.0000
     1.0000   1.0000   1.0000   1.0000   1.0000   1.0000   1.0000   1.0000
     1.0000   1.0000   1.0000   1.0000   1.0000   1.0000   1.0000   1.0000
     1.0000   1.0000   1.0000   1.0000   1.0000   1.0000   1.0000   1.0000
     0.5606   0.5606   0.5547   0.5547   0.5547   0.5547   0.5547   0.5547
    -0.0289  -0.0289  -0.0289  -0.0289  -0.0289  -0.0289  -0.0354  -0.0354
    -0.0000  -0.0000  -0.0000  -0.0000  -0.0000  -0.0000

          k = 0.0000 0.3333 0.1667 (  4006 PWs)   bands (ev):

   -56.5029 -56.5029 -56.4893 -56.4893 -56.4753 -56.4753 -56.4722 -56.4722
   -28.5918 -28.5868 -28.5805 -28.5787 -28.5464 -28.5436 -28.5089 -28.5082
   -27.6387 -27.6334 -27.5825 -27.5815 -27.5641 -27.5520 -27.5464 -27.5377
   -27.5252 -27.4990 -27.4887 -27.4774 -27.4683 -27.4570 -27.4438 -27.4404
     3.6343   3.6344   5.5391   5.5400   7.3666   7.3678   8.4340   8.4405
     9.7446   9.7470  10.2578  10.2640  10.9727  10.9757  11.0988  11.1014
    11.8643  11.8666  12.2433  12.2473  12.7987  12.8037  12.9765  12.9817
    13.0673  13.0736  13.2456  13.2518  13.3417  13.3462  13.4899  13.4945
    13.5398  13.5423  13.9675  13.9775  14.2312  14.2433  14.8919  14.9238
    15.2799  15.2981  15.3400  15.3570  15.6479  15.6756  15.7870  15.8128
    16.1572  16.1695  16.4247  16.4389  17.2742  17.3039

     occupation numbers 
     1.0000   1.0000   1.0000   1.0000   1.0000   1.0000   1.0000   1.0000
     1.0000   1.0000   1.0000   1.0000   1.0000   1.0000   1.0000   1.0000
     1.0000   1.0000   1.0000   1.0000   1.0000   1.0000   1.0000   1.0000
     1.0000   1.0000   1.0000   1.0000   1.0000   1.0000   1.0000   1.0000
     1.0000   1.0000   1.0000   1.0000   1.0000   1.0000   1.0000   1.0000
     1.0000   1.0000   1.0000   1.0000   1.0000   1.0000   1.0000   1.0000
     1.0000   1.0000   1.0000   1.0000   1.0000   1.0000   1.0000   1.0000
     1.0000   1.0000   1.0000   1.0000   1.0000   1.0000   1.0000   1.0000
     1.0000   1.0000   1.0000   1.0000   1.0006   1.0007   0.6874   0.5930
    -0.0353  -0.0352  -0.0311  -0.0285  -0.0009  -0.0006  -0.0001  -0.0000
    -0.0000  -0.0000  -0.0000  -0.0000  -0.0000  -0.0000

          k = 0.0000-0.5000 0.1667 (  3996 PWs)   bands (ev):

   -56.4963 -56.4963 -56.4963 -56.4963 -56.4735 -56.4735 -56.4735 -56.4735
   -28.5880 -28.5880 -28.5825 -28.5825 -28.5279 -28.5279 -28.5251 -28.5251
   -27.6371 -27.6371 -27.5755 -27.5755 -27.5627 -27.5627 -27.5379 -27.5379
   -27.5156 -27.5156 -27.4835 -27.4835 -27.4639 -27.4639 -27.4412 -27.4412
     4.4947   4.4947   4.4952   4.4952   7.8986   7.8986   7.9032   7.9032
    10.1041  10.1041  10.1090  10.1090  10.8765  10.8765  10.8835  10.8835
    12.1429  12.1429  12.1477  12.1477  12.8636  12.8636  12.8726  12.8726
    13.1097  13.1097  13.1177  13.1177  13.3986  13.3986  13.4078  13.4078
    13.8092  13.8092  13.8146  13.8146  14.6095  14.6095  14.6405  14.6405
    15.2617  15.2617  15.2840  15.2840  15.6859  15.6859  15.7143  15.7143
    16.2182  16.2182  16.2298  16.2298  17.5950  17.5967

     occupation numbers 
     1.0000   1.0000   1.0000   1.0000   1.0000   1.0000   1.0000   1.0000
     1.0000   1.0000   1.0000   1.0000   1.0000   1.0000   1.0000   1.0000
     1.0000   1.0000   1.0000   1.0000   1.0000   1.0000   1.0000   1.0000
     1.0000   1.0000   1.0000   1.0000   1.0000   1.0000   1.0000   1.0000
     1.0000   1.0000   1.0000   1.0000   1.0000   1.0000   1.0000   1.0000
     1.0000   1.0000   1.0000   1.0000   1.0000   1.0000   1.0000   1.0000
     1.0000   1.0000   1.0000   1.0000   1.0000   1.0000   1.0000   1.0000
     1.0000   1.0000   1.0000   1.0000   1.0000   1.0000   1.0000   1.0000
     1.0000   1.0000   1.0000   1.0000   1.0352   1.0352   1.0345   1.0345
    -0.0339  -0.0339  -0.0354  -0.0354  -0.0005  -0.0005  -0.0003  -0.0003
    -0.0000  -0.0000  -0.0000  -0.0000  -0.0000  -0.0000

          k = 0.0000-0.5000 0.3333 (  4000 PWs)   bands (ev):

   -56.4945 -56.4945 -56.4945 -56.4945 -56.4753 -56.4753 -56.4753 -56.4753
   -28.5821 -28.5821 -28.5779 -28.5779 -28.5343 -28.5343 -28.5311 -28.5311
   -27.6252 -27.6252 -27.5873 -27.5873 -27.5542 -27.5542 -27.5350 -27.5350
   -27.5248 -27.5248 -27.5019 -27.5019 -27.4513 -27.4513 -27.4370 -27.4370
     4.9507   4.9507   4.9515   4.9515   7.0333   7.0333   7.0358   7.0358
    10.5084  10.5084  10.5118  10.5118  10.8287  10.8287  10.8308  10.8308
    11.9953  11.9953  12.0007  12.0007  12.4112  12.4112  12.4217  12.4217
    13.2686  13.2686  13.2750  13.2750  13.9159  13.9159  13.9223  13.9223
    13.9577  13.9577  13.9708  13.9708  14.6450  14.6450  14.6784  14.6784
    14.9045  14.9045  14.9403  14.9403  15.4818  15.4818  15.5049  15.5049
    16.3888  16.3888  16.4007  16.4007  17.2971  17.3053

     occupation numbers 
     1.0000   1.0000   1.0000   1.0000   1.0000   1.0000   1.0000   1.0000
     1.0000   1.0000   1.0000   1.0000   1.0000   1.0000   1.0000   1.0000
     1.0000   1.0000   1.0000   1.0000   1.0000   1.0000   1.0000   1.0000
     1.0000   1.0000   1.0000   1.0000   1.0000   1.0000   1.0000   1.0000
     1.0000   1.0000   1.0000   1.0000   1.0000   1.0000   1.0000   1.0000
     1.0000   1.0000   1.0000   1.0000   1.0000   1.0000   1.0000   1.0000
     1.0000   1.0000   1.0000   1.0000   1.0000   1.0000   1.0000   1.0000
     1.0000   1.0000   1.0000   1.0000   1.0000   1.0000   1.0000   1.0000
     1.0000   1.0000   1.0000   1.0000   1.0341   1.0341   1.0264   1.0264
     0.6507   0.6507   0.5420   0.5420  -0.0097  -0.0097  -0.0074  -0.0074
    -0.0000  -0.0000  -0.0000  -0.0000  -0.0000  -0.0000

          k =-0.1667-0.5000 0.3333 (  3988 PWs)   bands (ev):

   -56.4935 -56.4935 -56.4935 -56.4935 -56.4763 -56.4763 -56.4763 -56.4763
   -28.5798 -28.5798 -28.5756 -28.5756 -28.5372 -28.5372 -28.5338 -28.5338
   -27.6219 -27.6219 -27.5852 -27.5852 -27.5619 -27.5619 -27.5372 -27.5372
   -27.5239 -27.5239 -27.4921 -27.4921 -27.4560 -27.4560 -27.4378 -27.4378
     5.1015   5.1015   5.1026   5.1026   7.0768   7.0768   7.0807   7.0807
     9.6374   9.6374   9.6402   9.6402  11.1990  11.1990  11.2020  11.2020
    11.9980  11.9980  12.0046  12.0046  12.6323  12.6323  12.6426  12.6426
    13.1732  13.1732  13.1811  13.1811  13.6512  13.6512  13.6629  13.6629
    14.1716  14.1716  14.1808  14.1808  14.7179  14.7179  14.7431  14.7431
    14.9636  14.9636  14.9948  14.9948  15.4263  15.4263  15.4435  15.4435
    16.3583  16.3583  16.3691  16.3691  17.2183  17.2210

     occupation numbers 
     1.0000   1.0000   1.0000   1.0000   1.0000   1.0000   1.0000   1.0000
     1.0000   1.0000   1.0000   1.0000   1.0000   1.0000   1.0000   1.0000
     1.0000   1.0000   1.0000   1.0000   1.0000   1.0000   1.0000   1.0000
     1.0000   1.0000   1.0000   1.0000   1.0000   1.0000   1.0000   1.0000
     1.0000   1.0000   1.0000   1.0000   1.0000   1.0000   1.0000   1.0000
     1.0000   1.0000   1.0000   1.0000   1.0000   1.0000   1.0000   1.0000
     1.0000   1.0000   1.0000   1.0000   1.0000   1.0000   1.0000   1.0000
     1.0000   1.0000   1.0000   1.0000   1.0000   1.0000   1.0000   1.0000
     1.0002   1.0002   1.0002   1.0002   1.0053   1.0053   0.9832   0.9832
     0.4698   0.4698   0.3743   0.3743  -0.0170  -0.0170  -0.0145  -0.0145
    -0.0000  -0.0000  -0.0000  -0.0000  -0.0000  -0.0000

     the Fermi energy is    14.9539 ev

!    total energy              =   -1180.32432358 Ry

     total all-electron energy =    -10727.785160 Ry
     estimated scf accuracy    <       0.00000048 Ry
     smearing contrib. (-TS)   =      -0.00131232 Ry
     internal energy E=F+TS    =   -1180.32301126 Ry

     The total energy is F=E-TS. E is the sum of the following terms:
     one-electron contribution =    -336.77442630 Ry
     hartree contribution      =     207.02741322 Ry
     xc contribution           =    -114.35126958 Ry
     ewald contribution        =    -496.51183961 Ry
     one-center paw contrib.   =    -439.71288899 Ry
      -> PAW hartree energy AE =     126.17626268 Ry
      -> PAW hartree energy PS =    -125.21265814 Ry
      -> PAW xc energy AE      =     -96.18932730 Ry
      -> PAW xc energy PS      =      20.88771602 Ry
      -> total E_H with PAW    =     207.99101777 Ry
      -> total E_XC with PAW   =    -189.65288087 Ry

     convergence has been achieved in   8 iterations

     Writing output data file /zfs_data/vergnior/martin/Scratch/OAL/CrSi/convergence/cutoff/6x6x6/50/tmp/CrSi.save/
 
     init_run     :      2.46s CPU      2.60s WALL (       1 calls)
     electrons    :     62.37s CPU     64.43s WALL (       1 calls)

     Called by init_run:
     wfcinit      :      1.83s CPU      1.90s WALL (       1 calls)
     wfcinit:atom :      0.01s CPU      0.01s WALL (      24 calls)
     wfcinit:wfcr :      1.76s CPU      1.83s WALL (      24 calls)
     potinit      :      0.15s CPU      0.16s WALL (       1 calls)
     hinit0       :      0.13s CPU      0.13s WALL (       1 calls)

     Called by electrons:
     c_bands      :     50.17s CPU     51.45s WALL (       9 calls)
     sum_band     :      8.68s CPU      9.19s WALL (       9 calls)
     v_of_rho     :      0.06s CPU      0.07s WALL (       9 calls)
     v_h          :      0.00s CPU      0.00s WALL (       9 calls)
     v_xc         :      0.06s CPU      0.06s WALL (       9 calls)
     newd         :      2.65s CPU      2.90s WALL (       9 calls)
     PAW_pot      :      1.11s CPU      1.14s WALL (       9 calls)
     mix_rho      :      0.05s CPU      0.05s WALL (       9 calls)

     Called by c_bands:
     init_us_2    :      0.18s CPU      0.19s WALL (     456 calls)
     cegterg      :     46.66s CPU     47.91s WALL (     216 calls)

     Called by sum_band:
     sum_band:wei :      0.03s CPU      0.03s WALL (       9 calls)
     sum_band:loo :      7.37s CPU      7.57s WALL (       9 calls)
     sum_band:buf :      0.06s CPU      0.06s WALL (     216 calls)
     sum_band:ini :      0.09s CPU      0.09s WALL (     216 calls)
     sum_band:cal :      0.58s CPU      0.59s WALL (     216 calls)
     sum_band:bec :      2.76s CPU      2.76s WALL (     216 calls)
     addusdens    :      1.24s CPU      1.54s WALL (       9 calls)
     addusd:skk   :      0.00s CPU      0.00s WALL (      18 calls)
     addusd:dgemm :      0.48s CPU      0.78s WALL (      18 calls)
     addusd:qvan2 :      0.73s CPU      0.73s WALL (      18 calls)

     Called by *egterg:
     cdiaghg      :      7.79s CPU      7.86s WALL (    1121 calls)
     cegterg:over :      2.08s CPU      2.10s WALL (     929 calls)
     cegterg:upda :      0.88s CPU      0.89s WALL (     929 calls)
     cegterg:last :      1.85s CPU      1.86s WALL (     604 calls)
     h_psi        :     28.43s CPU     29.61s WALL (    1169 calls)
     s_psi        :      6.32s CPU      6.34s WALL (    1169 calls)
     g_psi        :      0.06s CPU      0.06s WALL (     929 calls)

     Called by h_psi:
     h_psi:calbec :      2.00s CPU      2.04s WALL (    1169 calls)
     vloc_psi     :     20.51s CPU     21.62s WALL (    1169 calls)
     add_vuspsi   :      5.80s CPU      5.84s WALL (    1169 calls)

     General routines
     calbec       :      2.58s CPU      2.62s WALL (    1385 calls)
     fft          :      0.06s CPU      0.06s WALL (     188 calls)
     ffts         :      0.01s CPU      0.01s WALL (      72 calls)
     fftw         :     20.05s CPU     21.13s WALL (  286532 calls)
     interpolate  :      0.02s CPU      0.02s WALL (      36 calls)
 
     Parallel routines
     fft_scatt_xy :      1.82s CPU      1.92s WALL (  286792 calls)
     fft_scatt_yz :      9.96s CPU     10.46s WALL (  286792 calls)

     PAW routines
     PAW_pot      :      1.11s CPU      1.14s WALL (       9 calls)
     PAW_symme    :      0.02s CPU      0.02s WALL (      18 calls)
 
     PWSCF        :   1m 7.58s CPU   1m10.33s WALL

 
   This run was terminated on:  18:34:18  30Jul2021            

=------------------------------------------------------------------------------=
   JOB DONE.
=------------------------------------------------------------------------------=
