MPI startup(): Warning: I_MPI_PMI_LIBRARY will be ignored since the hydra process manager was found
MPI startup(): Warning: I_MPI_PMI_LIBRARY will be ignored since the hydra process manager was found
MPI startup(): Warning: I_MPI_PMI_LIBRARY will be ignored since the hydra process manager was found
MPI startup(): Warning: I_MPI_PMI_LIBRARY will be ignored since the hydra process manager was found
MPI startup(): Warning: I_MPI_PMI_LIBRARY will be ignored since the hydra process manager was found
MPI startup(): Warning: I_MPI_PMI_LIBRARY will be ignored since the hydra process manager was found
MPI startup(): Warning: I_MPI_PMI_LIBRARY will be ignored since the hydra process manager was found
MPI startup(): Warning: I_MPI_PMI_LIBRARY will be ignored since the hydra process manager was found
MPI startup(): Warning: I_MPI_PMI_LIBRARY will be ignored since the hydra process manager was found
MPI startup(): Warning: I_MPI_PMI_LIBRARY will be ignored since the hydra process manager was found
MPI startup(): Warning: I_MPI_PMI_LIBRARY will be ignored since the hydra process manager was found
MPI startup(): Warning: I_MPI_PMI_LIBRARY will be ignored since the hydra process manager was found
MPI startup(): Warning: I_MPI_PMI_LIBRARY will be ignored since the hydra process manager was found
MPI startup(): Warning: I_MPI_PMI_LIBRARY will be ignored since the hydra process manager was found
MPI startup(): Warning: I_MPI_PMI_LIBRARY will be ignored since the hydra process manager was found
MPI startup(): Warning: I_MPI_PMI_LIBRARY will be ignored since the hydra process manager was found
MPI startup(): Warning: I_MPI_PMI_LIBRARY will be ignored since the hydra process manager was found
MPI startup(): Warning: I_MPI_PMI_LIBRARY will be ignored since the hydra process manager was found
MPI startup(): Warning: I_MPI_PMI_LIBRARY will be ignored since the hydra process manager was found
MPI startup(): Warning: I_MPI_PMI_LIBRARY will be ignored since the hydra process manager was found
MPI startup(): Warning: I_MPI_PMI_LIBRARY will be ignored since the hydra process manager was found
MPI startup(): Warning: I_MPI_PMI_LIBRARY will be ignored since the hydra process manager was found
MPI startup(): Warning: I_MPI_PMI_LIBRARY will be ignored since the hydra process manager was found
MPI startup(): Warning: I_MPI_PMI_LIBRARY will be ignored since the hydra process manager was found

     Program PWSCF v.6.7MaX starts on  1Aug2021 at 12:32:52 

     This program is part of the open-source Quantum ESPRESSO suite
     for quantum simulation of materials; please cite
         "P. Giannozzi et al., J. Phys.:Condens. Matter 21 395502 (2009);
         "P. Giannozzi et al., J. Phys.:Condens. Matter 29 465901 (2017);
          URL http://www.quantum-espresso.org", 
     in publications or presentations arising from this work. More details at
     http://www.quantum-espresso.org/quote

     Parallel version (MPI), running on    24 processors

     MPI processes distributed on     1 nodes
     R & G space division:  proc/nbgrp/npool/nimage =      24
     Waiting for input...
     Reading input from standard input

     Current dimensions of program PWSCF are:
     Max number of different atomic species (ntypx) = 10
     Max number of k-points (npk) =  40000
     Max angular momentum in pseudopotentials (lmaxx) =  3
     file Cr.rel-pbe-spn-kjpaw_psl.1.0.0.UPF: wavefunction(s)  3S 3P 3P 3D 3D renormalized
     file Si.rel-pbe-n-kjpaw_psl.1.0.0.UPF: wavefunction(s)  3S 3P 3P renormalized

     Subspace diagonalization in iterative solution of the eigenvalue problem:
     a serial algorithm will be used

     Message from routine setup:
     using ibrav=0 with symmetry is DISCOURAGED, use correct ibrav instead
 
     Parallelization info
     --------------------
     sticks:   dense  smooth     PW     G-vecs:    dense   smooth      PW
     Min         228      91     25                12702     3210     487
     Max         229      93     26                12704     3214     492
     Sum        5473    2201    621               304867    77053   11753
 


     bravais-lattice index     =            0
     lattice parameter (alat)  =       8.7475  a.u.
     unit-cell volume          =     669.3575 (a.u.)^3
     number of atoms/cell      =            8
     number of atomic types    =            2
     number of electrons       =        72.00
     number of Kohn-Sham states=           86
     kinetic-energy cutoff     =      90.0000  Ry
     charge density cutoff     =     900.0000  Ry
     scf convergence threshold =      1.0E-06
     mixing beta               =       0.7000
     number of iterations used =            8  plain     mixing
     Exchange-correlation= SLA  PW   PBX  PBC
                           (   1   4   3   4   0   0   0)
     Non magnetic calculation with spin-orbit


     celldm(1)=   8.747542  celldm(2)=   0.000000  celldm(3)=   0.000000
     celldm(4)=   0.000000  celldm(5)=   0.000000  celldm(6)=   0.000000

     crystal axes: (cart. coord. in units of alat)
               a(1) = (   1.000000   0.000000   0.000000 )  
               a(2) = (   0.000000   1.000000   0.000000 )  
               a(3) = (   0.000000   0.000000   1.000000 )  

     reciprocal axes: (cart. coord. in units 2 pi/alat)
               b(1) = (  1.000000  0.000000  0.000000 )  
               b(2) = (  0.000000  1.000000  0.000000 )  
               b(3) = (  0.000000  0.000000  1.000000 )  


     PseudoPot. # 1 for Cr read from file:
     ../../../../pseudo/Cr.rel-pbe-spn-kjpaw_psl.1.0.0.UPF
     MD5 check sum: 1e24e2b5251376a8b945118fca0c7981
     Pseudo is Projector augmented-wave + core cor, Zval = 14.0
     Generated using &quot;atomic&quot; code by A. Dal Corso  v.6.3
     Shape of augmentation charge: PSQ
     Using radial grid of 1183 points, 10 beta functions with: 
                l(1) =   0
                l(2) =   0
                l(3) =   1
                l(4) =   1
                l(5) =   1
                l(6) =   1
                l(7) =   2
                l(8) =   2
                l(9) =   2
               l(10) =   2
     Q(r) pseudized with 0 coefficients 


     PseudoPot. # 2 for Si read from file:
     ../../../../pseudo/Si.rel-pbe-n-kjpaw_psl.1.0.0.UPF
     MD5 check sum: d74f6caf6830ea4c2076867160cab1b0
     Pseudo is Projector augmented-wave + core cor, Zval =  4.0
     Generated using &quot;atomic&quot; code by A. Dal Corso  v.6.3
     Shape of augmentation charge: PSQ
     Using radial grid of 1141 points, 10 beta functions with: 
                l(1) =   0
                l(2) =   0
                l(3) =   1
                l(4) =   1
                l(5) =   1
                l(6) =   1
                l(7) =   2
                l(8) =   2
                l(9) =   2
               l(10) =   2
     Q(r) pseudized with 0 coefficients 


     atomic species   valence    mass     pseudopotential
        Cr            14.00    51.99600     Cr( 1.00)
        Si             4.00    28.08500     Si( 1.00)

     12 Sym. Ops. (no inversion) found ( 9 have fractional translation)


                                    s                        frac. trans.

      isym =  1     identity                                     

 cryst.   s( 1) = (     1          0          0      )
                  (     0          1          0      )
                  (     0          0          1      )

 cart.    s( 1) = (  1.0000000  0.0000000  0.0000000 )
                  (  0.0000000  1.0000000  0.0000000 )
                  (  0.0000000  0.0000000  1.0000000 )


      isym =  2     180 deg rotation - cart. axis [0,0,1]        

 cryst.   s( 2) = (    -1          0          0      )    f =(  0.5000000 )
                  (     0         -1          0      )       (  0.0000000 )
                  (     0          0          1      )       ( -0.5000000 )

 cart.    s( 2) = ( -1.0000000  0.0000000  0.0000000 )    f =(  0.5000000 )
                  (  0.0000000 -1.0000000  0.0000000 )       (  0.0000000 )
                  (  0.0000000  0.0000000  1.0000000 )       ( -0.5000000 )


      isym =  3     180 deg rotation - cart. axis [0,1,0]        

 cryst.   s( 3) = (    -1          0          0      )    f =(  0.0000000 )
                  (     0          1          0      )       ( -0.5000000 )
                  (     0          0         -1      )       (  0.5000000 )

 cart.    s( 3) = ( -1.0000000  0.0000000  0.0000000 )    f =(  0.0000000 )
                  (  0.0000000  1.0000000  0.0000000 )       ( -0.5000000 )
                  (  0.0000000  0.0000000 -1.0000000 )       (  0.5000000 )


      isym =  4     180 deg rotation - cart. axis [1,0,0]        

 cryst.   s( 4) = (     1          0          0      )    f =(  0.5000000 )
                  (     0         -1          0      )       (  0.5000000 )
                  (     0          0         -1      )       (  0.0000000 )

 cart.    s( 4) = (  1.0000000  0.0000000  0.0000000 )    f =(  0.5000000 )
                  (  0.0000000 -1.0000000  0.0000000 )       (  0.5000000 )
                  (  0.0000000  0.0000000 -1.0000000 )       (  0.0000000 )


      isym =  5     120 deg rotation - cart. axis [-1,-1,-1]     

 cryst.   s( 5) = (     0          0          1      )
                  (     1          0          0      )
                  (     0          1          0      )

 cart.    s( 5) = (  0.0000000  1.0000000  0.0000000 )
                  (  0.0000000  0.0000000  1.0000000 )
                  (  1.0000000  0.0000000  0.0000000 )


      isym =  6     120 deg rotation - cart. axis [-1,1,1]       

 cryst.   s( 6) = (     0          0         -1      )    f =(  0.0000000 )
                  (    -1          0          0      )       ( -0.5000000 )
                  (     0          1          0      )       (  0.5000000 )

 cart.    s( 6) = (  0.0000000 -1.0000000  0.0000000 )    f =(  0.0000000 )
                  (  0.0000000  0.0000000  1.0000000 )       ( -0.5000000 )
                  ( -1.0000000  0.0000000  0.0000000 )       (  0.5000000 )


      isym =  7     120 deg rotation - cart. axis [1,1,-1]       

 cryst.   s( 7) = (     0          0         -1      )    f =(  0.5000000 )
                  (     1          0          0      )       (  0.5000000 )
                  (     0         -1          0      )       (  0.0000000 )

 cart.    s( 7) = (  0.0000000  1.0000000  0.0000000 )    f =(  0.5000000 )
                  (  0.0000000  0.0000000 -1.0000000 )       (  0.5000000 )
                  ( -1.0000000  0.0000000  0.0000000 )       (  0.0000000 )


      isym =  8     120 deg rotation - cart. axis [1,-1,1]       

 cryst.   s( 8) = (     0          0          1      )    f =(  0.5000000 )
                  (    -1          0          0      )       (  0.0000000 )
                  (     0         -1          0      )       ( -0.5000000 )

 cart.    s( 8) = (  0.0000000 -1.0000000  0.0000000 )    f =(  0.5000000 )
                  (  0.0000000  0.0000000 -1.0000000 )       (  0.0000000 )
                  (  1.0000000  0.0000000  0.0000000 )       ( -0.5000000 )


      isym =  9     120 deg rotation - cart. axis [1,1,1]        

 cryst.   s( 9) = (     0          1          0      )
                  (     0          0          1      )
                  (     1          0          0      )

 cart.    s( 9) = (  0.0000000  0.0000000  1.0000000 )
                  (  1.0000000  0.0000000  0.0000000 )
                  (  0.0000000  1.0000000  0.0000000 )


      isym = 10     120 deg rotation - cart. axis [-1,1,-1]      

 cryst.   s(10) = (     0         -1          0      )    f =(  0.5000000 )
                  (     0          0         -1      )       (  0.5000000 )
                  (     1          0          0      )       (  0.0000000 )

 cart.    s(10) = (  0.0000000  0.0000000  1.0000000 )    f =(  0.5000000 )
                  ( -1.0000000  0.0000000  0.0000000 )       (  0.5000000 )
                  (  0.0000000 -1.0000000  0.0000000 )       (  0.0000000 )


      isym = 11     120 deg rotation - cart. axis [1,-1,-1]      

 cryst.   s(11) = (     0         -1          0      )    f =(  0.5000000 )
                  (     0          0          1      )       (  0.0000000 )
                  (    -1          0          0      )       ( -0.5000000 )

 cart.    s(11) = (  0.0000000  0.0000000 -1.0000000 )    f =(  0.5000000 )
                  ( -1.0000000  0.0000000  0.0000000 )       (  0.0000000 )
                  (  0.0000000  1.0000000  0.0000000 )       ( -0.5000000 )


      isym = 12     120 deg rotation - cart. axis [-1,-1,1]      

 cryst.   s(12) = (     0          1          0      )    f =(  0.0000000 )
                  (     0          0         -1      )       ( -0.5000000 )
                  (    -1          0          0      )       (  0.5000000 )

 cart.    s(12) = (  0.0000000  0.0000000 -1.0000000 )    f =(  0.0000000 )
                  (  1.0000000  0.0000000  0.0000000 )       ( -0.5000000 )
                  (  0.0000000 -1.0000000  0.0000000 )       (  0.5000000 )


   Cartesian axes

     site n.     atom                  positions (alat units)
         1           Cr  tau(   1) = (   0.8640000   0.3640000   0.1360000  )
         2           Cr  tau(   2) = (   0.3640000   0.1360000   0.8640000  )
         3           Cr  tau(   3) = (   0.1360000   0.8640000   0.3640000  )
         4           Cr  tau(   4) = (   0.6360000   0.6360000   0.6360000  )
         5           Si  tau(   5) = (   0.1540000   0.6540000   0.8460000  )
         6           Si  tau(   6) = (   0.6540000   0.8460000   0.1540000  )
         7           Si  tau(   7) = (   0.8460000   0.1540000   0.6540000  )
         8           Si  tau(   8) = (   0.3460000   0.3460000   0.3460000  )

   Crystallographic axes

     site n.     atom                  positions (cryst. coord.)
         1           Cr  tau(   1) = (  0.8640000  0.3640000  0.1360000  )
         2           Cr  tau(   2) = (  0.3640000  0.1360000  0.8640000  )
         3           Cr  tau(   3) = (  0.1360000  0.8640000  0.3640000  )
         4           Cr  tau(   4) = (  0.6360000  0.6360000  0.6360000  )
         5           Si  tau(   5) = (  0.1540000  0.6540000  0.8460000  )
         6           Si  tau(   6) = (  0.6540000  0.8460000  0.1540000  )
         7           Si  tau(   7) = (  0.8460000  0.1540000  0.6540000  )
         8           Si  tau(   8) = (  0.3460000  0.3460000  0.3460000  )

     number of k points=    76  Methfessel-Paxton smearing, width (Ry)=  0.0100
                       cart. coord. in units 2pi/alat
        k(    1) = (   0.0000000   0.0000000   0.0000000), wk =   0.0010000
        k(    2) = (   0.0000000   0.0000000   0.1000000), wk =   0.0060000
        k(    3) = (   0.0000000   0.0000000   0.2000000), wk =   0.0060000
        k(    4) = (   0.0000000   0.0000000   0.3000000), wk =   0.0060000
        k(    5) = (   0.0000000   0.0000000   0.4000000), wk =   0.0060000
        k(    6) = (   0.0000000   0.0000000  -0.5000000), wk =   0.0030000
        k(    7) = (   0.0000000   0.1000000   0.1000000), wk =   0.0120000
        k(    8) = (   0.0000000   0.1000000   0.2000000), wk =   0.0120000
        k(    9) = (   0.0000000   0.1000000   0.3000000), wk =   0.0120000
        k(   10) = (   0.0000000   0.1000000   0.4000000), wk =   0.0120000
        k(   11) = (   0.0000000   0.1000000  -0.5000000), wk =   0.0060000
        k(   12) = (   0.0000000   0.2000000   0.2000000), wk =   0.0120000
        k(   13) = (   0.0000000   0.2000000   0.3000000), wk =   0.0120000
        k(   14) = (   0.0000000   0.2000000   0.4000000), wk =   0.0120000
        k(   15) = (   0.0000000   0.2000000  -0.5000000), wk =   0.0060000
        k(   16) = (   0.0000000   0.3000000   0.3000000), wk =   0.0120000
        k(   17) = (   0.0000000   0.3000000   0.4000000), wk =   0.0120000
        k(   18) = (   0.0000000   0.3000000  -0.5000000), wk =   0.0060000
        k(   19) = (   0.0000000   0.4000000   0.4000000), wk =   0.0120000
        k(   20) = (   0.0000000   0.4000000  -0.5000000), wk =   0.0060000
        k(   21) = (   0.0000000  -0.5000000  -0.5000000), wk =   0.0030000
        k(   22) = (   0.1000000   0.1000000   0.1000000), wk =   0.0080000
        k(   23) = (   0.1000000   0.1000000   0.2000000), wk =   0.0240000
        k(   24) = (   0.1000000   0.1000000   0.3000000), wk =   0.0240000
        k(   25) = (   0.1000000   0.1000000   0.4000000), wk =   0.0240000
        k(   26) = (   0.1000000   0.1000000  -0.5000000), wk =   0.0120000
        k(   27) = (   0.1000000   0.2000000   0.2000000), wk =   0.0240000
        k(   28) = (   0.1000000   0.2000000   0.3000000), wk =   0.0240000
        k(   29) = (   0.1000000   0.2000000   0.4000000), wk =   0.0240000
        k(   30) = (   0.1000000   0.2000000  -0.5000000), wk =   0.0120000
        k(   31) = (   0.1000000   0.3000000   0.3000000), wk =   0.0240000
        k(   32) = (   0.1000000   0.3000000   0.4000000), wk =   0.0240000
        k(   33) = (   0.1000000   0.3000000  -0.5000000), wk =   0.0120000
        k(   34) = (   0.1000000   0.4000000   0.4000000), wk =   0.0240000
        k(   35) = (   0.1000000   0.4000000  -0.5000000), wk =   0.0120000
        k(   36) = (   0.1000000  -0.5000000  -0.5000000), wk =   0.0060000
        k(   37) = (   0.2000000   0.2000000   0.2000000), wk =   0.0080000
        k(   38) = (   0.2000000   0.2000000   0.3000000), wk =   0.0240000
        k(   39) = (   0.2000000   0.2000000   0.4000000), wk =   0.0240000
        k(   40) = (   0.2000000   0.2000000  -0.5000000), wk =   0.0120000
        k(   41) = (   0.2000000   0.3000000   0.3000000), wk =   0.0240000
        k(   42) = (   0.2000000   0.3000000   0.4000000), wk =   0.0240000
        k(   43) = (   0.2000000   0.3000000  -0.5000000), wk =   0.0120000
        k(   44) = (   0.2000000   0.4000000   0.4000000), wk =   0.0240000
        k(   45) = (   0.2000000   0.4000000  -0.5000000), wk =   0.0120000
        k(   46) = (   0.2000000  -0.5000000  -0.5000000), wk =   0.0060000
        k(   47) = (   0.3000000   0.3000000   0.3000000), wk =   0.0080000
        k(   48) = (   0.3000000   0.3000000   0.4000000), wk =   0.0240000
        k(   49) = (   0.3000000   0.3000000  -0.5000000), wk =   0.0120000
        k(   50) = (   0.3000000   0.4000000   0.4000000), wk =   0.0240000
        k(   51) = (   0.3000000   0.4000000  -0.5000000), wk =   0.0120000
        k(   52) = (   0.3000000  -0.5000000  -0.5000000), wk =   0.0060000
        k(   53) = (   0.4000000   0.4000000   0.4000000), wk =   0.0080000
        k(   54) = (   0.4000000   0.4000000  -0.5000000), wk =   0.0120000
        k(   55) = (   0.4000000  -0.5000000  -0.5000000), wk =   0.0060000
        k(   56) = (  -0.5000000  -0.5000000  -0.5000000), wk =   0.0010000
        k(   57) = (   0.0000000   0.2000000   0.1000000), wk =   0.0120000
        k(   58) = (   0.0000000   0.3000000   0.1000000), wk =   0.0120000
        k(   59) = (   0.0000000   0.4000000   0.1000000), wk =   0.0120000
        k(   60) = (   0.0000000  -0.5000000   0.1000000), wk =   0.0060000
        k(   61) = (   0.0000000   0.3000000   0.2000000), wk =   0.0120000
        k(   62) = (   0.0000000   0.4000000   0.2000000), wk =   0.0120000
        k(   63) = (   0.0000000  -0.5000000   0.2000000), wk =   0.0060000
        k(   64) = (   0.0000000   0.4000000   0.3000000), wk =   0.0120000
        k(   65) = (   0.0000000  -0.5000000   0.3000000), wk =   0.0060000
        k(   66) = (   0.0000000  -0.5000000   0.4000000), wk =   0.0060000
        k(   67) = (  -0.1000000   0.3000000   0.2000000), wk =   0.0240000
        k(   68) = (  -0.1000000   0.4000000   0.2000000), wk =   0.0240000
        k(   69) = (  -0.1000000  -0.5000000   0.2000000), wk =   0.0120000
        k(   70) = (  -0.1000000   0.4000000   0.3000000), wk =   0.0240000
        k(   71) = (  -0.1000000  -0.5000000   0.3000000), wk =   0.0120000
        k(   72) = (  -0.1000000  -0.5000000   0.4000000), wk =   0.0120000
        k(   73) = (  -0.2000000   0.4000000   0.3000000), wk =   0.0240000
        k(   74) = (  -0.2000000  -0.5000000   0.3000000), wk =   0.0120000
        k(   75) = (  -0.2000000  -0.5000000   0.4000000), wk =   0.0120000
        k(   76) = (  -0.3000000  -0.5000000   0.4000000), wk =   0.0120000

                       cryst. coord.
        k(    1) = (   0.0000000   0.0000000   0.0000000), wk =   0.0010000
        k(    2) = (   0.0000000   0.0000000   0.1000000), wk =   0.0060000
        k(    3) = (   0.0000000   0.0000000   0.2000000), wk =   0.0060000
        k(    4) = (   0.0000000   0.0000000   0.3000000), wk =   0.0060000
        k(    5) = (   0.0000000   0.0000000   0.4000000), wk =   0.0060000
        k(    6) = (   0.0000000   0.0000000  -0.5000000), wk =   0.0030000
        k(    7) = (   0.0000000   0.1000000   0.1000000), wk =   0.0120000
        k(    8) = (   0.0000000   0.1000000   0.2000000), wk =   0.0120000
        k(    9) = (   0.0000000   0.1000000   0.3000000), wk =   0.0120000
        k(   10) = (   0.0000000   0.1000000   0.4000000), wk =   0.0120000
        k(   11) = (   0.0000000   0.1000000  -0.5000000), wk =   0.0060000
        k(   12) = (   0.0000000   0.2000000   0.2000000), wk =   0.0120000
        k(   13) = (   0.0000000   0.2000000   0.3000000), wk =   0.0120000
        k(   14) = (   0.0000000   0.2000000   0.4000000), wk =   0.0120000
        k(   15) = (   0.0000000   0.2000000  -0.5000000), wk =   0.0060000
        k(   16) = (   0.0000000   0.3000000   0.3000000), wk =   0.0120000
        k(   17) = (   0.0000000   0.3000000   0.4000000), wk =   0.0120000
        k(   18) = (   0.0000000   0.3000000  -0.5000000), wk =   0.0060000
        k(   19) = (   0.0000000   0.4000000   0.4000000), wk =   0.0120000
        k(   20) = (   0.0000000   0.4000000  -0.5000000), wk =   0.0060000
        k(   21) = (   0.0000000  -0.5000000  -0.5000000), wk =   0.0030000
        k(   22) = (   0.1000000   0.1000000   0.1000000), wk =   0.0080000
        k(   23) = (   0.1000000   0.1000000   0.2000000), wk =   0.0240000
        k(   24) = (   0.1000000   0.1000000   0.3000000), wk =   0.0240000
        k(   25) = (   0.1000000   0.1000000   0.4000000), wk =   0.0240000
        k(   26) = (   0.1000000   0.1000000  -0.5000000), wk =   0.0120000
        k(   27) = (   0.1000000   0.2000000   0.2000000), wk =   0.0240000
        k(   28) = (   0.1000000   0.2000000   0.3000000), wk =   0.0240000
        k(   29) = (   0.1000000   0.2000000   0.4000000), wk =   0.0240000
        k(   30) = (   0.1000000   0.2000000  -0.5000000), wk =   0.0120000
        k(   31) = (   0.1000000   0.3000000   0.3000000), wk =   0.0240000
        k(   32) = (   0.1000000   0.3000000   0.4000000), wk =   0.0240000
        k(   33) = (   0.1000000   0.3000000  -0.5000000), wk =   0.0120000
        k(   34) = (   0.1000000   0.4000000   0.4000000), wk =   0.0240000
        k(   35) = (   0.1000000   0.4000000  -0.5000000), wk =   0.0120000
        k(   36) = (   0.1000000  -0.5000000  -0.5000000), wk =   0.0060000
        k(   37) = (   0.2000000   0.2000000   0.2000000), wk =   0.0080000
        k(   38) = (   0.2000000   0.2000000   0.3000000), wk =   0.0240000
        k(   39) = (   0.2000000   0.2000000   0.4000000), wk =   0.0240000
        k(   40) = (   0.2000000   0.2000000  -0.5000000), wk =   0.0120000
        k(   41) = (   0.2000000   0.3000000   0.3000000), wk =   0.0240000
        k(   42) = (   0.2000000   0.3000000   0.4000000), wk =   0.0240000
        k(   43) = (   0.2000000   0.3000000  -0.5000000), wk =   0.0120000
        k(   44) = (   0.2000000   0.4000000   0.4000000), wk =   0.0240000
        k(   45) = (   0.2000000   0.4000000  -0.5000000), wk =   0.0120000
        k(   46) = (   0.2000000  -0.5000000  -0.5000000), wk =   0.0060000
        k(   47) = (   0.3000000   0.3000000   0.3000000), wk =   0.0080000
        k(   48) = (   0.3000000   0.3000000   0.4000000), wk =   0.0240000
        k(   49) = (   0.3000000   0.3000000  -0.5000000), wk =   0.0120000
        k(   50) = (   0.3000000   0.4000000   0.4000000), wk =   0.0240000
        k(   51) = (   0.3000000   0.4000000  -0.5000000), wk =   0.0120000
        k(   52) = (   0.3000000  -0.5000000  -0.5000000), wk =   0.0060000
        k(   53) = (   0.4000000   0.4000000   0.4000000), wk =   0.0080000
        k(   54) = (   0.4000000   0.4000000  -0.5000000), wk =   0.0120000
        k(   55) = (   0.4000000  -0.5000000  -0.5000000), wk =   0.0060000
        k(   56) = (  -0.5000000  -0.5000000  -0.5000000), wk =   0.0010000
        k(   57) = (   0.0000000   0.2000000   0.1000000), wk =   0.0120000
        k(   58) = (   0.0000000   0.3000000   0.1000000), wk =   0.0120000
        k(   59) = (   0.0000000   0.4000000   0.1000000), wk =   0.0120000
        k(   60) = (   0.0000000  -0.5000000   0.1000000), wk =   0.0060000
        k(   61) = (   0.0000000   0.3000000   0.2000000), wk =   0.0120000
        k(   62) = (   0.0000000   0.4000000   0.2000000), wk =   0.0120000
        k(   63) = (   0.0000000  -0.5000000   0.2000000), wk =   0.0060000
        k(   64) = (   0.0000000   0.4000000   0.3000000), wk =   0.0120000
        k(   65) = (   0.0000000  -0.5000000   0.3000000), wk =   0.0060000
        k(   66) = (   0.0000000  -0.5000000   0.4000000), wk =   0.0060000
        k(   67) = (  -0.1000000   0.3000000   0.2000000), wk =   0.0240000
        k(   68) = (  -0.1000000   0.4000000   0.2000000), wk =   0.0240000
        k(   69) = (  -0.1000000  -0.5000000   0.2000000), wk =   0.0120000
        k(   70) = (  -0.1000000   0.4000000   0.3000000), wk =   0.0240000
        k(   71) = (  -0.1000000  -0.5000000   0.3000000), wk =   0.0120000
        k(   72) = (  -0.1000000  -0.5000000   0.4000000), wk =   0.0120000
        k(   73) = (  -0.2000000   0.4000000   0.3000000), wk =   0.0240000
        k(   74) = (  -0.2000000  -0.5000000   0.3000000), wk =   0.0120000
        k(   75) = (  -0.2000000  -0.5000000   0.4000000), wk =   0.0120000
        k(   76) = (  -0.3000000  -0.5000000   0.4000000), wk =   0.0120000

     Dense  grid:   304867 G-vectors     FFT dimensions: (  90,  90,  90)

     Smooth grid:    77053 G-vectors     FFT dimensions: (  54,  54,  54)

     Dynamical RAM for                 wfc:       1.06 MB

     Dynamical RAM for     wfc (w. buffer):      81.24 MB

     Dynamical RAM for           str. fact:       0.39 MB

     Dynamical RAM for           local pot:       0.00 MB

     Dynamical RAM for          nlocal pot:       1.67 MB

     Dynamical RAM for                qrad:      12.61 MB

     Dynamical RAM for          rho,v,vnew:       5.29 MB

     Dynamical RAM for               rhoin:       1.76 MB

     Dynamical RAM for            rho*nmix:      12.41 MB

     Dynamical RAM for           G-vectors:       0.75 MB

     Dynamical RAM for          h,s,v(r/c):       1.35 MB

     Dynamical RAM for          <psi|beta>:       0.71 MB

     Dynamical RAM for                 psi:       2.11 MB

     Dynamical RAM for                hpsi:       2.11 MB

     Dynamical RAM for                spsi:       2.11 MB

     Dynamical RAM for      wfcinit/wfcrot:       2.35 MB

     Dynamical RAM for           addusdens:     119.02 MB

     Dynamical RAM for          addusforce:     120.34 MB

     Dynamical RAM for         addusstress:     121.74 MB

     Estimated static dynamical RAM per process >     118.67 MB

     Estimated max dynamical RAM per process >     240.41 MB

     Estimated total dynamical RAM >       5.63 GB

     Initial potential from superposition of free atoms

     starting charge   71.99469, renormalised to   72.00000
     Starting wfcs are  112 randomized atomic wfcs
     Checking if some PAW data can be deallocated... 
       PAW data deallocated on   12 nodes for type:  1
       PAW data deallocated on   12 nodes for type:  2

     total cpu time spent up to now is       17.1 secs

     Self-consistent Calculation

     iteration #  1     ecut=    90.00 Ry     beta= 0.70
     Davidson diagonalization with overlap
     ethr =  1.00E-02,  avg # of iterations =  2.0

     Threshold (ethr) on eigenvalues was too large:
     Diagonalizing with lowered threshold

     Davidson diagonalization with overlap
     ethr =  2.09E-04,  avg # of iterations =  4.3

     total cpu time spent up to now is      104.2 secs

     total energy              =   -1180.30961898 Ry
     estimated scf accuracy    <       0.18930252 Ry

     iteration #  2     ecut=    90.00 Ry     beta= 0.70
     Davidson diagonalization with overlap
     ethr =  2.63E-04,  avg # of iterations =  3.2

     total cpu time spent up to now is      148.3 secs

     total energy              =   -1180.31425280 Ry
     estimated scf accuracy    <       0.08156352 Ry

     iteration #  3     ecut=    90.00 Ry     beta= 0.70
     Davidson diagonalization with overlap
     ethr =  1.13E-04,  avg # of iterations =  5.1

     total cpu time spent up to now is      202.2 secs

     total energy              =   -1180.32568393 Ry
     estimated scf accuracy    <       0.16411935 Ry

     iteration #  4     ecut=    90.00 Ry     beta= 0.70
     Davidson diagonalization with overlap
     ethr =  1.13E-04,  avg # of iterations =  4.0

     total cpu time spent up to now is      245.5 secs

     total energy              =   -1180.34964572 Ry
     estimated scf accuracy    <       0.00028576 Ry

     iteration #  5     ecut=    90.00 Ry     beta= 0.70
     Davidson diagonalization with overlap
     ethr =  3.97E-07,  avg # of iterations =  8.4

     total cpu time spent up to now is      313.6 secs

     total energy              =   -1180.35028108 Ry
     estimated scf accuracy    <       0.00034635 Ry

     iteration #  6     ecut=    90.00 Ry     beta= 0.70
     Davidson diagonalization with overlap
     ethr =  3.97E-07,  avg # of iterations =  3.1

     total cpu time spent up to now is      352.4 secs

     total energy              =   -1180.35033416 Ry
     estimated scf accuracy    <       0.00000418 Ry

     iteration #  7     ecut=    90.00 Ry     beta= 0.70
     Davidson diagonalization with overlap
     ethr =  5.80E-09,  avg # of iterations =  6.1

     total cpu time spent up to now is      410.3 secs

     total energy              =   -1180.35033731 Ry
     estimated scf accuracy    <       0.00003153 Ry

     iteration #  8     ecut=    90.00 Ry     beta= 0.70
     Davidson diagonalization with overlap
     ethr =  5.80E-09,  avg # of iterations =  5.1

     total cpu time spent up to now is      465.8 secs

     End of self-consistent calculation

          k = 0.0000 0.0000 0.0000 (  9771 PWs)   bands (ev):

   -56.5158 -56.5158 -56.4811 -56.4811 -56.4811 -56.4811 -56.4811 -56.4811
   -28.5816 -28.5816 -28.5737 -28.5737 -28.5737 -28.5737 -28.4844 -28.4844
   -27.6171 -27.6171 -27.6171 -27.6171 -27.5399 -27.5399 -27.5399 -27.5399
   -27.5319 -27.5319 -27.4505 -27.4505 -27.4505 -27.4505 -27.4491 -27.4491
     2.6988   2.6988   7.4571   7.4571   7.4571   7.4571   7.4662   7.4662
    10.5369  10.5369  10.5448  10.5448  10.5448  10.5448  11.9121  11.9121
    11.9121  11.9121  11.9232  11.9232  12.6033  12.6033  12.7722  12.7722
    12.7722  12.7722  13.1427  13.1427  13.1427  13.1427  13.1439  13.1439
    13.6708  13.6708  13.6708  13.6708  13.6747  13.6747  15.5514  15.5514
    15.5828  15.5828  15.5828  15.5828  15.7641  15.7641  15.7641  15.7641
    16.6660  16.6660  16.6963  16.6963  16.6963  16.6963

     occupation numbers 
     1.0000   1.0000   1.0000   1.0000   1.0000   1.0000   1.0000   1.0000
     1.0000   1.0000   1.0000   1.0000   1.0000   1.0000   1.0000   1.0000
     1.0000   1.0000   1.0000   1.0000   1.0000   1.0000   1.0000   1.0000
     1.0000   1.0000   1.0000   1.0000   1.0000   1.0000   1.0000   1.0000
     1.0000   1.0000   1.0000   1.0000   1.0000   1.0000   1.0000   1.0000
     1.0000   1.0000   1.0000   1.0000   1.0000   1.0000   1.0000   1.0000
     1.0000   1.0000   1.0000   1.0000   1.0000   1.0000   1.0000   1.0000
     1.0000   1.0000   1.0000   1.0000   1.0000   1.0000   1.0000   1.0000
     1.0000   1.0000   1.0000   1.0000   1.0000   1.0000  -0.0000  -0.0000
    -0.0000  -0.0000  -0.0000  -0.0000  -0.0000  -0.0000  -0.0000  -0.0000
    -0.0000  -0.0000  -0.0000  -0.0000  -0.0000  -0.0000

          k = 0.0000 0.0000 0.1000 (  9695 PWs)   bands (ev):

   -56.5151 -56.5151 -56.4842 -56.4842 -56.4809 -56.4809 -56.4788 -56.4788
   -28.5867 -28.5793 -28.5778 -28.5762 -28.5690 -28.5661 -28.4863 -28.4862
   -27.6281 -27.6227 -27.6097 -27.6044 -27.5468 -27.5446 -27.5384 -27.5354
   -27.5342 -27.5222 -27.4560 -27.4549 -27.4527 -27.4487 -27.4481 -27.4442
     2.7683   2.7683   6.9408   6.9445   7.4973   7.4984   7.8791   7.8874
    10.1584  10.1640  10.5885  10.5898  10.9493  10.9523  11.4184  11.4195
    11.7330  11.7363  12.4396  12.4551  12.5675  12.5717  12.7703  12.7779
    12.8728  12.8733  13.1169  13.1186  13.1673  13.1676  13.1947  13.1952
    13.5348  13.5410  13.6606  13.6616  13.8554  13.8560  15.4466  15.4686
    15.4702  15.4752  15.7033  15.7187  15.7364  15.7508  15.7547  15.7678
    16.5150  16.5332  16.6530  16.6559  16.8463  16.8666

     occupation numbers 
     1.0000   1.0000   1.0000   1.0000   1.0000   1.0000   1.0000   1.0000
     1.0000   1.0000   1.0000   1.0000   1.0000   1.0000   1.0000   1.0000
     1.0000   1.0000   1.0000   1.0000   1.0000   1.0000   1.0000   1.0000
     1.0000   1.0000   1.0000   1.0000   1.0000   1.0000   1.0000   1.0000
     1.0000   1.0000   1.0000   1.0000   1.0000   1.0000   1.0000   1.0000
     1.0000   1.0000   1.0000   1.0000   1.0000   1.0000   1.0000   1.0000
     1.0000   1.0000   1.0000   1.0000   1.0000   1.0000   1.0000   1.0000
     1.0000   1.0000   1.0000   1.0000   1.0000   1.0000   1.0000   1.0000
     1.0000   1.0000   1.0000   1.0000   1.0000   1.0000  -0.0000  -0.0000
    -0.0000  -0.0000  -0.0000  -0.0000  -0.0000  -0.0000  -0.0000  -0.0000
    -0.0000  -0.0000  -0.0000  -0.0000  -0.0000  -0.0000

          k = 0.0000 0.0000 0.2000 (  9663 PWs)   bands (ev):

   -56.5133 -56.5133 -56.4881 -56.4881 -56.4803 -56.4803 -56.4774 -56.4774
   -28.5903 -28.5829 -28.5792 -28.5777 -28.5599 -28.5566 -28.4916 -28.4915
   -27.6362 -27.6276 -27.6001 -27.5922 -27.5543 -27.5472 -27.5394 -27.5338
   -27.5306 -27.5111 -27.4639 -27.4600 -27.4568 -27.4490 -27.4473 -27.4410
     2.9746   2.9746   6.3260   6.3280   7.6081   7.6105   8.2282   8.2379
     9.8574   9.8606  10.7051  10.7085  10.9857  10.9914  11.3749  11.3809
    11.3908  11.3910  12.3762  12.3888  12.8262  12.8325  12.8460  12.8705
    13.0742  13.0797  13.1043  13.1072  13.2168  13.2205  13.2374  13.2375
    13.5731  13.5843  13.6065  13.6103  14.0035  14.0043  15.2040  15.2280
    15.3995  15.4041  15.6625  15.6747  15.7420  15.7629  15.8240  15.8487
    16.3561  16.3709  16.5586  16.5680  17.0733  17.0939

     occupation numbers 
     1.0000   1.0000   1.0000   1.0000   1.0000   1.0000   1.0000   1.0000
     1.0000   1.0000   1.0000   1.0000   1.0000   1.0000   1.0000   1.0000
     1.0000   1.0000   1.0000   1.0000   1.0000   1.0000   1.0000   1.0000
     1.0000   1.0000   1.0000   1.0000   1.0000   1.0000   1.0000   1.0000
     1.0000   1.0000   1.0000   1.0000   1.0000   1.0000   1.0000   1.0000
     1.0000   1.0000   1.0000   1.0000   1.0000   1.0000   1.0000   1.0000
     1.0000   1.0000   1.0000   1.0000   1.0000   1.0000   1.0000   1.0000
     1.0000   1.0000   1.0000   1.0000   1.0000   1.0000   1.0000   1.0000
     1.0000   1.0000   1.0000   1.0000   1.0000   1.0000  -0.0129  -0.0076
    -0.0000  -0.0000  -0.0000  -0.0000  -0.0000  -0.0000  -0.0000  -0.0000
    -0.0000  -0.0000  -0.0000  -0.0000  -0.0000  -0.0000

          k = 0.0000 0.0000 0.3000 (  9638 PWs)   bands (ev):

   -56.5103 -56.5103 -56.4925 -56.4925 -56.4794 -56.4794 -56.4768 -56.4768
   -28.5918 -28.5846 -28.5827 -28.5792 -28.5486 -28.5457 -28.5001 -28.4996
   -27.6409 -27.6324 -27.5886 -27.5828 -27.5616 -27.5465 -27.5376 -27.5329
   -27.5300 -27.4994 -27.4750 -27.4624 -27.4619 -27.4506 -27.4466 -27.4400
     3.3116   3.3117   5.6498   5.6507   7.7872   7.7908   8.4735   8.4835
     9.6691   9.6696  10.7385  10.7436  10.7934  10.8047  11.0723  11.0789
    11.7458  11.7473  12.1736  12.1895  12.8831  12.9005  12.9088  12.9166
    13.1305  13.1360  13.1513  13.1573  13.2595  13.2617  13.3808  13.3813
    13.4576  13.4625  13.8461  13.8501  14.0773  14.0794  14.9574  14.9898
    15.3631  15.3686  15.5664  15.5837  15.7383  15.7653  15.8574  15.8812
    16.2267  16.2421  16.4215  16.4345  17.2686  17.2874

     occupation numbers 
     1.0000   1.0000   1.0000   1.0000   1.0000   1.0000   1.0000   1.0000
     1.0000   1.0000   1.0000   1.0000   1.0000   1.0000   1.0000   1.0000
     1.0000   1.0000   1.0000   1.0000   1.0000   1.0000   1.0000   1.0000
     1.0000   1.0000   1.0000   1.0000   1.0000   1.0000   1.0000   1.0000
     1.0000   1.0000   1.0000   1.0000   1.0000   1.0000   1.0000   1.0000
     1.0000   1.0000   1.0000   1.0000   1.0000   1.0000   1.0000   1.0000
     1.0000   1.0000   1.0000   1.0000   1.0000   1.0000   1.0000   1.0000
     1.0000   1.0000   1.0000   1.0000   1.0000   1.0000   1.0000   1.0000
     1.0000   1.0000   1.0000   1.0000   1.0000   1.0000   0.4766   0.2835
    -0.0001  -0.0001  -0.0000  -0.0000  -0.0000  -0.0000  -0.0000  -0.0000
    -0.0000  -0.0000  -0.0000  -0.0000  -0.0000  -0.0000

          k = 0.0000 0.0000 0.4000 (  9654 PWs)   bands (ev):

   -56.5064 -56.5064 -56.4972 -56.4972 -56.4784 -56.4784 -56.4769 -56.4769
   -28.5914 -28.5863 -28.5846 -28.5814 -28.5360 -28.5339 -28.5109 -28.5100
   -27.6422 -27.6370 -27.5791 -27.5731 -27.5680 -27.5469 -27.5428 -27.5326
   -27.5201 -27.4889 -27.4882 -27.4694 -27.4603 -27.4534 -27.4451 -27.4409
     3.7686   3.7687   4.9678   4.9682   8.0221   8.0270   8.4871   8.4954
     9.7179   9.7212  10.4135  10.4153  10.7856  10.7989  11.0146  11.0190
    12.0858  12.0880  12.1327  12.1464  12.7239  12.7391  12.9196  12.9323
    13.0709  13.0771  13.1909  13.1941  13.2341  13.2376  13.2950  13.2984
    13.5919  13.5930  13.9164  13.9206  14.2943  14.3112  14.7680  14.8027
    15.3597  15.3730  15.4735  15.4927  15.7610  15.7909  15.8398  15.8660
    16.1534  16.1689  16.2728  16.2867  17.3793  17.3871

     occupation numbers 
     1.0000   1.0000   1.0000   1.0000   1.0000   1.0000   1.0000   1.0000
     1.0000   1.0000   1.0000   1.0000   1.0000   1.0000   1.0000   1.0000
     1.0000   1.0000   1.0000   1.0000   1.0000   1.0000   1.0000   1.0000
     1.0000   1.0000   1.0000   1.0000   1.0000   1.0000   1.0000   1.0000
     1.0000   1.0000   1.0000   1.0000   1.0000   1.0000   1.0000   1.0000
     1.0000   1.0000   1.0000   1.0000   1.0000   1.0000   1.0000   1.0000
     1.0000   1.0000   1.0000   1.0000   1.0000   1.0000   1.0000   1.0000
     1.0000   1.0000   1.0000   1.0000   1.0000   1.0000   1.0000   1.0000
     1.0000   1.0000   1.0000   1.0000   1.0000   1.0000   1.0330   1.0331
    -0.0001  -0.0001  -0.0000  -0.0000  -0.0000  -0.0000  -0.0000  -0.0000
    -0.0000  -0.0000  -0.0000  -0.0000  -0.0000  -0.0000

          k = 0.0000 0.0000-0.5000 (  9658 PWs)   bands (ev):

   -56.5020 -56.5020 -56.5020 -56.5020 -56.4775 -56.4775 -56.4775 -56.4775
   -28.5894 -28.5894 -28.5834 -28.5834 -28.5232 -28.5232 -28.5217 -28.5217
   -27.6406 -27.6406 -27.5737 -27.5737 -27.5595 -27.5595 -27.5375 -27.5375
   -27.5045 -27.5045 -27.4781 -27.4781 -27.4570 -27.4570 -27.4429 -27.4429
     4.3288   4.3288   4.3290   4.3290   8.2826   8.2826   8.2891   8.2891
    10.0173  10.0173  10.0213  10.0213  10.8982  10.8982  10.9094  10.9094
    12.2474  12.2474  12.2539  12.2539  12.6847  12.6847  12.6972  12.6972
    13.1417  13.1417  13.1421  13.1421  13.2364  13.2364  13.2401  13.2401
    13.7826  13.7826  13.7857  13.7857  14.5659  14.5659  14.5944  14.5944
    15.4001  15.4001  15.4179  15.4179  15.8051  15.8051  15.8348  15.8348
    16.1660  16.1660  16.1797  16.1797  17.5423  17.5470

     occupation numbers 
     1.0000   1.0000   1.0000   1.0000   1.0000   1.0000   1.0000   1.0000
     1.0000   1.0000   1.0000   1.0000   1.0000   1.0000   1.0000   1.0000
     1.0000   1.0000   1.0000   1.0000   1.0000   1.0000   1.0000   1.0000
     1.0000   1.0000   1.0000   1.0000   1.0000   1.0000   1.0000   1.0000
     1.0000   1.0000   1.0000   1.0000   1.0000   1.0000   1.0000   1.0000
     1.0000   1.0000   1.0000   1.0000   1.0000   1.0000   1.0000   1.0000
     1.0000   1.0000   1.0000   1.0000   1.0000   1.0000   1.0000   1.0000
     1.0000   1.0000   1.0000   1.0000   1.0000   1.0000   1.0000   1.0000
     1.0000   1.0000   1.0000   1.0000   1.0002   1.0002   1.0006   1.0006
    -0.0000  -0.0000  -0.0000  -0.0000  -0.0000  -0.0000  -0.0000  -0.0000
    -0.0000  -0.0000  -0.0000  -0.0000  -0.0000  -0.0000

          k = 0.0000 0.1000 0.1000 (  9675 PWs)   bands (ev):

   -56.5145 -56.5145 -56.4854 -56.4854 -56.4811 -56.4811 -56.4780 -56.4780
   -28.5885 -28.5818 -28.5767 -28.5753 -28.5670 -28.5630 -28.4881 -28.4880
   -27.6300 -27.6267 -27.6041 -27.6006 -27.5495 -27.5450 -27.5406 -27.5387
   -27.5290 -27.5173 -27.4594 -27.4587 -27.4539 -27.4492 -27.4460 -27.4422
     2.8374   2.8374   6.8020   6.8072   7.3669   7.3703   8.0833   8.0894
    10.0374  10.0429  10.6306  10.6344  11.0123  11.0167  11.1731  11.1749
    11.8333  11.8346  12.4248  12.4395  12.5998  12.6062  12.8435  12.8518
    12.9296  12.9362  13.1404  13.1429  13.1604  13.1640  13.2334  13.2358
    13.4834  13.4886  13.6673  13.6763  13.9350  13.9389  15.3909  15.3998
    15.4507  15.4546  15.6572  15.6663  15.7362  15.7483  15.7739  15.7904
    16.4356  16.4543  16.6625  16.6681  16.8856  16.9122

     occupation numbers 
     1.0000   1.0000   1.0000   1.0000   1.0000   1.0000   1.0000   1.0000
     1.0000   1.0000   1.0000   1.0000   1.0000   1.0000   1.0000   1.0000
     1.0000   1.0000   1.0000   1.0000   1.0000   1.0000   1.0000   1.0000
     1.0000   1.0000   1.0000   1.0000   1.0000   1.0000   1.0000   1.0000
     1.0000   1.0000   1.0000   1.0000   1.0000   1.0000   1.0000   1.0000
     1.0000   1.0000   1.0000   1.0000   1.0000   1.0000   1.0000   1.0000
     1.0000   1.0000   1.0000   1.0000   1.0000   1.0000   1.0000   1.0000
     1.0000   1.0000   1.0000   1.0000   1.0000   1.0000   1.0000   1.0000
     1.0000   1.0000   1.0000   1.0000   1.0000   1.0000  -0.0000  -0.0000
    -0.0000  -0.0000  -0.0000  -0.0000  -0.0000  -0.0000  -0.0000  -0.0000
    -0.0000  -0.0000  -0.0000  -0.0000  -0.0000  -0.0000

          k = 0.0000 0.1000 0.2000 (  9636 PWs)   bands (ev):

   -56.5127 -56.5127 -56.4885 -56.4885 -56.4807 -56.4807 -56.4771 -56.4771
   -28.5909 -28.5844 -28.5773 -28.5766 -28.5593 -28.5557 -28.4933 -28.4932
   -27.6358 -27.6294 -27.5966 -27.5907 -27.5544 -27.5483 -27.5413 -27.5380
   -27.5257 -27.5076 -27.4680 -27.4632 -27.4567 -27.4510 -27.4441 -27.4392
     3.0427   3.0428   6.3258   6.3289   7.3970   7.3996   8.3525   8.3586
     9.8332   9.8364  10.6456  10.6485  10.7647  10.7687  11.4219  11.4235
    11.6075  11.6123  12.3954  12.4035  12.6325  12.6360  13.0051  13.0161
    13.0980  13.1045  13.1352  13.1365  13.2139  13.2167  13.3002  13.3025
    13.4894  13.4949  13.7056  13.7190  14.0454  14.0518  15.2132  15.2366
    15.3447  15.3582  15.5941  15.6092  15.7098  15.7278  15.8272  15.8509
    16.3031  16.3203  16.5833  16.5942  17.0598  17.0894

     occupation numbers 
     1.0000   1.0000   1.0000   1.0000   1.0000   1.0000   1.0000   1.0000
     1.0000   1.0000   1.0000   1.0000   1.0000   1.0000   1.0000   1.0000
     1.0000   1.0000   1.0000   1.0000   1.0000   1.0000   1.0000   1.0000
     1.0000   1.0000   1.0000   1.0000   1.0000   1.0000   1.0000   1.0000
     1.0000   1.0000   1.0000   1.0000   1.0000   1.0000   1.0000   1.0000
     1.0000   1.0000   1.0000   1.0000   1.0000   1.0000   1.0000   1.0000
     1.0000   1.0000   1.0000   1.0000   1.0000   1.0000   1.0000   1.0000
     1.0000   1.0000   1.0000   1.0000   1.0000   1.0000   1.0000   1.0000
     1.0000   1.0000   1.0000   1.0000   1.0000   1.0000  -0.0106  -0.0061
    -0.0002  -0.0001  -0.0000  -0.0000  -0.0000  -0.0000  -0.0000  -0.0000
    -0.0000  -0.0000  -0.0000  -0.0000  -0.0000  -0.0000

          k = 0.0000 0.1000 0.3000 (  9642 PWs)   bands (ev):

   -56.5098 -56.5098 -56.4926 -56.4926 -56.4799 -56.4799 -56.4768 -56.4768
   -28.5917 -28.5855 -28.5806 -28.5781 -28.5487 -28.5458 -28.5016 -28.5012
   -27.6396 -27.6324 -27.5871 -27.5818 -27.5612 -27.5478 -27.5411 -27.5349
   -27.5263 -27.4968 -27.4791 -27.4660 -27.4603 -27.4538 -27.4425 -27.4378
     3.3781   3.3782   5.6882   5.6897   7.5763   7.5781   8.5077   8.5135
     9.6888   9.6903  10.3945  10.3989  10.9284  10.9300  11.2917  11.3024
    11.7040  11.7071  12.2164  12.2295  12.7191  12.7227  13.0165  13.0266
    13.0323  13.0351  13.2268  13.2328  13.2982  13.2998  13.4130  13.4170
    13.5152  13.5240  13.8857  13.8978  14.1187  14.1243  14.9670  14.9983
    15.3129  15.3256  15.4898  15.5047  15.6991  15.7234  15.8516  15.8774
    16.1924  16.2059  16.4505  16.4639  17.2316  17.2600

     occupation numbers 
     1.0000   1.0000   1.0000   1.0000   1.0000   1.0000   1.0000   1.0000
     1.0000   1.0000   1.0000   1.0000   1.0000   1.0000   1.0000   1.0000
     1.0000   1.0000   1.0000   1.0000   1.0000   1.0000   1.0000   1.0000
     1.0000   1.0000   1.0000   1.0000   1.0000   1.0000   1.0000   1.0000
     1.0000   1.0000   1.0000   1.0000   1.0000   1.0000   1.0000   1.0000
     1.0000   1.0000   1.0000   1.0000   1.0000   1.0000   1.0000   1.0000
     1.0000   1.0000   1.0000   1.0000   1.0000   1.0000   1.0000   1.0000
     1.0000   1.0000   1.0000   1.0000   1.0000   1.0000   1.0000   1.0000
     1.0000   1.0000   1.0000   1.0000   1.0000   1.0000   0.4173   0.2379
    -0.0006  -0.0004  -0.0000  -0.0000  -0.0000  -0.0000  -0.0000  -0.0000
    -0.0000  -0.0000  -0.0000  -0.0000  -0.0000  -0.0000

          k = 0.0000 0.1000 0.4000 (  9650 PWs)   bands (ev):

   -56.5060 -56.5060 -56.4971 -56.4971 -56.4788 -56.4788 -56.4771 -56.4771
   -28.5908 -28.5860 -28.5833 -28.5804 -28.5366 -28.5345 -28.5121 -28.5113
   -27.6406 -27.6360 -27.5790 -27.5722 -27.5677 -27.5494 -27.5426 -27.5315
   -27.5222 -27.4933 -27.4856 -27.4695 -27.4620 -27.4570 -27.4410 -27.4381
     3.8325   3.8327   5.0207   5.0214   7.8363   7.8387   8.4143   8.4188
     9.7549   9.7583  10.2270  10.2309  11.0030  11.0077  11.0666  11.0795
    11.9590  11.9647  12.1920  12.2006  12.6470  12.6519  12.8517  12.8607
    13.0640  13.0687  13.2678  13.2717  13.3065  13.3089  13.3723  13.3741
    13.6274  13.6316  13.9416  13.9468  14.3357  14.3551  14.7773  14.8114
    15.3079  15.3229  15.3965  15.4110  15.7203  15.7472  15.8302  15.8586
    16.1461  16.1550  16.3081  16.3211  17.3507  17.3686

     occupation numbers 
     1.0000   1.0000   1.0000   1.0000   1.0000   1.0000   1.0000   1.0000
     1.0000   1.0000   1.0000   1.0000   1.0000   1.0000   1.0000   1.0000
     1.0000   1.0000   1.0000   1.0000   1.0000   1.0000   1.0000   1.0000
     1.0000   1.0000   1.0000   1.0000   1.0000   1.0000   1.0000   1.0000
     1.0000   1.0000   1.0000   1.0000   1.0000   1.0000   1.0000   1.0000
     1.0000   1.0000   1.0000   1.0000   1.0000   1.0000   1.0000   1.0000
     1.0000   1.0000   1.0000   1.0000   1.0000   1.0000   1.0000   1.0000
     1.0000   1.0000   1.0000   1.0000   1.0000   1.0000   1.0000   1.0000
     1.0000   1.0000   1.0000   1.0000   1.0000   1.0000   1.0347   1.0292
    -0.0007  -0.0004  -0.0000  -0.0000  -0.0000  -0.0000  -0.0000  -0.0000
    -0.0000  -0.0000  -0.0000  -0.0000  -0.0000  -0.0000

          k = 0.0000 0.1000-0.5000 (  9676 PWs)   bands (ev):

   -56.5017 -56.5017 -56.5017 -56.5017 -56.4778 -56.4778 -56.4778 -56.4778
   -28.5885 -28.5885 -28.5825 -28.5825 -28.5245 -28.5245 -28.5224 -28.5224
   -27.6391 -27.6391 -27.5735 -27.5735 -27.5601 -27.5601 -27.5371 -27.5371
   -27.5078 -27.5078 -27.4766 -27.4766 -27.4600 -27.4600 -27.4394 -27.4394
     4.3887   4.3887   4.3891   4.3891   8.1377   8.1377   8.1446   8.1446
     9.9957   9.9957  10.0001  10.0001  10.9955  10.9955  11.0092  11.0092
    12.1786  12.1786  12.1845  12.1845  12.6272  12.6272  12.6433  12.6433
    13.1987  13.1987  13.2025  13.2025  13.3007  13.3007  13.3023  13.3023
    13.8129  13.8129  13.8164  13.8164  14.5878  14.5878  14.6176  14.6176
    15.3347  15.3347  15.3512  15.3512  15.7756  15.7756  15.8053  15.8053
    16.1900  16.1900  16.2016  16.2016  17.5342  17.5377

     occupation numbers 
     1.0000   1.0000   1.0000   1.0000   1.0000   1.0000   1.0000   1.0000
     1.0000   1.0000   1.0000   1.0000   1.0000   1.0000   1.0000   1.0000
     1.0000   1.0000   1.0000   1.0000   1.0000   1.0000   1.0000   1.0000
     1.0000   1.0000   1.0000   1.0000   1.0000   1.0000   1.0000   1.0000
     1.0000   1.0000   1.0000   1.0000   1.0000   1.0000   1.0000   1.0000
     1.0000   1.0000   1.0000   1.0000   1.0000   1.0000   1.0000   1.0000
     1.0000   1.0000   1.0000   1.0000   1.0000   1.0000   1.0000   1.0000
     1.0000   1.0000   1.0000   1.0000   1.0000   1.0000   1.0000   1.0000
     1.0000   1.0000   1.0000   1.0000   1.0005   1.0005   1.0013   1.0013
    -0.0003  -0.0003  -0.0001  -0.0001  -0.0000  -0.0000  -0.0000  -0.0000
    -0.0000  -0.0000  -0.0000  -0.0000  -0.0000  -0.0000

          k = 0.0000 0.2000 0.2000 (  9629 PWs)   bands (ev):

   -56.5109 -56.5109 -56.4901 -56.4901 -56.4811 -56.4811 -56.4768 -56.4768
   -28.5915 -28.5856 -28.5758 -28.5754 -28.5559 -28.5520 -28.4983 -28.4981
   -27.6356 -27.6317 -27.5894 -27.5865 -27.5541 -27.5530 -27.5433 -27.5401
   -27.5219 -27.5004 -27.4755 -27.4695 -27.4610 -27.4497 -27.4408 -27.4365
     3.2452   3.2453   6.2134   6.2173   7.1065   7.1109   8.4947   8.4998
     9.7695   9.7714  10.3196  10.3234  10.8494  10.8514  11.3879  11.3900
    11.7955  11.7969  12.3656  12.3693  12.5710  12.5790  12.9917  12.9991
    13.1298  13.1409  13.1919  13.1953  13.3264  13.3286  13.4082  13.4206
    13.4896  13.4960  13.8246  13.8386  14.1258  14.1332  15.1680  15.1893
    15.2394  15.2607  15.4436  15.4562  15.6647  15.6881  15.8093  15.8354
    16.2126  16.2276  16.5669  16.5777  17.1087  17.1478

     occupation numbers 
     1.0000   1.0000   1.0000   1.0000   1.0000   1.0000   1.0000   1.0000
     1.0000   1.0000   1.0000   1.0000   1.0000   1.0000   1.0000   1.0000
     1.0000   1.0000   1.0000   1.0000   1.0000   1.0000   1.0000   1.0000
     1.0000   1.0000   1.0000   1.0000   1.0000   1.0000   1.0000   1.0000
     1.0000   1.0000   1.0000   1.0000   1.0000   1.0000   1.0000   1.0000
     1.0000   1.0000   1.0000   1.0000   1.0000   1.0000   1.0000   1.0000
     1.0000   1.0000   1.0000   1.0000   1.0000   1.0000   1.0000   1.0000
     1.0000   1.0000   1.0000   1.0000   1.0000   1.0000   1.0000   1.0000
     1.0000   1.0000   1.0000   1.0000   1.0000   1.0000  -0.0242  -0.0172
    -0.0057  -0.0032  -0.0000  -0.0000  -0.0000  -0.0000  -0.0000  -0.0000
    -0.0000  -0.0000  -0.0000  -0.0000  -0.0000  -0.0000

          k = 0.0000 0.2000 0.3000 (  9653 PWs)   bands (ev):

   -56.5082 -56.5082 -56.4931 -56.4931 -56.4807 -56.4807 -56.4770 -56.4770
   -28.5909 -28.5855 -28.5775 -28.5760 -28.5483 -28.5453 -28.5060 -28.5057
   -27.6364 -27.6320 -27.5842 -27.5793 -27.5606 -27.5519 -27.5429 -27.5378
   -27.5225 -27.4936 -27.4862 -27.4733 -27.4641 -27.4501 -27.4383 -27.4345
     3.5754   3.5756   5.7764   5.7789   7.1293   7.1328   8.4353   8.4391
     9.7420   9.7453  10.1781  10.1826  10.9537  10.9555  11.4461  11.4495
    11.7629  11.7644  12.2214  12.2265  12.5371  12.5451  12.8819  12.8899
    13.1663  13.1785  13.2252  13.2292  13.4071  13.4076  13.5503  13.5612
    13.5860  13.5977  13.9901  14.0026  14.2293  14.2382  14.9839  15.0111
    15.1728  15.1944  15.3167  15.3266  15.6294  15.6540  15.7840  15.8142
    16.1558  16.1661  16.4877  16.4994  17.1990  17.2381

     occupation numbers 
     1.0000   1.0000   1.0000   1.0000   1.0000   1.0000   1.0000   1.0000
     1.0000   1.0000   1.0000   1.0000   1.0000   1.0000   1.0000   1.0000
     1.0000   1.0000   1.0000   1.0000   1.0000   1.0000   1.0000   1.0000
     1.0000   1.0000   1.0000   1.0000   1.0000   1.0000   1.0000   1.0000
     1.0000   1.0000   1.0000   1.0000   1.0000   1.0000   1.0000   1.0000
     1.0000   1.0000   1.0000   1.0000   1.0000   1.0000   1.0000   1.0000
     1.0000   1.0000   1.0000   1.0000   1.0000   1.0000   1.0000   1.0000
     1.0000   1.0000   1.0000   1.0000   1.0000   1.0000   1.0000   1.0000
     1.0000   1.0000   1.0000   1.0000   1.0000   1.0000   0.3168   0.1752
    -0.0226  -0.0156  -0.0005  -0.0004  -0.0000  -0.0000  -0.0000  -0.0000
    -0.0000  -0.0000  -0.0000  -0.0000  -0.0000  -0.0000

          k = 0.0000 0.2000 0.4000 (  9651 PWs)   bands (ev):

   -56.5048 -56.5048 -56.4968 -56.4968 -56.4798 -56.4798 -56.4776 -56.4776
   -28.5889 -28.5847 -28.5804 -28.5780 -28.5381 -28.5361 -28.5157 -28.5152
   -27.6361 -27.6328 -27.5802 -27.5729 -27.5650 -27.5526 -27.5422 -27.5303
   -27.5252 -27.5002 -27.4867 -27.4773 -27.4622 -27.4529 -27.4363 -27.4340
     4.0216   4.0219   5.1714   5.1726   7.3847   7.3873   8.1323   8.1351
     9.8719   9.8754  10.1409  10.1443  11.0537  11.0605  11.3122  11.3243
    11.8756  11.8800  12.0990  12.1050  12.4985  12.5092  12.6805  12.6912
    13.2245  13.2301  13.2759  13.2811  13.4058  13.4081  13.5610  13.5634
    13.7421  13.7463  14.0116  14.0191  14.4430  14.4681  14.7927  14.8242
    15.1663  15.1842  15.2246  15.2295  15.6286  15.6546  15.7339  15.7660
    16.1806  16.1867  16.3890  16.4015  17.2688  17.2936

     occupation numbers 
     1.0000   1.0000   1.0000   1.0000   1.0000   1.0000   1.0000   1.0000
     1.0000   1.0000   1.0000   1.0000   1.0000   1.0000   1.0000   1.0000
     1.0000   1.0000   1.0000   1.0000   1.0000   1.0000   1.0000   1.0000
     1.0000   1.0000   1.0000   1.0000   1.0000   1.0000   1.0000   1.0000
     1.0000   1.0000   1.0000   1.0000   1.0000   1.0000   1.0000   1.0000
     1.0000   1.0000   1.0000   1.0000   1.0000   1.0000   1.0000   1.0000
     1.0000   1.0000   1.0000   1.0000   1.0000   1.0000   1.0000   1.0000
     1.0000   1.0000   1.0000   1.0000   1.0000   1.0000   1.0000   1.0000
     1.0000   1.0000   1.0000   1.0000   1.0000   1.0000   1.0352   1.0193
    -0.0248  -0.0188  -0.0082  -0.0073  -0.0000  -0.0000  -0.0000  -0.0000
    -0.0000  -0.0000  -0.0000  -0.0000  -0.0000  -0.0000

          k = 0.0000 0.2000-0.5000 (  9650 PWs)   bands (ev):

   -56.5008 -56.5008 -56.5008 -56.5008 -56.4786 -56.4786 -56.4786 -56.4786
   -28.5861 -28.5861 -28.5803 -28.5803 -28.5277 -28.5277 -28.5248 -28.5248
   -27.6345 -27.6345 -27.5758 -27.5758 -27.5592 -27.5592 -27.5361 -27.5361
   -27.5137 -27.5137 -27.4818 -27.4818 -27.4574 -27.4574 -27.4347 -27.4347
     4.5644   4.5644   4.5652   4.5652   7.7411   7.7411   7.7478   7.7478
    10.0486  10.0486  10.0522  10.0522  11.1495  11.1495  11.1629  11.1629
    12.0403  12.0403  12.0439  12.0439  12.4895  12.4895  12.5043  12.5043
    13.3090  13.3090  13.3121  13.3121  13.4386  13.4386  13.4413  13.4413
    13.9066  13.9066  13.9112  13.9112  14.6381  14.6381  14.6698  14.6698
    15.1773  15.1773  15.1909  15.1909  15.6712  15.6712  15.7008  15.7008
    16.2737  16.2737  16.2844  16.2844  17.4433  17.4476

     occupation numbers 
     1.0000   1.0000   1.0000   1.0000   1.0000   1.0000   1.0000   1.0000
     1.0000   1.0000   1.0000   1.0000   1.0000   1.0000   1.0000   1.0000
     1.0000   1.0000   1.0000   1.0000   1.0000   1.0000   1.0000   1.0000
     1.0000   1.0000   1.0000   1.0000   1.0000   1.0000   1.0000   1.0000
     1.0000   1.0000   1.0000   1.0000   1.0000   1.0000   1.0000   1.0000
     1.0000   1.0000   1.0000   1.0000   1.0000   1.0000   1.0000   1.0000
     1.0000   1.0000   1.0000   1.0000   1.0000   1.0000   1.0000   1.0000
     1.0000   1.0000   1.0000   1.0000   1.0000   1.0000   1.0000   1.0000
     1.0000   1.0000   1.0000   1.0000   1.0025   1.0025   1.0060   1.0060
    -0.0210  -0.0210  -0.0167  -0.0167  -0.0000  -0.0000  -0.0000  -0.0000
    -0.0000  -0.0000  -0.0000  -0.0000  -0.0000  -0.0000

          k = 0.0000 0.3000 0.3000 (  9641 PWs)   bands (ev):

   -56.5059 -56.5059 -56.4944 -56.4944 -56.4811 -56.4811 -56.4776 -56.4776
   -28.5889 -28.5843 -28.5758 -28.5749 -28.5456 -28.5427 -28.5130 -28.5123
   -27.6324 -27.6303 -27.5830 -27.5777 -27.5606 -27.5527 -27.5406 -27.5395
   -27.5219 -27.4963 -27.4934 -27.4816 -27.4623 -27.4461 -27.4357 -27.4324
     3.8961   3.8964   5.7562   5.7588   6.7779   6.7812   8.1200   8.1244
     9.8829   9.8863  10.2220  10.2263  10.9526  10.9549  11.2879  11.2892
    11.9117  11.9183  12.2057  12.2111  12.3903  12.4010  12.7566  12.7637
    13.1518  13.1606  13.3633  13.3723  13.4939  13.4990  13.6396  13.6459
    13.7468  13.7584  14.0594  14.0724  14.3833  14.4036  14.9281  14.9452
    15.0231  15.0461  15.1464  15.1582  15.5580  15.5827  15.6725  15.7030
    16.1812  16.1899  16.4873  16.4959  17.1815  17.2185

     occupation numbers 
     1.0000   1.0000   1.0000   1.0000   1.0000   1.0000   1.0000   1.0000
     1.0000   1.0000   1.0000   1.0000   1.0000   1.0000   1.0000   1.0000
     1.0000   1.0000   1.0000   1.0000   1.0000   1.0000   1.0000   1.0000
     1.0000   1.0000   1.0000   1.0000   1.0000   1.0000   1.0000   1.0000
     1.0000   1.0000   1.0000   1.0000   1.0000   1.0000   1.0000   1.0000
     1.0000   1.0000   1.0000   1.0000   1.0000   1.0000   1.0000   1.0000
     1.0000   1.0000   1.0000   1.0000   1.0000   1.0000   1.0000   1.0000
     1.0000   1.0000   1.0000   1.0000   1.0000   1.0000   1.0000   1.0000
     1.0000   1.0000   1.0000   1.0000   1.0000   1.0000   0.6557   0.5522
     0.1240   0.0475  -0.0311  -0.0275  -0.0000  -0.0000  -0.0000  -0.0000
    -0.0000  -0.0000  -0.0000  -0.0000  -0.0000  -0.0000

          k = 0.0000 0.3000 0.4000 (  9635 PWs)   bands (ev):

   -56.5029 -56.5029 -56.4967 -56.4967 -56.4807 -56.4807 -56.4786 -56.4786
   -28.5859 -28.5821 -28.5772 -28.5756 -28.5393 -28.5375 -28.5213 -28.5207
   -27.6292 -27.6277 -27.5848 -27.5795 -27.5584 -27.5509 -27.5402 -27.5312
   -27.5262 -27.5056 -27.4963 -27.4884 -27.4557 -27.4458 -27.4338 -27.4316
     4.3267   4.3273   5.3794   5.3813   6.8560   6.8590   7.6668   7.6701
    10.0826  10.0851  10.2805  10.2830  11.0335  11.0369  11.3612  11.3685
    11.8662  11.8699  11.9502  11.9528  12.3435  12.3530  12.5149  12.5250
    13.2532  13.2618  13.4277  13.4289  13.4866  13.4868  13.7138  13.7179
    13.9460  13.9518  14.1242  14.1330  14.5480  14.5760  14.7620  14.7836
    14.9728  14.9923  15.0373  15.0503  15.5251  15.5478  15.5900  15.6206
    16.2735  16.2819  16.4809  16.4889  17.1358  17.1592

     occupation numbers 
     1.0000   1.0000   1.0000   1.0000   1.0000   1.0000   1.0000   1.0000
     1.0000   1.0000   1.0000   1.0000   1.0000   1.0000   1.0000   1.0000
     1.0000   1.0000   1.0000   1.0000   1.0000   1.0000   1.0000   1.0000
     1.0000   1.0000   1.0000   1.0000   1.0000   1.0000   1.0000   1.0000
     1.0000   1.0000   1.0000   1.0000   1.0000   1.0000   1.0000   1.0000
     1.0000   1.0000   1.0000   1.0000   1.0000   1.0000   1.0000   1.0000
     1.0000   1.0000   1.0000   1.0000   1.0000   1.0000   1.0000   1.0000
     1.0000   1.0000   1.0000   1.0000   1.0000   1.0000   1.0000   1.0000
     1.0000   1.0000   1.0000   1.0000   1.0001   1.0003   1.0315   1.0354
     0.3822   0.2700   0.0733   0.0365  -0.0000  -0.0000  -0.0000  -0.0000
    -0.0000  -0.0000  -0.0000  -0.0000  -0.0000  -0.0000

          k = 0.0000 0.3000-0.5000 (  9642 PWs)   bands (ev):

   -56.4997 -56.4997 -56.4997 -56.4997 -56.4798 -56.4798 -56.4798 -56.4797
   -28.5825 -28.5825 -28.5775 -28.5775 -28.5317 -28.5317 -28.5285 -28.5285
   -27.6272 -27.6272 -27.5836 -27.5836 -27.5536 -27.5536 -27.5346 -27.5346
   -27.5185 -27.5185 -27.4935 -27.4935 -27.4494 -27.4494 -27.4322 -27.4322
     4.8411   4.8411   4.8424   4.8424   7.2107   7.2107   7.2162   7.2162
    10.2420  10.2420  10.2444  10.2444  11.2287  11.2287  11.2382  11.2382
    11.8470  11.8470  11.8505  11.8505  12.3616  12.3616  12.3710  12.3710
    13.3627  13.3627  13.3703  13.3703  13.6056  13.6056  13.6137  13.6137
    14.0919  14.0919  14.0979  14.0979  14.6426  14.6426  14.6677  14.6677
    14.9954  14.9954  15.0072  15.0072  15.5355  15.5355  15.5623  15.5623
    16.3970  16.3970  16.4080  16.4080  17.2623  17.2656

     occupation numbers 
     1.0000   1.0000   1.0000   1.0000   1.0000   1.0000   1.0000   1.0000
     1.0000   1.0000   1.0000   1.0000   1.0000   1.0000   1.0000   1.0000
     1.0000   1.0000   1.0000   1.0000   1.0000   1.0000   1.0000   1.0000
     1.0000   1.0000   1.0000   1.0000   1.0000   1.0000   1.0000   1.0000
     1.0000   1.0000   1.0000   1.0000   1.0000   1.0000   1.0000   1.0000
     1.0000   1.0000   1.0000   1.0000   1.0000   1.0000   1.0000   1.0000
     1.0000   1.0000   1.0000   1.0000   1.0000   1.0000   1.0000   1.0000
     1.0000   1.0000   1.0000   1.0000   1.0000   1.0000   1.0000   1.0000
     1.0000   1.0000   1.0000   1.0000   1.0029   1.0029   1.0057   1.0057
     0.2534   0.2534   0.1936   0.1936  -0.0000  -0.0000  -0.0000  -0.0000
    -0.0000  -0.0000  -0.0000  -0.0000  -0.0000  -0.0000

          k = 0.0000 0.4000 0.4000 (  9636 PWs)   bands (ev):

   -56.5008 -56.5008 -56.4973 -56.4973 -56.4811 -56.4811 -56.4797 -56.4797
   -28.5820 -28.5792 -28.5756 -28.5748 -28.5383 -28.5368 -28.5279 -28.5270
   -27.6217 -27.6216 -27.5914 -27.5884 -27.5508 -27.5470 -27.5371 -27.5298
   -27.5284 -27.5092 -27.5072 -27.4987 -27.4477 -27.4407 -27.4338 -27.4312
     4.7279   4.7286   5.4690   5.4703   6.5218   6.5235   7.1470   7.1496
    10.3761  10.3765  10.5508  10.5517  10.9050  10.9054  11.2351  11.2385
    11.6916  11.6925  11.9445  11.9498  12.2654  12.2659  12.3945  12.4008
    13.2703  13.2771  13.3817  13.3823  13.7475  13.7493  13.8777  13.8825
    14.1459  14.1545  14.2001  14.2058  14.5514  14.5598  14.6736  14.6919
    14.8203  14.8365  14.9029  14.9272  15.4540  15.4700  15.4755  15.4990
    16.3835  16.3951  16.5293  16.5345  17.0557  17.0734

     occupation numbers 
     1.0000   1.0000   1.0000   1.0000   1.0000   1.0000   1.0000   1.0000
     1.0000   1.0000   1.0000   1.0000   1.0000   1.0000   1.0000   1.0000
     1.0000   1.0000   1.0000   1.0000   1.0000   1.0000   1.0000   1.0000
     1.0000   1.0000   1.0000   1.0000   1.0000   1.0000   1.0000   1.0000
     1.0000   1.0000   1.0000   1.0000   1.0000   1.0000   1.0000   1.0000
     1.0000   1.0000   1.0000   1.0000   1.0000   1.0000   1.0000   1.0000
     1.0000   1.0000   1.0000   1.0000   1.0000   1.0000   1.0000   1.0000
     1.0000   1.0000   1.0000   1.0000   1.0000   1.0000   1.0000   1.0000
     1.0000   1.0000   1.0000   1.0000   1.0001   1.0002   1.0066   1.0102
     1.0229   1.0039   0.7926   0.6607  -0.0000  -0.0000  -0.0000  -0.0000
    -0.0000  -0.0000  -0.0000  -0.0000  -0.0000  -0.0000

          k = 0.0000 0.4000-0.5000 (  9646 PWs)   bands (ev):

   -56.4987 -56.4987 -56.4987 -56.4987 -56.4807 -56.4807 -56.4807 -56.4807
   -28.5785 -28.5785 -28.5755 -28.5755 -28.5347 -28.5347 -28.5325 -28.5325
   -27.6176 -27.6176 -27.5946 -27.5946 -27.5456 -27.5456 -27.5343 -27.5343
   -27.5200 -27.5200 -27.5058 -27.5058 -27.4417 -27.4417 -27.4326 -27.4326
     5.1723   5.1723   5.1737   5.1737   6.6926   6.6926   6.6962   6.6962
    10.5221  10.5221  10.5231  10.5231  11.2415  11.2415  11.2500  11.2500
    11.5668  11.5668  11.5758  11.5758  12.2998  12.2998  12.3037  12.3037
    13.3630  13.3630  13.3677  13.3677  13.8273  13.8273  13.8365  13.8365
    14.3263  14.3263  14.3299  14.3299  14.4968  14.4968  14.5049  14.5049
    14.8519  14.8519  14.8718  14.8718  15.4399  15.4399  15.4562  15.4562
    16.5207  16.5208  16.5300  16.5300  17.0706  17.0718

     occupation numbers 
     1.0000   1.0000   1.0000   1.0000   1.0000   1.0000   1.0000   1.0000
     1.0000   1.0000   1.0000   1.0000   1.0000   1.0000   1.0000   1.0000
     1.0000   1.0000   1.0000   1.0000   1.0000   1.0000   1.0000   1.0000
     1.0000   1.0000   1.0000   1.0000   1.0000   1.0000   1.0000   1.0000
     1.0000   1.0000   1.0000   1.0000   1.0000   1.0000   1.0000   1.0000
     1.0000   1.0000   1.0000   1.0000   1.0000   1.0000   1.0000   1.0000
     1.0000   1.0000   1.0000   1.0000   1.0000   1.0000   1.0000   1.0000
     1.0000   1.0000   1.0000   1.0000   1.0000   1.0000   1.0000   1.0000
     1.0000   1.0000   1.0000   1.0000   1.0000   1.0000   1.0000   1.0000
     0.9754   0.9754   0.9207   0.9207  -0.0000  -0.0000  -0.0000  -0.0000
    -0.0000  -0.0000  -0.0000  -0.0000  -0.0000  -0.0000

          k = 0.0000-0.5000-0.5000 (  9580 PWs)   bands (ev):

   -56.4983 -56.4983 -56.4983 -56.4983 -56.4812 -56.4812 -56.4812 -56.4812
   -28.5758 -28.5758 -28.5758 -28.5758 -28.5350 -28.5350 -28.5350 -28.5350
   -27.6064 -27.6064 -27.6064 -27.6064 -27.5381 -27.5381 -27.5381 -27.5381
   -27.5156 -27.5156 -27.5156 -27.5156 -27.4359 -27.4359 -27.4359 -27.4359
     5.3717   5.3717   5.3717   5.3717   6.4279   6.4279   6.4279   6.4279
    10.7057  10.7057  10.7057  10.7057  11.2423  11.2423  11.2423  11.2423
    11.3851  11.3851  11.3851  11.3851  12.2845  12.2845  12.2845  12.2845
    13.3611  13.3611  13.3611  13.3611  14.0068  14.0068  14.0068  14.0068
    14.2922  14.2922  14.2922  14.2922  14.5255  14.5255  14.5255  14.5255
    14.7580  14.7580  14.7580  14.7580  15.4156  15.4156  15.4156  15.4156
    16.5874  16.5874  16.5874  16.5874  16.9831  16.9831

     occupation numbers 
     1.0000   1.0000   1.0000   1.0000   1.0000   1.0000   1.0000   1.0000
     1.0000   1.0000   1.0000   1.0000   1.0000   1.0000   1.0000   1.0000
     1.0000   1.0000   1.0000   1.0000   1.0000   1.0000   1.0000   1.0000
     1.0000   1.0000   1.0000   1.0000   1.0000   1.0000   1.0000   1.0000
     1.0000   1.0000   1.0000   1.0000   1.0000   1.0000   1.0000   1.0000
     1.0000   1.0000   1.0000   1.0000   1.0000   1.0000   1.0000   1.0000
     1.0000   1.0000   1.0000   1.0000   1.0000   1.0000   1.0000   1.0000
     1.0000   1.0000   1.0000   1.0000   1.0000   1.0000   1.0000   1.0000
     1.0000   1.0000   1.0000   1.0000   1.0000   1.0000   1.0000   1.0000
     1.0303   1.0303   1.0303   1.0303  -0.0000  -0.0000  -0.0000  -0.0000
    -0.0000  -0.0000  -0.0000  -0.0000  -0.0000  -0.0000

          k = 0.1000 0.1000 0.1000 (  9669 PWs)   bands (ev):

   -56.5139 -56.5139 -56.4863 -56.4863 -56.4813 -56.4813 -56.4775 -56.4775
   -28.5897 -28.5833 -28.5759 -28.5746 -28.5653 -28.5609 -28.4899 -28.4898
   -27.6306 -27.6295 -27.6006 -27.5971 -27.5512 -27.5441 -27.5428 -27.5416
   -27.5257 -27.5133 -27.4649 -27.4584 -27.4544 -27.4519 -27.4436 -27.4408
     2.9062   2.9062   6.7165   6.7231   7.2687   7.2749   8.1857   8.1907
     9.9891   9.9946  10.6190  10.6197  10.8713  10.8714  11.1921  11.1975
    11.9279  11.9290  12.3622  12.3756  12.6870  12.6883  12.8056  12.8139
    13.0088  13.0095  13.1664  13.1668  13.2133  13.2184  13.2400  13.2433
    13.4572  13.4609  13.6792  13.6829  13.9964  14.0016  15.3605  15.3647
    15.4272  15.4285  15.6211  15.6266  15.6869  15.6997  15.8006  15.8100
    16.3817  16.4016  16.6659  16.6721  16.9088  16.9402

     occupation numbers 
     1.0000   1.0000   1.0000   1.0000   1.0000   1.0000   1.0000   1.0000
     1.0000   1.0000   1.0000   1.0000   1.0000   1.0000   1.0000   1.0000
     1.0000   1.0000   1.0000   1.0000   1.0000   1.0000   1.0000   1.0000
     1.0000   1.0000   1.0000   1.0000   1.0000   1.0000   1.0000   1.0000
     1.0000   1.0000   1.0000   1.0000   1.0000   1.0000   1.0000   1.0000
     1.0000   1.0000   1.0000   1.0000   1.0000   1.0000   1.0000   1.0000
     1.0000   1.0000   1.0000   1.0000   1.0000   1.0000   1.0000   1.0000
     1.0000   1.0000   1.0000   1.0000   1.0000   1.0000   1.0000   1.0000
     1.0000   1.0000   1.0000   1.0000   1.0000   1.0000  -0.0001  -0.0001
    -0.0000  -0.0000  -0.0000  -0.0000  -0.0000  -0.0000  -0.0000  -0.0000
    -0.0000  -0.0000  -0.0000  -0.0000  -0.0000  -0.0000

          k = 0.1000 0.1000 0.2000 (  9653 PWs)   bands (ev):

   -56.5121 -56.5121 -56.4889 -56.4889 -56.4811 -56.4811 -56.4769 -56.4769
   -28.5912 -28.5851 -28.5760 -28.5756 -28.5588 -28.5549 -28.4950 -28.4948
   -27.6353 -27.6306 -27.5945 -27.5885 -27.5544 -27.5487 -27.5430 -27.5413
   -27.5225 -27.5047 -27.4728 -27.4626 -27.4574 -27.4537 -27.4412 -27.4383
     3.1106   3.1106   6.3283   6.3323   7.2720   7.2764   8.3626   8.3676
     9.8303   9.8335  10.5507  10.5530  10.6972  10.7002  11.3545  11.3594
    11.8170  11.8216  12.3555  12.3583  12.7045  12.7082  12.9592  12.9604
    13.0696  13.0774  13.1336  13.1369  13.2685  13.2731  13.3453  13.3578
    13.5128  13.5278  13.7243  13.7335  14.0854  14.0925  15.2032  15.2266
    15.3336  15.3481  15.5461  15.5596  15.6470  15.6632  15.8245  15.8420
    16.2725  16.2906  16.5962  16.6080  17.0413  17.0745

     occupation numbers 
     1.0000   1.0000   1.0000   1.0000   1.0000   1.0000   1.0000   1.0000
     1.0000   1.0000   1.0000   1.0000   1.0000   1.0000   1.0000   1.0000
     1.0000   1.0000   1.0000   1.0000   1.0000   1.0000   1.0000   1.0000
     1.0000   1.0000   1.0000   1.0000   1.0000   1.0000   1.0000   1.0000
     1.0000   1.0000   1.0000   1.0000   1.0000   1.0000   1.0000   1.0000
     1.0000   1.0000   1.0000   1.0000   1.0000   1.0000   1.0000   1.0000
     1.0000   1.0000   1.0000   1.0000   1.0000   1.0000   1.0000   1.0000
     1.0000   1.0000   1.0000   1.0000   1.0000   1.0000   1.0000   1.0000
     1.0000   1.0000   1.0000   1.0000   1.0000   1.0000  -0.0131  -0.0078
    -0.0003  -0.0002  -0.0000  -0.0000  -0.0000  -0.0000  -0.0000  -0.0000
    -0.0000  -0.0000  -0.0000  -0.0000  -0.0000  -0.0000

          k = 0.1000 0.1000 0.3000 (  9634 PWs)   bands (ev):

   -56.5092 -56.5092 -56.4926 -56.4926 -56.4803 -56.4803 -56.4768 -56.4768
   -28.5915 -28.5857 -28.5790 -28.5771 -28.5489 -28.5458 -28.5032 -28.5027
   -27.6385 -27.6323 -27.5861 -27.5805 -27.5605 -27.5486 -27.5440 -27.5372
   -27.5232 -27.4959 -27.4816 -27.4664 -27.4612 -27.4561 -27.4396 -27.4367
     3.4443   3.4444   5.7263   5.7280   7.4472   7.4495   8.4626   8.4681
     9.6443   9.6454  10.3743  10.3788  10.8190  10.8227  11.3612  11.3657
    11.7650  11.7661  12.2468  12.2548  12.7656  12.7689  13.0167  13.0249
    13.0587  13.0653  13.1623  13.1676  13.3268  13.3304  13.3863  13.3928
    13.5964  13.5993  13.9087  13.9181  14.1570  14.1619  14.9665  14.9967
    15.2972  15.3114  15.4382  15.4532  15.6386  15.6595  15.8287  15.8506
    16.1783  16.1926  16.4656  16.4805  17.1983  17.2275

     occupation numbers 
     1.0000   1.0000   1.0000   1.0000   1.0000   1.0000   1.0000   1.0000
     1.0000   1.0000   1.0000   1.0000   1.0000   1.0000   1.0000   1.0000
     1.0000   1.0000   1.0000   1.0000   1.0000   1.0000   1.0000   1.0000
     1.0000   1.0000   1.0000   1.0000   1.0000   1.0000   1.0000   1.0000
     1.0000   1.0000   1.0000   1.0000   1.0000   1.0000   1.0000   1.0000
     1.0000   1.0000   1.0000   1.0000   1.0000   1.0000   1.0000   1.0000
     1.0000   1.0000   1.0000   1.0000   1.0000   1.0000   1.0000   1.0000
     1.0000   1.0000   1.0000   1.0000   1.0000   1.0000   1.0000   1.0000
     1.0000   1.0000   1.0000   1.0000   1.0000   1.0000   0.4204   0.2464
    -0.0010  -0.0006  -0.0000  -0.0000  -0.0000  -0.0000  -0.0000  -0.0000
    -0.0000  -0.0000  -0.0000  -0.0000  -0.0000  -0.0000

          k = 0.1000 0.1000 0.4000 (  9660 PWs)   bands (ev):

   -56.5056 -56.5056 -56.4969 -56.4969 -56.4792 -56.4792 -56.4773 -56.4773
   -28.5902 -28.5857 -28.5820 -28.5795 -28.5374 -28.5351 -28.5135 -28.5126
   -27.6391 -27.6349 -27.5782 -27.5724 -27.5670 -27.5517 -27.5428 -27.5313
   -27.5230 -27.4980 -27.4821 -27.4694 -27.4633 -27.4593 -27.4384 -27.4365
     3.8960   3.8962   5.0730   5.0738   7.7154   7.7177   8.3340   8.3388
     9.6763   9.6777  10.1907  10.1945  10.9271  10.9311  11.2411  11.2474
    11.8797  11.8842  12.2198  12.2236  12.7272  12.7305  12.9297  12.9373
    13.0626  13.0695  13.2317  13.2376  13.3073  13.3091  13.3797  13.3857
    13.6676  13.6708  13.9456  13.9514  14.3709  14.3921  14.7826  14.8164
    15.2806  15.2967  15.3475  15.3631  15.6661  15.6889  15.7918  15.8162
    16.1492  16.1586  16.3234  16.3373  17.3632  17.3810

     occupation numbers 
     1.0000   1.0000   1.0000   1.0000   1.0000   1.0000   1.0000   1.0000
     1.0000   1.0000   1.0000   1.0000   1.0000   1.0000   1.0000   1.0000
     1.0000   1.0000   1.0000   1.0000   1.0000   1.0000   1.0000   1.0000
     1.0000   1.0000   1.0000   1.0000   1.0000   1.0000   1.0000   1.0000
     1.0000   1.0000   1.0000   1.0000   1.0000   1.0000   1.0000   1.0000
     1.0000   1.0000   1.0000   1.0000   1.0000   1.0000   1.0000   1.0000
     1.0000   1.0000   1.0000   1.0000   1.0000   1.0000   1.0000   1.0000
     1.0000   1.0000   1.0000   1.0000   1.0000   1.0000   1.0000   1.0000
     1.0000   1.0000   1.0000   1.0000   1.0000   1.0000   1.0353   1.0260
    -0.0018  -0.0010  -0.0002  -0.0001  -0.0000  -0.0000  -0.0000  -0.0000
    -0.0000  -0.0000  -0.0000  -0.0000  -0.0000  -0.0000

          k = 0.1000 0.1000-0.5000 (  9662 PWs)   bands (ev):

   -56.5014 -56.5014 -56.5014 -56.5014 -56.4781 -56.4781 -56.4781 -56.4781
   -28.5877 -28.5877 -28.5817 -28.5817 -28.5258 -28.5258 -28.5232 -28.5232
   -27.6376 -27.6376 -27.5727 -27.5727 -27.5615 -27.5615 -27.5366 -27.5366
   -27.5108 -27.5108 -27.4749 -27.4749 -27.4622 -27.4622 -27.4373 -27.4373
     4.4480   4.4480   4.4485   4.4485   8.0330   8.0330   8.0394   8.0394
     9.9193   9.9193   9.9220   9.9220  11.0691  11.0691  11.0797  11.0797
    12.1014  12.1014  12.1056  12.1056  12.7597  12.7597  12.7729  12.7729
    13.1691  13.1691  13.1758  13.1758  13.3254  13.3254  13.3282  13.3282
    13.8211  13.8211  13.8261  13.8261  14.6064  14.6064  14.6373  14.6373
    15.2939  15.2939  15.3126  15.3126  15.7259  15.7259  15.7537  15.7537
    16.2037  16.2037  16.2146  16.2146  17.6023  17.6048

     occupation numbers 
     1.0000   1.0000   1.0000   1.0000   1.0000   1.0000   1.0000   1.0000
     1.0000   1.0000   1.0000   1.0000   1.0000   1.0000   1.0000   1.0000
     1.0000   1.0000   1.0000   1.0000   1.0000   1.0000   1.0000   1.0000
     1.0000   1.0000   1.0000   1.0000   1.0000   1.0000   1.0000   1.0000
     1.0000   1.0000   1.0000   1.0000   1.0000   1.0000   1.0000   1.0000
     1.0000   1.0000   1.0000   1.0000   1.0000   1.0000   1.0000   1.0000
     1.0000   1.0000   1.0000   1.0000   1.0000   1.0000   1.0000   1.0000
     1.0000   1.0000   1.0000   1.0000   1.0000   1.0000   1.0000   1.0000
     1.0000   1.0000   1.0000   1.0000   1.0009   1.0009   1.0024   1.0024
    -0.0012  -0.0012  -0.0006  -0.0006  -0.0000  -0.0000  -0.0000  -0.0000
    -0.0000  -0.0000  -0.0000  -0.0000  -0.0000  -0.0000

          k = 0.1000 0.2000 0.2000 (  9644 PWs)   bands (ev):

   -56.5104 -56.5104 -56.4903 -56.4903 -56.4815 -56.4815 -56.4768 -56.4768
   -28.5914 -28.5857 -28.5747 -28.5745 -28.5558 -28.5518 -28.5000 -28.4996
   -27.6349 -27.6317 -27.5899 -27.5830 -27.5539 -27.5527 -27.5451 -27.5433
   -27.5190 -27.4993 -27.4797 -27.4660 -27.4626 -27.4529 -27.4384 -27.4360
     3.3120   3.3121   6.2298   6.2348   7.0571   7.0635   8.3960   8.3996
     9.6897   9.6921  10.4532  10.4559  10.6340  10.6366  11.4239  11.4290
    11.8991  11.9026  12.3331  12.3373  12.6660  12.6725  13.0039  13.0063
    13.0641  13.0715  13.1658  13.1705  13.2558  13.2611  13.4817  13.4926
    13.5996  13.6087  13.8296  13.8388  14.1573  14.1647  15.1589  15.1767
    15.2419  15.2605  15.4241  15.4360  15.5777  15.5932  15.7948  15.8135
    16.2056  16.2213  16.5742  16.5864  17.0894  17.1296

     occupation numbers 
     1.0000   1.0000   1.0000   1.0000   1.0000   1.0000   1.0000   1.0000
     1.0000   1.0000   1.0000   1.0000   1.0000   1.0000   1.0000   1.0000
     1.0000   1.0000   1.0000   1.0000   1.0000   1.0000   1.0000   1.0000
     1.0000   1.0000   1.0000   1.0000   1.0000   1.0000   1.0000   1.0000
     1.0000   1.0000   1.0000   1.0000   1.0000   1.0000   1.0000   1.0000
     1.0000   1.0000   1.0000   1.0000   1.0000   1.0000   1.0000   1.0000
     1.0000   1.0000   1.0000   1.0000   1.0000   1.0000   1.0000   1.0000
     1.0000   1.0000   1.0000   1.0000   1.0000   1.0000   1.0000   1.0000
     1.0000   1.0000   1.0000   1.0000   1.0000   1.0000  -0.0273  -0.0212
    -0.0053  -0.0032  -0.0000  -0.0000  -0.0000  -0.0000  -0.0000  -0.0000
    -0.0000  -0.0000  -0.0000  -0.0000  -0.0000  -0.0000

          k = 0.1000 0.2000 0.3000 (  9631 PWs)   bands (ev):

   -56.5077 -56.5077 -56.4930 -56.4930 -56.4811 -56.4811 -56.4771 -56.4771
   -28.5905 -28.5853 -28.5763 -28.5750 -28.5487 -28.5456 -28.5075 -28.5070
   -27.6354 -27.6313 -27.5845 -27.5773 -27.5603 -27.5518 -27.5454 -27.5400
   -27.5196 -27.4980 -27.4836 -27.4704 -27.4664 -27.4528 -27.4365 -27.4341
     3.6405   3.6407   5.8141   5.8170   7.0979   7.1023   8.3493   8.3526
     9.5029   9.5052  10.3405  10.3433  10.7927  10.7974  11.5156  11.5206
    11.8103  11.8164  12.2471  12.2498  12.5914  12.5997  12.9285  12.9359
    13.1505  13.1610  13.2099  13.2147  13.3133  13.3195  13.5194  13.5240
    13.7292  13.7343  13.9819  13.9910  14.2719  14.2815  14.9771  15.0021
    15.1790  15.1974  15.3009  15.3115  15.5587  15.5752  15.7523  15.7762
    16.1615  16.1725  16.4930  16.5061  17.1716  17.2091

     occupation numbers 
     1.0000   1.0000   1.0000   1.0000   1.0000   1.0000   1.0000   1.0000
     1.0000   1.0000   1.0000   1.0000   1.0000   1.0000   1.0000   1.0000
     1.0000   1.0000   1.0000   1.0000   1.0000   1.0000   1.0000   1.0000
     1.0000   1.0000   1.0000   1.0000   1.0000   1.0000   1.0000   1.0000
     1.0000   1.0000   1.0000   1.0000   1.0000   1.0000   1.0000   1.0000
     1.0000   1.0000   1.0000   1.0000   1.0000   1.0000   1.0000   1.0000
     1.0000   1.0000   1.0000   1.0000   1.0000   1.0000   1.0000   1.0000
     1.0000   1.0000   1.0000   1.0000   1.0000   1.0000   1.0000   1.0000
     1.0000   1.0000   1.0000   1.0000   1.0000   1.0000   0.3562   0.2184
    -0.0205  -0.0147  -0.0009  -0.0006  -0.0000  -0.0000  -0.0000  -0.0000
    -0.0000  -0.0000  -0.0000  -0.0000  -0.0000  -0.0000

          k = 0.1000 0.2000 0.4000 (  9656 PWs)   bands (ev):

   -56.5043 -56.5043 -56.4966 -56.4966 -56.4802 -56.4802 -56.4779 -56.4779
   -28.5882 -28.5841 -28.5793 -28.5771 -28.5389 -28.5368 -28.5171 -28.5163
   -27.6348 -27.6316 -27.5796 -27.5720 -27.5659 -27.5546 -27.5420 -27.5321
   -27.5235 -27.5052 -27.4823 -27.4751 -27.4642 -27.4551 -27.4350 -27.4334
     4.0839   4.0843   5.2223   5.2236   7.3547   7.3576   8.0849   8.0877
     9.5720   9.5734  10.1180  10.1203  11.0718  11.0770  11.5568  11.5629
    11.7333  11.7356  12.0999  12.1026  12.5619  12.5711  12.7859  12.7939
    13.1894  13.1972  13.2805  13.2855  13.3630  13.3673  13.5202  13.5264
    13.7983  13.8045  14.0210  14.0296  14.4750  14.5019  14.8018  14.8333
    15.1541  15.1684  15.2086  15.2150  15.5810  15.6004  15.6971  15.7233
    16.1851  16.1917  16.3894  16.4021  17.2754  17.2986

     occupation numbers 
     1.0000   1.0000   1.0000   1.0000   1.0000   1.0000   1.0000   1.0000
     1.0000   1.0000   1.0000   1.0000   1.0000   1.0000   1.0000   1.0000
     1.0000   1.0000   1.0000   1.0000   1.0000   1.0000   1.0000   1.0000
     1.0000   1.0000   1.0000   1.0000   1.0000   1.0000   1.0000   1.0000
     1.0000   1.0000   1.0000   1.0000   1.0000   1.0000   1.0000   1.0000
     1.0000   1.0000   1.0000   1.0000   1.0000   1.0000   1.0000   1.0000
     1.0000   1.0000   1.0000   1.0000   1.0000   1.0000   1.0000   1.0000
     1.0000   1.0000   1.0000   1.0000   1.0000   1.0000   1.0000   1.0000
[...]
    11.8848  11.8848  11.8887  11.8887  12.3764  12.3764  12.3839  12.3839
    13.2701  13.2701  13.2750  13.2750  13.8514  13.8514  13.8644  13.8644
    14.2107  14.2107  14.2177  14.2177  14.6455  14.6455  14.6729  14.6729
    14.8180  14.8180  14.8577  14.8577  15.4132  15.4132  15.4278  15.4278
    16.4545  16.4545  16.4657  16.4657  17.1052  17.1075

     occupation numbers 
     1.0000   1.0000   1.0000   1.0000   1.0000   1.0000   1.0000   1.0000
     1.0000   1.0000   1.0000   1.0000   1.0000   1.0000   1.0000   1.0000
     1.0000   1.0000   1.0000   1.0000   1.0000   1.0000   1.0000   1.0000
     1.0000   1.0000   1.0000   1.0000   1.0000   1.0000   1.0000   1.0000
     1.0000   1.0000   1.0000   1.0000   1.0000   1.0000   1.0000   1.0000
     1.0000   1.0000   1.0000   1.0000   1.0000   1.0000   1.0000   1.0000
     1.0000   1.0000   1.0000   1.0000   1.0000   1.0000   1.0000   1.0000
     1.0000   1.0000   1.0000   1.0000   1.0000   1.0000   1.0000   1.0000
     1.0000   1.0000   1.0000   1.0000   1.0031   1.0031   1.0065   1.0065
     1.0248   1.0248   0.9617   0.9617  -0.0000  -0.0000  -0.0000  -0.0000
    -0.0000  -0.0000  -0.0000  -0.0000  -0.0000  -0.0000

          k =-0.2000 0.4000 0.3000 (  9651 PWs)   bands (ev):

   -56.5013 -56.5013 -56.4957 -56.4957 -56.4822 -56.4822 -56.4798 -56.4798
   -28.5829 -28.5794 -28.5736 -28.5722 -28.5427 -28.5404 -28.5263 -28.5249
   -27.6251 -27.6227 -27.5818 -27.5767 -27.5661 -27.5609 -27.5399 -27.5319
   -27.5241 -27.5139 -27.4837 -27.4771 -27.4609 -27.4533 -27.4342 -27.4317
     4.5652   4.5656   5.5672   5.5693   6.8873   6.8916   7.6193   7.6226
     9.1377   9.1412   9.7832   9.7867  11.0153  11.0178  11.5299  11.5317
    11.7529  11.7560  12.2099  12.2131  12.6685  12.6739  12.8319  12.8386
    13.1081  13.1144  13.1937  13.2061  13.4198  13.4263  13.6483  13.6597
    13.9721  13.9826  14.2845  14.2946  14.6199  14.6456  14.8154  14.8311
    14.9756  14.9924  15.1252  15.1539  15.3613  15.3664  15.5054  15.5188
    16.2476  16.2556  16.4034  16.4122  17.1304  17.1465

     occupation numbers 
     1.0000   1.0000   1.0000   1.0000   1.0000   1.0000   1.0000   1.0000
     1.0000   1.0000   1.0000   1.0000   1.0000   1.0000   1.0000   1.0000
     1.0000   1.0000   1.0000   1.0000   1.0000   1.0000   1.0000   1.0000
     1.0000   1.0000   1.0000   1.0000   1.0000   1.0000   1.0000   1.0000
     1.0000   1.0000   1.0000   1.0000   1.0000   1.0000   1.0000   1.0000
     1.0000   1.0000   1.0000   1.0000   1.0000   1.0000   1.0000   1.0000
     1.0000   1.0000   1.0000   1.0000   1.0000   1.0000   1.0000   1.0000
     1.0000   1.0000   1.0000   1.0000   1.0000   1.0000   1.0000   1.0000
     1.0000   1.0000   1.0000   1.0000   1.0014   1.0031   1.0267   1.0115
     0.3653   0.2694  -0.0353  -0.0289  -0.0001  -0.0001  -0.0000  -0.0000
    -0.0000  -0.0000  -0.0000  -0.0000  -0.0000  -0.0000

          k =-0.2000-0.5000 0.3000 (  9660 PWs)   bands (ev):

   -56.4983 -56.4983 -56.4983 -56.4983 -56.4811 -56.4811 -56.4811 -56.4811
   -28.5792 -28.5792 -28.5743 -28.5743 -28.5360 -28.5360 -28.5322 -28.5322
   -27.6225 -27.6225 -27.5801 -27.5801 -27.5643 -27.5643 -27.5335 -27.5335
   -27.5210 -27.5210 -27.4820 -27.4820 -27.4554 -27.4554 -27.4330 -27.4330
     5.0602   5.0602   5.0613   5.0613   7.2219   7.2219   7.2268   7.2268
     9.4399   9.4399   9.4432   9.4432  11.2335  11.2335  11.2363  11.2363
    11.9948  11.9948  12.0020  12.0020  12.7536  12.7536  12.7641  12.7641
    13.1382  13.1382  13.1487  13.1487  13.5466  13.5466  13.5563  13.5563
    14.1601  14.1601  14.1694  14.1694  14.7348  14.7348  14.7605  14.7605
    15.0216  15.0216  15.0467  15.0467  15.4236  15.4236  15.4402  15.4402
    16.3233  16.3233  16.3337  16.3337  17.2486  17.2543

     occupation numbers 
     1.0000   1.0000   1.0000   1.0000   1.0000   1.0000   1.0000   1.0000
     1.0000   1.0000   1.0000   1.0000   1.0000   1.0000   1.0000   1.0000
     1.0000   1.0000   1.0000   1.0000   1.0000   1.0000   1.0000   1.0000
     1.0000   1.0000   1.0000   1.0000   1.0000   1.0000   1.0000   1.0000
     1.0000   1.0000   1.0000   1.0000   1.0000   1.0000   1.0000   1.0000
     1.0000   1.0000   1.0000   1.0000   1.0000   1.0000   1.0000   1.0000
     1.0000   1.0000   1.0000   1.0000   1.0000   1.0000   1.0000   1.0000
     1.0000   1.0000   1.0000   1.0000   1.0000   1.0000   1.0000   1.0000
     1.0000   1.0000   1.0000   1.0000   1.0227   1.0227   1.0311   1.0311
     0.1300   0.1300   0.0459   0.0459  -0.0000  -0.0000  -0.0000  -0.0000
    -0.0000  -0.0000  -0.0000  -0.0000  -0.0000  -0.0000

          k =-0.2000-0.5000 0.4000 (  9638 PWs)   bands (ev):

   -56.4972 -56.4972 -56.4972 -56.4972 -56.4823 -56.4823 -56.4823 -56.4823
   -28.5752 -28.5752 -28.5721 -28.5721 -28.5390 -28.5390 -28.5364 -28.5364
   -27.6139 -27.6139 -27.5906 -27.5906 -27.5603 -27.5603 -27.5367 -27.5367
   -27.5169 -27.5169 -27.4897 -27.4897 -27.4483 -27.4483 -27.4350 -27.4350
     5.3783   5.3783   5.3797   5.3797   6.8022   6.8022   6.8058   6.8058
     9.5481   9.5481   9.5521   9.5521  10.9113  10.9113  10.9138  10.9138
    12.1981  12.1981  12.2060  12.2060  12.5665  12.5665  12.5765  12.5765
    13.1586  13.1586  13.1646  13.1646  13.6487  13.6487  13.6618  13.6618
    14.3395  14.3395  14.3452  14.3452  14.7475  14.7475  14.7714  14.7714
    14.9078  14.9078  14.9458  14.9458  15.3604  15.3604  15.3728  15.3728
    16.3981  16.3981  16.4078  16.4078  17.0257  17.0299

     occupation numbers 
     1.0000   1.0000   1.0000   1.0000   1.0000   1.0000   1.0000   1.0000
     1.0000   1.0000   1.0000   1.0000   1.0000   1.0000   1.0000   1.0000
     1.0000   1.0000   1.0000   1.0000   1.0000   1.0000   1.0000   1.0000
     1.0000   1.0000   1.0000   1.0000   1.0000   1.0000   1.0000   1.0000
     1.0000   1.0000   1.0000   1.0000   1.0000   1.0000   1.0000   1.0000
     1.0000   1.0000   1.0000   1.0000   1.0000   1.0000   1.0000   1.0000
     1.0000   1.0000   1.0000   1.0000   1.0000   1.0000   1.0000   1.0000
     1.0000   1.0000   1.0000   1.0000   1.0000   1.0000   1.0000   1.0000
     1.0000   1.0000   1.0000   1.0000   1.0270   1.0270   1.0337   1.0337
     0.7679   0.7679   0.5486   0.5486  -0.0001  -0.0001  -0.0001  -0.0001
    -0.0000  -0.0000  -0.0000  -0.0000  -0.0000  -0.0000

          k =-0.3000-0.5000 0.4000 (  9654 PWs)   bands (ev):

   -56.4954 -56.4954 -56.4954 -56.4954 -56.4840 -56.4840 -56.4840 -56.4840
   -28.5712 -28.5712 -28.5682 -28.5682 -28.5436 -28.5436 -28.5410 -28.5410
   -27.6089 -27.6089 -27.5875 -27.5875 -27.5700 -27.5700 -27.5425 -27.5425
   -27.5092 -27.5092 -27.4793 -27.4793 -27.4542 -27.4542 -27.4390 -27.4390
     5.6192   5.6192   5.6213   5.6213   6.8419   6.8419   6.8471   6.8471
     9.1179   9.1179   9.1237   9.1237  10.4443  10.4443  10.4475  10.4475
    12.4413  12.4413  12.4495  12.4495  12.7823  12.7823  12.7913  12.7913
    13.0788  13.0788  13.0883  13.0883  13.4290  13.4290  13.4401  13.4401
    14.5072  14.5072  14.5143  14.5143  14.8784  14.8784  14.9007  14.9007
    15.0314  15.0314  15.0642  15.0642  15.2846  15.2846  15.3003  15.3003
    16.3477  16.3477  16.3566  16.3566  16.8703  16.8759

     occupation numbers 
     1.0000   1.0000   1.0000   1.0000   1.0000   1.0000   1.0000   1.0000
     1.0000   1.0000   1.0000   1.0000   1.0000   1.0000   1.0000   1.0000
     1.0000   1.0000   1.0000   1.0000   1.0000   1.0000   1.0000   1.0000
     1.0000   1.0000   1.0000   1.0000   1.0000   1.0000   1.0000   1.0000
     1.0000   1.0000   1.0000   1.0000   1.0000   1.0000   1.0000   1.0000
     1.0000   1.0000   1.0000   1.0000   1.0000   1.0000   1.0000   1.0000
     1.0000   1.0000   1.0000   1.0000   1.0000   1.0000   1.0000   1.0000
     1.0000   1.0000   1.0000   1.0000   1.0000   1.0000   1.0000   1.0000
     1.0000   1.0000   1.0000   1.0000   0.8979   0.8979   0.8030   0.8030
     0.0930   0.0930   0.0068   0.0068  -0.0016  -0.0016  -0.0009  -0.0009
    -0.0000  -0.0000  -0.0000  -0.0000  -0.0000  -0.0000

     the Fermi energy is    14.9536 ev

!    total energy              =   -1180.35034205 Ry

     total all-electron energy =    -10727.811178 Ry
     estimated scf accuracy    <       0.00000031 Ry
     smearing contrib. (-TS)   =      -0.00030973 Ry
     internal energy E=F+TS    =   -1180.35003232 Ry

     The total energy is F=E-TS. E is the sum of the following terms:
     one-electron contribution =    -336.79682966 Ry
     hartree contribution      =     207.04174983 Ry
     xc contribution           =    -114.36221738 Ry
     ewald contribution        =    -496.51183961 Ry
     one-center paw contrib.   =    -439.72089550 Ry
      -> PAW hartree energy AE =     126.71601214 Ry
      -> PAW hartree energy PS =    -125.74866114 Ry
      -> PAW xc energy AE      =     -96.23990813 Ry
      -> PAW xc energy PS      =      20.93253807 Ry
      -> total E_H with PAW    =     208.00910083 Ry
      -> total E_XC with PAW   =    -189.66958744 Ry

     convergence has been achieved in   8 iterations

     Forces acting on atoms (cartesian axes, Ry/au):

     atom    1 type  1   force =    -0.00276783   -0.00276783    0.00276783
     atom    2 type  1   force =    -0.00276783    0.00276783   -0.00276783
     atom    3 type  1   force =     0.00276783   -0.00276783   -0.00276783
     atom    4 type  1   force =     0.00276783    0.00276783    0.00276783
     atom    5 type  2   force =    -0.00433202   -0.00433202    0.00433202
     atom    6 type  2   force =    -0.00433202    0.00433202   -0.00433202
     atom    7 type  2   force =     0.00433202   -0.00433202   -0.00433202
     atom    8 type  2   force =     0.00433202    0.00433202    0.00433202
     The non-local contrib.  to forces
     atom    1 type  1   force =     0.05124698    0.05124698   -0.05124698
     atom    2 type  1   force =     0.05124698   -0.05124698    0.05124698
     atom    3 type  1   force =    -0.05124698    0.05124698    0.05124698
     atom    4 type  1   force =    -0.05124698   -0.05124698   -0.05124698
     atom    5 type  2   force =    -0.00809056   -0.00809056    0.00809056
     atom    6 type  2   force =    -0.00809056    0.00809056   -0.00809056
     atom    7 type  2   force =     0.00809056   -0.00809056   -0.00809056
     atom    8 type  2   force =     0.00809056    0.00809056    0.00809056
     The ionic contribution  to forces
     atom    1 type  1   force =    -0.85044630   -0.85044630    0.85044630
     atom    2 type  1   force =    -0.85044630    0.85044630   -0.85044630
     atom    3 type  1   force =     0.85044630   -0.85044630   -0.85044630
     atom    4 type  1   force =     0.85044630    0.85044630    0.85044630
     atom    5 type  2   force =    -0.24524978   -0.24524978    0.24524978
     atom    6 type  2   force =    -0.24524978    0.24524978   -0.24524978
     atom    7 type  2   force =     0.24524978   -0.24524978   -0.24524978
     atom    8 type  2   force =     0.24524978    0.24524978    0.24524978
     The local contribution  to forces
     atom    1 type  1   force =     0.79736592    0.79736592   -0.79736592
     atom    2 type  1   force =     0.79736592   -0.79736592    0.79736592
     atom    3 type  1   force =    -0.79736592    0.79736592    0.79736592
     atom    4 type  1   force =    -0.79736592   -0.79736592   -0.79736592
     atom    5 type  2   force =     0.24822104    0.24822104   -0.24822104
     atom    6 type  2   force =     0.24822104   -0.24822104    0.24822104
     atom    7 type  2   force =    -0.24822104    0.24822104    0.24822104
     atom    8 type  2   force =    -0.24822104   -0.24822104   -0.24822104
     The core correction contribution to forces
     atom    1 type  1   force =    -0.00103296   -0.00103296    0.00103296
     atom    2 type  1   force =    -0.00103296    0.00103296   -0.00103296
     atom    3 type  1   force =     0.00103296   -0.00103296   -0.00103296
     atom    4 type  1   force =     0.00103296    0.00103296    0.00103296
     atom    5 type  2   force =     0.00079723    0.00079723   -0.00079723
     atom    6 type  2   force =     0.00079723   -0.00079723    0.00079723
     atom    7 type  2   force =    -0.00079723    0.00079723    0.00079723
     atom    8 type  2   force =    -0.00079723   -0.00079723   -0.00079723
     The Hubbard contrib.    to forces
     atom    1 type  1   force =     0.00000000    0.00000000    0.00000000
     atom    2 type  1   force =     0.00000000    0.00000000    0.00000000
     atom    3 type  1   force =     0.00000000    0.00000000    0.00000000
     atom    4 type  1   force =     0.00000000    0.00000000    0.00000000
     atom    5 type  2   force =     0.00000000    0.00000000    0.00000000
     atom    6 type  2   force =     0.00000000    0.00000000    0.00000000
     atom    7 type  2   force =     0.00000000    0.00000000    0.00000000
     atom    8 type  2   force =     0.00000000    0.00000000    0.00000000
     The SCF correction term to forces
     atom    1 type  1   force =     0.00009852    0.00009852   -0.00009852
     atom    2 type  1   force =     0.00009852   -0.00009852    0.00009852
     atom    3 type  1   force =    -0.00009852    0.00009852    0.00009852
     atom    4 type  1   force =    -0.00009852   -0.00009852   -0.00009852
     atom    5 type  2   force =    -0.00000995   -0.00000995    0.00000995
     atom    6 type  2   force =    -0.00000995    0.00000995   -0.00000995
     atom    7 type  2   force =     0.00000995   -0.00000995   -0.00000995
     atom    8 type  2   force =     0.00000995    0.00000995    0.00000995

     Total force =     0.017808     Total SCF correction =     0.000343


     Computing stress (Cartesian axis) and pressure

          total   stress  (Ry/bohr**3)                   (kbar)     P=      -41.49
  -0.00028204   0.00000000   0.00000000          -41.49        0.00        0.00
   0.00000000  -0.00028204   0.00000000            0.00      -41.49        0.00
   0.00000000   0.00000000  -0.00028204            0.00        0.00      -41.49

     kinetic stress (kbar)  35759.87      0.00      0.00
                                0.00  35759.87      0.00
                                0.00      0.00  35759.87

     local   stress (kbar) -10012.47      0.00     -0.00
                                0.00 -10012.47     -0.00
                               -0.00     -0.00 -10012.47

     nonloc. stress (kbar)   2427.77      0.00      0.00
                                0.00   2427.77      0.00
                                0.00      0.00   2427.77

     hartree stress (kbar)  15167.23     -0.00      0.00
                               -0.00  15167.23     -0.00
                                0.00     -0.00  15167.23

     exc-cor stress (kbar)  -1706.61      0.00     -0.00
                                0.00  -1706.61     -0.00
                               -0.00     -0.00  -1706.61

     corecor stress (kbar)  -5304.38     -0.00     -0.00
                               -0.00  -5304.38     -0.00
                               -0.00     -0.00  -5304.38

     ewald   stress (kbar) -36372.90      0.00      0.00
                                0.00 -36372.90      0.00
                                0.00      0.00 -36372.90

     hubbard stress (kbar)      0.00      0.00      0.00
                                0.00      0.00      0.00
                                0.00      0.00      0.00

     DFT-D   stress (kbar)      0.00      0.00      0.00
                                0.00      0.00      0.00
                                0.00      0.00      0.00

     XDM     stress (kbar)      0.00      0.00      0.00
                                0.00      0.00      0.00
                                0.00      0.00      0.00

     dft-nl  stress (kbar)      0.00      0.00      0.00
                                0.00      0.00      0.00
                                0.00      0.00      0.00

     TS-vdW  stress (kbar)      0.00      0.00      0.00
                                0.00      0.00      0.00
                                0.00      0.00      0.00



     Writing output data file /zfs_data/vergnior/martin/Scratch/OAL/CrSi/convergence/smearing/10x10x10/0.010/tmp/CrSi.save/
 
     init_run     :     14.04s CPU     14.53s WALL (       1 calls)
     electrons    :    439.63s CPU    448.78s WALL (       1 calls)
     forces       :     13.74s CPU     13.86s WALL (       1 calls)
     stress       :     34.25s CPU     34.55s WALL (       1 calls)

     Called by init_run:
     wfcinit      :     12.76s CPU     13.07s WALL (       1 calls)
     wfcinit:atom :      0.10s CPU      0.10s WALL (      76 calls)
     wfcinit:wfcr :     12.19s CPU     12.49s WALL (      76 calls)
     potinit      :      0.21s CPU      0.28s WALL (       1 calls)
     hinit0       :      0.19s CPU      0.20s WALL (       1 calls)

     Called by electrons:
     c_bands      :    360.60s CPU    367.08s WALL (       9 calls)
     sum_band     :     73.28s CPU     75.29s WALL (       9 calls)
     v_of_rho     :      0.24s CPU      0.25s WALL (       9 calls)
     v_h          :      0.02s CPU      0.02s WALL (       9 calls)
     v_xc         :      0.27s CPU      0.28s WALL (      11 calls)
     newd         :      4.65s CPU      5.32s WALL (       9 calls)
     PAW_pot      :      1.25s CPU      1.28s WALL (       9 calls)
     mix_rho      :      0.14s CPU      0.15s WALL (       9 calls)

     Called by c_bands:
     init_us_2    :      1.98s CPU      2.01s WALL (    1596 calls)
     cegterg      :    332.61s CPU    338.58s WALL (     684 calls)

     Called by sum_band:
     sum_band:wei :      0.10s CPU      0.10s WALL (       9 calls)
     sum_band:loo :     69.59s CPU     70.75s WALL (       9 calls)
     sum_band:buf :      0.48s CPU      0.55s WALL (     684 calls)
     sum_band:ini :      0.88s CPU      0.89s WALL (     684 calls)
     sum_band:cal :      4.28s CPU      4.30s WALL (     684 calls)
     sum_band:bec :      9.58s CPU      9.61s WALL (     684 calls)
     addusdens    :      3.35s CPU      4.20s WALL (       9 calls)
     addusd:skk   :      0.01s CPU      0.01s WALL (      18 calls)
     addusd:dgemm :      1.31s CPU      2.13s WALL (      18 calls)
     addusd:qvan2 :      1.99s CPU      2.00s WALL (      18 calls)

     Called by *egterg:
     cdiaghg      :     28.50s CPU     28.61s WALL (    3743 calls)
     cegterg:over :     18.60s CPU     18.69s WALL (    3135 calls)
     cegterg:upda :      8.56s CPU      8.64s WALL (    3135 calls)
     cegterg:last :     17.01s CPU     17.08s WALL (    1995 calls)
     h_psi        :    232.94s CPU    238.52s WALL (    3895 calls)
     s_psi        :     30.40s CPU     30.53s WALL (    3895 calls)
     g_psi        :      0.53s CPU      0.54s WALL (    3135 calls)

     Called by h_psi:
     h_psi:calbec :     15.43s CPU     15.54s WALL (    3895 calls)
     vloc_psi     :    188.42s CPU    193.60s WALL (    3895 calls)
     add_vuspsi   :     27.91s CPU     28.14s WALL (    3895 calls)

     General routines
     calbec       :     21.91s CPU     22.07s WALL (    4959 calls)
     fft          :      0.27s CPU      0.28s WALL (     216 calls)
     ffts         :      0.03s CPU      0.09s WALL (      72 calls)
     fftw         :    156.62s CPU    160.81s WALL (  940380 calls)
     interpolate  :      0.07s CPU      0.13s WALL (      36 calls)
 
     Parallel routines
     fft_scatt_xy :     16.21s CPU     16.68s WALL (  940668 calls)
     fft_scatt_yz :     59.10s CPU     60.61s WALL (  940668 calls)

     PAW routines
     PAW_pot      :      1.25s CPU      1.28s WALL (       9 calls)
     PAW_symme    :      0.02s CPU      0.02s WALL (      18 calls)
 
     PWSCF        :   8m25.70s CPU   8m38.82s WALL

 
   This run was terminated on:  12:41:31   1Aug2021            

=------------------------------------------------------------------------------=
   JOB DONE.
=------------------------------------------------------------------------------=
