 vasp.5.4.4.18Apr17-6-g9f103f2a35 (build May 20 2021 12:11:10) complex          
  
 executed on             LinuxIFC date 2021.09.17  18:04:48
 running on   48 total cores
 distrk:  each k-point on   48 cores,    1 groups
 distr:  one band on NCORES_PER_BAND=   4 cores,   12 groups


--------------------------------------------------------------------------------------------------------


 INCAR:
 POTCAR:   PAW_PBE Cs_sv 08Apr2002                
 POTCAR:   PAW_PBE V_sv 07Sep2000                 
 POTCAR:   PAW_PBE Sb 06Sep2000                   
 POTCAR:   PAW_PBE Cs_sv 08Apr2002                
   VRHFIN =Cs: 5s5p6s                                                           
   LEXCH  = PE                                                                  
   EATOM  =   555.6835 eV,   40.8416 Ry                                         
                                                                                
   TITEL  = PAW_PBE Cs_sv 08Apr2002                                             
   LULTRA =        F    use ultrasoft PP ?                                      
   IUNSCR =        1    unscreen: 0-lin 1-nonlin 2-no                           
   RPACOR =    2.200    partial core radius                                     
   POMASS =  132.900; ZVAL   =    9.000    mass and valenz                      
   RCORE  =    2.500    outmost cutoff radius                                   
   RWIGS  =    2.500; RWIGS  =    1.323    wigner-seitz radius (au A)           
   ENMAX  =  220.318; ENMIN  =  165.238 eV                                      
   RCLOC  =    2.207    cutoff for local pot                                    
   LCOR   =        T    correct aug charges                                     
   LPAW   =        T    paw PP                                                  
   EAUG   =  407.933                                                            
   DEXC   =    -.004                                                            
   RMAX   =    3.106    core radius for proj-oper                               
   RAUG   =    1.300    factor for augmentation sphere                          
   RDEP   =    2.590    radius for radial grids                                 
   QCUT   =   -4.024; QGAM   =    8.048    optimization parameters              
                                                                                
   Description                                                                  
     l     E      TYP  RCUT    TYP  RCUT                                        
     0   .000     23  1.900                                                     
     0   .000     23  1.900                                                     
     0   .000     23  1.900                                                     
     0   .000     23  1.900                                                     
     1   .000     23  2.500                                                     
     1  -.200     23  2.500                                                     
     2   .000     23  2.500                                                     
  local pseudopotential read in
  partial core-charges read in
  atomic valenz-charges read in
  non local Contribution for L=           0  read in
    real space projection operators read in
  non local Contribution for L=           0  read in
    real space projection operators read in
  non local Contribution for L=           1  read in
    real space projection operators read in
  non local Contribution for L=           1  read in
    real space projection operators read in
  non local Contribution for L=           2  read in
    real space projection operators read in
    PAW grid and wavefunctions read in
 
   number of l-projection  operators is LMAX  =           5
   number of lm-projection operators is LMMAX =          13
 
 POTCAR:   PAW_PBE V_sv 07Sep2000                 
   VRHFIN =V: p6 d4 s1                                                          
   LEXCH  = PE                                                                  
   EATOM  =  1951.3925 eV,  143.4233 Ry                                         
                                                                                
   TITEL  = PAW_PBE V_sv 07Sep2000                                              
   LULTRA =        F    use ultrasoft PP ?                                      
   IUNSCR =        1    unscreen: 0-lin 1-nonlin 2-no                           
   RPACOR =    2.000    partial core radius                                     
   POMASS =   50.941; ZVAL   =   13.000    mass and valenz                      
   RCORE  =    2.300    outmost cutoff radius                                   
   RWIGS  =    2.300; RWIGS  =    1.217    wigner-seitz radius (au A)           
   ENMAX  =  263.675; ENMIN  =  197.756 eV                                      
   RCLOC  =    1.779    cutoff for local pot                                    
   LCOR   =        T    correct aug charges                                     
   LPAW   =        T    paw PP                                                  
   EAUG   =  526.568                                                            
   DEXC   =     .000                                                            
   RMAX   =    2.839    core radius for proj-oper                               
   RAUG   =    1.300    factor for augmentation sphere                          
   RDEP   =    2.430    radius for radial grids                                 
   QCUT   =   -4.402; QGAM   =    8.804    optimization parameters              
                                                                                
   Description                                                                  
     l     E      TYP  RCUT    TYP  RCUT                                        
     0   .000     23  1.800                                                     
     0   .000     23  2.300                                                     
     0   .000     23  1.800                                                     
     0   .000     23  2.300                                                     
     1   .000     23  2.000                                                     
     1   .400     23  2.000                                                     
     2   .000     23  2.300                                                     
     2   .000     23  2.300                                                     
     3   .000      7   .000                                                     
  local pseudopotential read in
  partial core-charges read in
  atomic valenz-charges read in
  non local Contribution for L=           0  read in
    real space projection operators read in
  non local Contribution for L=           0  read in
    real space projection operators read in
  non local Contribution for L=           1  read in
    real space projection operators read in
  non local Contribution for L=           1  read in
    real space projection operators read in
  non local Contribution for L=           2  read in
    real space projection operators read in
  non local Contribution for L=           2  read in
    real space projection operators read in
    PAW grid and wavefunctions read in
 
   number of l-projection  operators is LMAX  =           6
   number of lm-projection operators is LMMAX =          18
 
 POTCAR:   PAW_PBE Sb 06Sep2000                   
   VRHFIN =Sb: s2p3                                                             
   LEXCH  = PE                                                                  
   EATOM  =   149.8037 eV,   11.0103 Ry                                         
                                                                                
   TITEL  = PAW_PBE Sb 06Sep2000                                                
   LULTRA =        F    use ultrasoft PP ?                                      
   IUNSCR =        1    unscreen: 0-lin 1-nonlin 2-no                           
   RPACOR =    2.200    partial core radius                                     
   POMASS =  121.750; ZVAL   =    5.000    mass and valenz                      
   RCORE  =    2.300    outmost cutoff radius                                   
   RWIGS  =    2.980; RWIGS  =    1.577    wigner-seitz radius (au A)           
   ENMAX  =  172.037; ENMIN  =  129.028 eV                                      
   ICORE  =        3    local potential                                         
   LCOR   =        T    correct aug charges                                     
   LPAW   =        T    paw PP                                                  
   EAUG   =  380.513                                                            
   DEXC   =    -.415                                                            
   RMAX   =    3.515    core radius for proj-oper                               
   RAUG   =    1.300    factor for augmentation sphere                          
   RDEP   =    2.360    radius for radial grids                                 
   QCUT   =   -3.556; QGAM   =    7.112    optimization parameters              
                                                                                
   Description                                                                  
     l     E      TYP  RCUT    TYP  RCUT                                        
     0   .000     23  2.300                                                     
     0  1.000     23  2.300                                                     
     1   .000     23  2.300                                                     
     1   .000     23  2.300                                                     
     2   .000     23  2.300                                                     
     3  -.100     23  2.300                                                     
  local pseudopotential read in
  partial core-charges read in
  atomic valenz-charges read in
  non local Contribution for L=           0  read in
    real space projection operators read in
  non local Contribution for L=           0  read in
    real space projection operators read in
  non local Contribution for L=           1  read in
    real space projection operators read in
  non local Contribution for L=           1  read in
    real space projection operators read in
  non local Contribution for L=           2  read in
    real space projection operators read in
    PAW grid and wavefunctions read in
 
   number of l-projection  operators is LMAX  =           5
   number of lm-projection operators is LMMAX =          13
 
 PAW_PBE Cs_sv 08Apr2002                :
 energy of atom  1       EATOM= -555.6835
 kinetic energy error for atom=    0.0019 (will be added to EATOM!!)
 PAW_PBE V_sv 07Sep2000                 :
 energy of atom  2       EATOM=-1951.3925
 kinetic energy error for atom=    0.0070 (will be added to EATOM!!)
 PAW_PBE Sb 06Sep2000                   :
 energy of atom  3       EATOM= -149.8037
 kinetic energy error for atom=    0.0005 (will be added to EATOM!!)
 
 
 POSCAR: Cs  V Sb                                
  positions in direct lattice
  No initial velocities read in
 exchange correlation table for  LEXCH =        8
   RHO(1)=    0.500       N(1)  =     2000
   RHO(2)=  100.500       N(2)  =     4000
 


--------------------------------------------------------------------------------------------------------


 ion  position               nearest neighbor table
   1  0.000  0.000  0.000-
   2  0.500  0.000  0.500-   4 2.75   4 2.75   3 2.75   3 2.75   5 2.75   5 2.75   9 2.77   6 2.77
                             7 2.77   8 2.77
   3  0.000  0.500  0.500-   5 2.75   5 2.75   2 2.75   2 2.75   4 2.75   4 2.75   9 2.77   6 2.77
                             7 2.77   8 2.77
   4  0.500  0.500  0.500-   2 2.75   2 2.75   5 2.75   5 2.75   3 2.75   3 2.75   9 2.77   6 2.77
                             7 2.77   8 2.77
   5  0.000  0.000  0.500-   3 2.75   3 2.75   4 2.75   4 2.75   2 2.75   2 2.75
   6  0.333  0.667  0.730-   2 2.77   3 2.77   4 2.77   7 3.18   7 3.18   7 3.18
   7  0.667  0.333  0.730-   2 2.77   3 2.77   4 2.77   6 3.18   6 3.18   6 3.18
   8  0.333  0.667  0.270-   2 2.77   3 2.77   4 2.77   9 3.18   9 3.18   9 3.18
   9  0.667  0.333  0.270-   2 2.77   3 2.77   4 2.77   8 3.18   8 3.18   8 3.18
 
  LATTYP: Found a hexagonal cell.
 ALAT       =     5.5036918475
 C/A-ratio  =     1.7947505353
  
  Lattice vectors:
  
 A1 = (   5.5036918475,   0.0000000000,   0.0000000000)
 A2 = (  -2.7518459237,   4.7663369545,   0.0000000000)
 A3 = (   0.0000000000,   0.0000000000,   9.8777538894)


Analysis of symmetry for initial positions (statically):
=====================================================================
 Subroutine PRICEL returns:
 Original cell was already a primitive cell.
 

 Routine SETGRP: Setting up the symmetry group for a 
 hexagonal supercell.


 Subroutine GETGRP returns: Found 24 space group operations
 (whereof 24 operations were pure point group operations)
 out of a pool of 24 trial point group operations.


The static configuration has the point symmetry D_6h.


Analysis of symmetry for dynamics (positions and initial velocities):
=====================================================================
 Subroutine PRICEL returns:
 Original cell was already a primitive cell.
 

 Routine SETGRP: Setting up the symmetry group for a 
 hexagonal supercell.


 Subroutine GETGRP returns: Found 24 space group operations
 (whereof 24 operations were pure point group operations)
 out of a pool of 24 trial point group operations.


The dynamic configuration has the point symmetry D_6h.


Analysis of structural, dynamic, and magnetic symmetry:
=====================================================================
 Subroutine PRICEL returns:
 Original cell was already a primitive cell.
 

 Routine SETGRP: Setting up the symmetry group for a 
 hexagonal supercell.


 Subroutine GETGRP returns: Found  2 space group operations
 (whereof  2 operations were pure point group operations)
 out of a pool of 24 trial point group operations.


The (compounded) configuration has the point symmetry S_2 .


 Subroutine INISYM returns: Found  2 space group operations
 (whereof  2 operations are pure point group operations),
 and found     1 'primitive' translations

 
 
 KPOINTS: Hexagonal                               
  interpolating k-points between supplied coordinates
  k-points in reciprocal lattice
Space group operators:
 irot       det(A)        alpha          n_x          n_y          n_z        tau_x        tau_y        tau_z
    1     1.000000     0.000000     1.000000     0.000000     0.000000     0.000000     0.000000     0.000000
    2    -1.000000     0.000000     1.000000     0.000000     0.000000     0.000000     0.000000     0.000000


--------------------------------------------------------------------------------------------------------




 Dimension of arrays:
   k-points           NKPTS =    270   k-points in BZ     NKDIM =    270   number of bands    NBANDS=     96
   number of dos      NEDOS =    301   number of ions     NIONS =      9
   non local maximal  LDIM  =      6   non local SUM 2l+1 LMDIM =     18
   total plane-waves  NPLWV = 115200
   max r-space proj   IRMAX =      1   max aug-charges    IRDMAX=  24870
   dimension x,y,z NGX =    40 NGY =   40 NGZ =   72
   dimension x,y,z NGXF=    80 NGYF=   80 NGZF=  144
   support grid    NGXF=    80 NGYF=   80 NGZF=  144
   ions per type =               1   3   5
   NGX,Y,Z   is equivalent  to a cutoff of  12.08, 12.08, 12.12 a.u.
   NGXF,Y,Z  is equivalent  to a cutoff of  24.17, 24.17, 24.24 a.u.

 SYSTEM =  Ag3AuS2-SG214                           
 POSCAR =  Cs  V Sb                                

 Startparameter for this run:
   NWRITE =      2    write-flag & timer
   PREC   = accura    normal or accurate (medium, high low for compatibility)
   ISTART =      1    job   : 0-new  1-cont  2-samecut
   ICHARG =     11    charge: 1-file 2-atom 10-const
   ISPIN  =      1    spin polarized calculation?
   LNONCOLLINEAR =      T non collinear calculations
   LSORBIT =      T    spin-orbit coupling
   INIWAV =      1    electr: 0-lowe 1-rand  2-diag
   LASPH  =      F    aspherical Exc in radial PAW
   METAGGA=      F    non-selfconsistent MetaGGA calc.

 Electronic Relaxation 1
   ENCUT  =  500.0 eV  36.75 Ry    6.06 a.u.  10.03 10.03 18.01*2*pi/ulx,y,z
   ENINI  =  500.0     initial cutoff
   ENAUG  =  526.6 eV  augmentation charge cutoff
   NELM   =     60;   NELMIN=  2; NELMDL=  0     # of ELM steps 
   EDIFF  = 0.1E-04   stopping-criterion for ELM
   LREAL  =      F    real-space projection
   NLSPLINE    = F    spline interpolate recip. space projectors
   LCOMPAT=      F    compatible to vasp.4.4
   GGA_COMPAT  = T    GGA compatible to vasp.4.4-vasp.4.6
   LMAXPAW     = -100 max onsite density
   LMAXMIX     =    2 max onsite mixed and CHGCAR
   VOSKOWN=      0    Vosko Wilk Nusair interpolation
   ROPT   =    0.00000   0.00000   0.00000
 Ionic relaxation
   EDIFFG = 0.1E-03   stopping-criterion for IOM
   NSW    =      0    number of steps for IOM
   NBLOCK =      1;   KBLOCK =      1    inner block; outer block 
   IBRION =     -1    ionic relax: 0-MD 1-quasi-New 2-CG
   NFREE  =      0    steps in history (QN), initial steepest desc. (CG)
   ISIF   =      2    stress and relaxation
   IWAVPR =     10    prediction:  0-non 1-charg 2-wave 3-comb
   ISYM   =      2    0-nonsym 1-usesym 2-fastsym
   LCORR  =      T    Harris-Foulkes like correction to forces

   POTIM  = 0.5000    time-step for ionic-motion
   TEIN   =    0.0    initial temperature
   TEBEG  =    0.0;   TEEND  =   0.0 temperature during run
   SMASS  =  -3.00    Nose mass-parameter (am)
   estimated Nose-frequenzy (Omega)   =  0.10E-29 period in steps =****** mass=  -0.692E-27a.u.
   SCALEE = 1.0000    scale energy and forces
   NPACO  =    256;   APACO  = 16.0  distance and # of slots for P.C.
   PSTRESS=    0.0 pullay stress

  Mass of Ions in am
   POMASS = 132.90 50.94121.75
  Ionic Valenz
   ZVAL   =   9.00 13.00  5.00
  Atomic Wigner-Seitz radii
   RWIGS  =  -1.00 -1.00 -1.00
  virtual crystal weights 
   VCA    =   1.00  1.00  1.00
   NELECT =      73.0000    total number of electrons
   NUPDOWN=      -1.0000    fix difference up-down

 DOS related values:
   EMIN   =  10.00;   EMAX   =-10.00  energy-range for DOS
   EFERMI =   0.00
   ISMEAR =     0;   SIGMA  =   0.10  broadening in eV -4-tet -1-fermi 0-gaus

 Electronic relaxation 2 (details)
   IALGO  =     38    algorithm
   LDIAG  =      T    sub-space diagonalisation (order eigenvalues)
   LSUBROT=      F    optimize rotation matrix (better conditioning)
   TURBO    =      0    0=normal 1=particle mesh
   IRESTART =      0    0=no restart 2=restart with 2 vectors
   NREBOOT  =      0    no. of reboots
   NMIN     =      0    reboot dimension
   EREF     =   0.00    reference energy to select bands
   IMIX   =      4    mixing-type and parameters
     AMIX     =   0.40;   BMIX     =  1.00
     AMIX_MAG =   1.60;   BMIX_MAG =  1.00
     AMIN     =   0.10
     WC   =   100.;   INIMIX=   1;  MIXPRE=   1;  MAXMIX= -45

 Intra band minimization:
   WEIMIN = 0.0000     energy-eigenvalue tresh-hold
   EBREAK =  0.26E-07  absolut break condition
   DEPER  =   0.30     relativ break condition  

   TIME   =   0.40     timestep for ELM

  volume/ion in A,a.u.               =      28.79       194.29
  Fermi-wavevector in a.u.,A,eV,Ry     =   1.073207  2.028067 15.670822  1.151773
  Thomas-Fermi vector in A             =   2.208999
 
 Write flags
   LWAVE        =      F    write WAVECAR
   LDOWNSAMPLE  =      F    k-point downsampling of WAVECAR
   LCHARG       =      T    write CHGCAR
   LVTOT        =      F    write LOCPOT, total local potential
   LVHAR        =      F    write LOCPOT, Hartree potential only
   LELF         =      F    write electronic localiz. function (ELF)
   LORBIT       =     11    0 simple, 1 ext, 2 COOP (PROOUT), +10 PAW based schemes


 Dipole corrections
   LMONO  =      F    monopole corrections only (constant potential shift)
   LDIPOL =      F    correct potential (dipole corrections)
   IDIPOL =      0    1-x, 2-y, 3-z, 4-all directions 
   EPSILON=  1.0000000 bulk dielectric constant

 Exchange correlation treatment:
   GGA     =    --    GGA type
   LEXCH   =     8    internal setting for exchange type
   VOSKOWN=      0    Vosko Wilk Nusair interpolation
   LHFCALC =     F    Hartree Fock is set to
   LHFONE  =     F    Hartree Fock one center treatment
   AEXX    =    0.0000 exact exchange contribution

 Linear response parameters
   LEPSILON=     F    determine dielectric tensor
   LRPA    =     F    only Hartree local field effects (RPA)
   LNABLA  =     F    use nabla operator in PAW spheres
   LVEL    =     F    velocity operator in full k-point grid
   LINTERFAST=   F  fast interpolation
   KINTER  =     0    interpolate to denser k-point grid
   CSHIFT  =0.1000    complex shift for real part using Kramers Kronig
   OMEGAMAX=  -1.0    maximum frequency
   DEG_THRESHOLD= 0.2000000E-02 threshold for treating states as degnerate
   RTIME   =   -0.100 relaxation time in fs
  (WPLASMAI=    0.000 imaginary part of plasma frequency in eV, 0.658/RTIME)
   DFIELD  = 0.0000000 0.0000000 0.0000000 field for delta impulse in time
 
 Orbital magnetization related:
   ORBITALMAG=     F  switch on orbital magnetization
   LCHIMAG   =     F  perturbation theory with respect to B field
   DQ        =  0.001000  dq finite difference perturbation B field
   LLRAUG    =     F  two centre corrections for induced B field



--------------------------------------------------------------------------------------------------------


 Static calculation
 charge density and potential remain constant during run
 non collinear spin polarized calculation
 Variant of blocked Davidson
 Davidson routine will perform the subspace rotation
 perform sub-space diagonalisation
    after iterative eigenvector-optimisation
 no mixing
 using additional bands           59
 reciprocal scheme for non local part
 use partial core corrections
 calculate Harris-corrections to forces 
   (improved forces if not selfconsistent)
 use gradient corrections 
 WARNING: stress and forces are not correct
  (second derivative of E(xc) not defined)
 use of overlap-Matrix (Vanderbilt PP)
 Gauss-broadening in eV      SIGMA  =   0.10


--------------------------------------------------------------------------------------------------------


  energy-cutoff  :      500.00
  volume of cell :      259.12
      direct lattice vectors                 reciprocal lattice vectors
     5.503691847  0.000000000  0.000000000     0.181696219  0.104902361  0.000000000
    -2.751845924  4.766336954  0.000000000     0.000000000  0.209804722  0.000000000
     0.000000000  0.000000000  9.877753889     0.000000000  0.000000000  0.101237590

  length of vectors
     5.503691847  5.503691847  9.877753889     0.209804722  0.209804722  0.101237590


 
 old parameters found on file WAVECAR:
  energy-cutoff  :      500.00
  volume of cell :      259.12
      direct lattice vectors                 reciprocal lattice vectors
     5.503691847  0.000000000  0.000000000     0.181696219  0.104902361  0.000000000
    -2.751845924  4.766336954  0.000000000     0.000000000  0.209804722  0.000000000
     0.000000000  0.000000000  9.877753889     0.000000000  0.000000000  0.101237590

  length of vectors

 
 k-points in units of 2pi/SCALE and weight: Hexagonal                               
   0.00000000  0.00000000  0.00000000       0.004
   0.00313269  0.00180866  0.00000000       0.004
   0.00626539  0.00361732  0.00000000       0.004
   0.00939808  0.00542598  0.00000000       0.004
   0.01253077  0.00723465  0.00000000       0.004
   0.01566347  0.00904331  0.00000000       0.004
   0.01879616  0.01085197  0.00000000       0.004
   0.02192885  0.01266063  0.00000000       0.004
   0.02506155  0.01446929  0.00000000       0.004
   0.02819424  0.01627795  0.00000000       0.004
   0.03132693  0.01808661  0.00000000       0.004
   0.03445963  0.01989528  0.00000000       0.004
   0.03759232  0.02170394  0.00000000       0.004
   0.04072501  0.02351260  0.00000000       0.004
   0.04385771  0.02532126  0.00000000       0.004
   0.04699040  0.02712992  0.00000000       0.004
   0.05012309  0.02893858  0.00000000       0.004
   0.05325579  0.03074724  0.00000000       0.004
   0.05638848  0.03255591  0.00000000       0.004
   0.05952118  0.03436457  0.00000000       0.004
   0.06265387  0.03617323  0.00000000       0.004
   0.06578656  0.03798189  0.00000000       0.004
   0.06891926  0.03979055  0.00000000       0.004
   0.07205195  0.04159921  0.00000000       0.004
   0.07518464  0.04340787  0.00000000       0.004
   0.07831734  0.04521653  0.00000000       0.004
   0.08145003  0.04702520  0.00000000       0.004
   0.08458272  0.04883386  0.00000000       0.004
   0.08771542  0.05064252  0.00000000       0.004
   0.09084811  0.05245118  0.00000000       0.004
   0.09084811  0.05245118  0.00000000       0.004
   0.08980388  0.05425984  0.00000000       0.004
   0.08875965  0.05606850  0.00000000       0.004
   0.08771542  0.05787716  0.00000000       0.004
   0.08667118  0.05968583  0.00000000       0.004
   0.08562695  0.06149449  0.00000000       0.004
   0.08458272  0.06330315  0.00000000       0.004
   0.08353849  0.06511181  0.00000000       0.004
   0.08249426  0.06692047  0.00000000       0.004
   0.08145003  0.06872913  0.00000000       0.004
   0.08040580  0.07053779  0.00000000       0.004
   0.07936157  0.07234646  0.00000000       0.004
   0.07831734  0.07415512  0.00000000       0.004
   0.07727310  0.07596378  0.00000000       0.004
   0.07622887  0.07777244  0.00000000       0.004
   0.07518464  0.07958110  0.00000000       0.004
   0.07414041  0.08138976  0.00000000       0.004
   0.07309618  0.08319842  0.00000000       0.004
   0.07205195  0.08500709  0.00000000       0.004
   0.07100772  0.08681575  0.00000000       0.004
   0.06996349  0.08862441  0.00000000       0.004
   0.06891926  0.09043307  0.00000000       0.004
   0.06787502  0.09224173  0.00000000       0.004
   0.06683079  0.09405039  0.00000000       0.004
   0.06578656  0.09585905  0.00000000       0.004
   0.06474233  0.09766771  0.00000000       0.004
   0.06369810  0.09947638  0.00000000       0.004
   0.06265387  0.10128504  0.00000000       0.004
   0.06160964  0.10309370  0.00000000       0.004
   0.06056541  0.10490236  0.00000000       0.004
   0.06056541  0.10490236  0.00000000       0.004
   0.05847694  0.10128504  0.00000000       0.004
   0.05638848  0.09766771  0.00000000       0.004
   0.05430002  0.09405039  0.00000000       0.004
   0.05221156  0.09043307  0.00000000       0.004
   0.05012309  0.08681575  0.00000000       0.004
   0.04803463  0.08319842  0.00000000       0.004
   0.04594617  0.07958110  0.00000000       0.004
   0.04385771  0.07596378  0.00000000       0.004
   0.04176925  0.07234646  0.00000000       0.004
   0.03968078  0.06872913  0.00000000       0.004
   0.03759232  0.06511181  0.00000000       0.004
   0.03550386  0.06149449  0.00000000       0.004
   0.03341540  0.05787716  0.00000000       0.004
   0.03132693  0.05425984  0.00000000       0.004
   0.02923847  0.05064252  0.00000000       0.004
   0.02715001  0.04702520  0.00000000       0.004
   0.02506155  0.04340787  0.00000000       0.004
   0.02297308  0.03979055  0.00000000       0.004
   0.02088462  0.03617323  0.00000000       0.004
   0.01879616  0.03255590  0.00000000       0.004
   0.01670770  0.02893858  0.00000000       0.004
   0.01461924  0.02532126  0.00000000       0.004
   0.01253077  0.02170394  0.00000000       0.004
   0.01044231  0.01808661  0.00000000       0.004
   0.00835385  0.01446929  0.00000000       0.004
   0.00626539  0.01085197  0.00000000       0.004
   0.00417692  0.00723465  0.00000000       0.004
   0.00208846  0.00361732  0.00000000       0.004
   0.00000000  0.00000000  0.00000000       0.004
   0.00000000  0.00000000  0.00000000       0.004
   0.00000000  0.00000000  0.00174548       0.004
   0.00000000  0.00000000  0.00349095       0.004
   0.00000000  0.00000000  0.00523643       0.004
   0.00000000  0.00000000  0.00698190       0.004
   0.00000000  0.00000000  0.00872738       0.004
   0.00000000  0.00000000  0.01047285       0.004
   0.00000000  0.00000000  0.01221833       0.004
   0.00000000  0.00000000  0.01396381       0.004
   0.00000000  0.00000000  0.01570928       0.004
   0.00000000  0.00000000  0.01745476       0.004
   0.00000000  0.00000000  0.01920023       0.004
   0.00000000  0.00000000  0.02094571       0.004
   0.00000000  0.00000000  0.02269118       0.004
   0.00000000  0.00000000  0.02443666       0.004
   0.00000000  0.00000000  0.02618214       0.004
   0.00000000  0.00000000  0.02792761       0.004
   0.00000000  0.00000000  0.02967309       0.004
   0.00000000  0.00000000  0.03141856       0.004
   0.00000000  0.00000000  0.03316404       0.004
   0.00000000  0.00000000  0.03490951       0.004
   0.00000000  0.00000000  0.03665499       0.004
   0.00000000  0.00000000  0.03840047       0.004
   0.00000000  0.00000000  0.04014594       0.004
   0.00000000  0.00000000  0.04189142       0.004
   0.00000000  0.00000000  0.04363689       0.004
   0.00000000  0.00000000  0.04538237       0.004
   0.00000000  0.00000000  0.04712784       0.004
   0.00000000  0.00000000  0.04887332       0.004
   0.00000000  0.00000000  0.05061880       0.004
   0.00000000  0.00000000  0.05061880       0.004
   0.00313269  0.00180866  0.05061880       0.004
   0.00626539  0.00361732  0.05061880       0.004
   0.00939808  0.00542598  0.05061880       0.004
   0.01253077  0.00723465  0.05061880       0.004
   0.01566347  0.00904331  0.05061880       0.004
   0.01879616  0.01085197  0.05061880       0.004
   0.02192885  0.01266063  0.05061880       0.004
   0.02506155  0.01446929  0.05061880       0.004
   0.02819424  0.01627795  0.05061880       0.004
   0.03132693  0.01808661  0.05061880       0.004
   0.03445963  0.01989528  0.05061880       0.004
   0.03759232  0.02170394  0.05061880       0.004
   0.04072501  0.02351260  0.05061880       0.004
   0.04385771  0.02532126  0.05061880       0.004
   0.04699040  0.02712992  0.05061880       0.004
   0.05012309  0.02893858  0.05061880       0.004
   0.05325579  0.03074724  0.05061880       0.004
   0.05638848  0.03255591  0.05061880       0.004
   0.05952118  0.03436457  0.05061880       0.004
   0.06265387  0.03617323  0.05061880       0.004
   0.06578656  0.03798189  0.05061880       0.004
   0.06891926  0.03979055  0.05061880       0.004
   0.07205195  0.04159921  0.05061880       0.004
   0.07518464  0.04340787  0.05061880       0.004
   0.07831734  0.04521653  0.05061880       0.004
   0.08145003  0.04702520  0.05061880       0.004
   0.08458272  0.04883386  0.05061880       0.004
   0.08771542  0.05064252  0.05061880       0.004
   0.09084811  0.05245118  0.05061880       0.004
   0.09084811  0.05245118  0.05061880       0.004
   0.08980388  0.05425984  0.05061880       0.004
   0.08875965  0.05606850  0.05061880       0.004
   0.08771542  0.05787716  0.05061880       0.004
   0.08667118  0.05968583  0.05061880       0.004
   0.08562695  0.06149449  0.05061880       0.004
   0.08458272  0.06330315  0.05061880       0.004
   0.08353849  0.06511181  0.05061880       0.004
   0.08249426  0.06692047  0.05061880       0.004
   0.08145003  0.06872913  0.05061880       0.004
   0.08040580  0.07053779  0.05061880       0.004
   0.07936157  0.07234646  0.05061880       0.004
   0.07831734  0.07415512  0.05061880       0.004
   0.07727310  0.07596378  0.05061880       0.004
   0.07622887  0.07777244  0.05061880       0.004
   0.07518464  0.07958110  0.05061880       0.004
   0.07414041  0.08138976  0.05061880       0.004
   0.07309618  0.08319842  0.05061880       0.004
   0.07205195  0.08500709  0.05061880       0.004
   0.07100772  0.08681575  0.05061880       0.004
   0.06996349  0.08862441  0.05061880       0.004
   0.06891926  0.09043307  0.05061880       0.004
   0.06787502  0.09224173  0.05061880       0.004
   0.06683079  0.09405039  0.05061880       0.004
   0.06578656  0.09585905  0.05061880       0.004
   0.06474233  0.09766771  0.05061880       0.004
   0.06369810  0.09947638  0.05061880       0.004
   0.06265387  0.10128504  0.05061880       0.004
   0.06160964  0.10309370  0.05061880       0.004
   0.06056541  0.10490236  0.05061880       0.004
   0.06056541  0.10490236  0.05061880       0.004
   0.05847694  0.10128504  0.05061880       0.004
   0.05638848  0.09766771  0.05061880       0.004
   0.05430002  0.09405039  0.05061880       0.004
   0.05221156  0.09043307  0.05061880       0.004
   0.05012309  0.08681575  0.05061880       0.004
   0.04803463  0.08319842  0.05061880       0.004
   0.04594617  0.07958110  0.05061880       0.004
   0.04385771  0.07596378  0.05061880       0.004
   0.04176925  0.07234646  0.05061880       0.004
   0.03968078  0.06872913  0.05061880       0.004
   0.03759232  0.06511181  0.05061880       0.004
   0.03550386  0.06149449  0.05061880       0.004
   0.03341540  0.05787716  0.05061880       0.004
   0.03132693  0.05425984  0.05061880       0.004
   0.02923847  0.05064252  0.05061880       0.004
   0.02715001  0.04702520  0.05061880       0.004
   0.02506155  0.04340787  0.05061880       0.004
   0.02297308  0.03979055  0.05061880       0.004
   0.02088462  0.03617323  0.05061880       0.004
   0.01879616  0.03255590  0.05061880       0.004
   0.01670770  0.02893858  0.05061880       0.004
   0.01461924  0.02532126  0.05061880       0.004
   0.01253077  0.02170394  0.05061880       0.004
   0.01044231  0.01808661  0.05061880       0.004
   0.00835385  0.01446929  0.05061880       0.004
   0.00626539  0.01085197  0.05061880       0.004
   0.00417692  0.00723465  0.05061880       0.004
   0.00208846  0.00361732  0.05061880       0.004
   0.00000000  0.00000000  0.05061880       0.004
   0.09084811  0.05245118  0.05061880       0.004
   0.09084811  0.05245118  0.04887332       0.004
   0.09084811  0.05245118  0.04712784       0.004
   0.09084811  0.05245118  0.04538237       0.004
   0.09084811  0.05245118  0.04363689       0.004
   0.09084811  0.05245118  0.04189142       0.004
   0.09084811  0.05245118  0.04014594       0.004
   0.09084811  0.05245118  0.03840047       0.004
   0.09084811  0.05245118  0.03665499       0.004
   0.09084811  0.05245118  0.03490951       0.004
   0.09084811  0.05245118  0.03316404       0.004
   0.09084811  0.05245118  0.03141856       0.004
   0.09084811  0.05245118  0.02967309       0.004
   0.09084811  0.05245118  0.02792761       0.004
   0.09084811  0.05245118  0.02618214       0.004
   0.09084811  0.05245118  0.02443666       0.004
   0.09084811  0.05245118  0.02269118       0.004
   0.09084811  0.05245118  0.02094571       0.004
   0.09084811  0.05245118  0.01920023       0.004
   0.09084811  0.05245118  0.01745476       0.004
   0.09084811  0.05245118  0.01570928       0.004
   0.09084811  0.05245118  0.01396381       0.004
   0.09084811  0.05245118  0.01221833       0.004
   0.09084811  0.05245118  0.01047285       0.004
   0.09084811  0.05245118  0.00872738       0.004
   0.09084811  0.05245118  0.00698190       0.004
   0.09084811  0.05245118  0.00523643       0.004
   0.09084811  0.05245118  0.00349095       0.004
   0.09084811  0.05245118  0.00174548       0.004
   0.09084811  0.05245118  0.00000000       0.004
   0.06056541  0.10490236  0.00000000       0.004
   0.06056541  0.10490236  0.00174548       0.004
   0.06056541  0.10490236  0.00349095       0.004
   0.06056541  0.10490236  0.00523643       0.004
   0.06056541  0.10490236  0.00698190       0.004
   0.06056541  0.10490236  0.00872738       0.004
   0.06056541  0.10490236  0.01047285       0.004
   0.06056541  0.10490236  0.01221833       0.004
   0.06056541  0.10490236  0.01396381       0.004
   0.06056541  0.10490236  0.01570928       0.004
   0.06056541  0.10490236  0.01745476       0.004
   0.06056541  0.10490236  0.01920023       0.004
   0.06056541  0.10490236  0.02094571       0.004
   0.06056541  0.10490236  0.02269118       0.004
   0.06056541  0.10490236  0.02443666       0.004
   0.06056541  0.10490236  0.02618214       0.004
   0.06056541  0.10490236  0.02792761       0.004
   0.06056541  0.10490236  0.02967309       0.004
   0.06056541  0.10490236  0.03141856       0.004
   0.06056541  0.10490236  0.03316404       0.004
   0.06056541  0.10490236  0.03490951       0.004
   0.06056541  0.10490236  0.03665499       0.004
   0.06056541  0.10490236  0.03840047       0.004
   0.06056541  0.10490236  0.04014594       0.004
   0.06056541  0.10490236  0.04189142       0.004
   0.06056541  0.10490236  0.04363689       0.004
   0.06056541  0.10490236  0.04538237       0.004
   0.06056541  0.10490236  0.04712784       0.004
   0.06056541  0.10490236  0.04887332       0.004
   0.06056541  0.10490236  0.05061880       0.004
 
 k-points in reciprocal lattice and weights: Hexagonal                               
   0.00000000  0.00000000  0.00000000       0.004
   0.01724138  0.00000000  0.00000000       0.004
   0.03448276  0.00000000  0.00000000       0.004
   0.05172414  0.00000000  0.00000000       0.004
   0.06896552  0.00000000  0.00000000       0.004
   0.08620690  0.00000000  0.00000000       0.004
   0.10344828  0.00000000  0.00000000       0.004
   0.12068966  0.00000000  0.00000000       0.004
   0.13793103  0.00000000  0.00000000       0.004
   0.15517241  0.00000000  0.00000000       0.004
   0.17241379  0.00000000  0.00000000       0.004
   0.18965517  0.00000000  0.00000000       0.004
   0.20689655  0.00000000  0.00000000       0.004
   0.22413793  0.00000000  0.00000000       0.004
   0.24137931  0.00000000  0.00000000       0.004
   0.25862069  0.00000000  0.00000000       0.004
   0.27586207  0.00000000  0.00000000       0.004
   0.29310345  0.00000000  0.00000000       0.004
   0.31034483  0.00000000  0.00000000       0.004
   0.32758621  0.00000000  0.00000000       0.004
   0.34482759  0.00000000  0.00000000       0.004
   0.36206897  0.00000000  0.00000000       0.004
   0.37931034  0.00000000  0.00000000       0.004
   0.39655172  0.00000000  0.00000000       0.004
   0.41379310  0.00000000  0.00000000       0.004
   0.43103448  0.00000000  0.00000000       0.004
   0.44827586  0.00000000  0.00000000       0.004
   0.46551724  0.00000000  0.00000000       0.004
   0.48275862  0.00000000  0.00000000       0.004
   0.50000000  0.00000000  0.00000000       0.004
   0.50000000  0.00000000  0.00000000       0.004
   0.49425287  0.01149425  0.00000000       0.004
   0.48850575  0.02298851  0.00000000       0.004
   0.48275862  0.03448276  0.00000000       0.004
   0.47701149  0.04597701  0.00000000       0.004
   0.47126437  0.05747126  0.00000000       0.004
   0.46551724  0.06896552  0.00000000       0.004
   0.45977011  0.08045977  0.00000000       0.004
   0.45402299  0.09195402  0.00000000       0.004
   0.44827586  0.10344827  0.00000000       0.004
   0.44252873  0.11494253  0.00000000       0.004
   0.43678161  0.12643678  0.00000000       0.004
   0.43103448  0.13793103  0.00000000       0.004
   0.42528735  0.14942529  0.00000000       0.004
   0.41954023  0.16091954  0.00000000       0.004
   0.41379310  0.17241379  0.00000000       0.004
   0.40804598  0.18390804  0.00000000       0.004
   0.40229885  0.19540230  0.00000000       0.004
   0.39655172  0.20689655  0.00000000       0.004
   0.39080460  0.21839080  0.00000000       0.004
   0.38505747  0.22988506  0.00000000       0.004
   0.37931034  0.24137931  0.00000000       0.004
   0.37356322  0.25287356  0.00000000       0.004
   0.36781609  0.26436781  0.00000000       0.004
   0.36206896  0.27586207  0.00000000       0.004
   0.35632184  0.28735632  0.00000000       0.004
   0.35057471  0.29885057  0.00000000       0.004
   0.34482758  0.31034482  0.00000000       0.004
   0.33908046  0.32183908  0.00000000       0.004
   0.33333333  0.33333333  0.00000000       0.004
   0.33333333  0.33333333  0.00000000       0.004
   0.32183908  0.32183908  0.00000000       0.004
   0.31034482  0.31034482  0.00000000       0.004
   0.29885057  0.29885057  0.00000000       0.004
   0.28735632  0.28735632  0.00000000       0.004
   0.27586207  0.27586207  0.00000000       0.004
   0.26436781  0.26436781  0.00000000       0.004
   0.25287356  0.25287356  0.00000000       0.004
   0.24137931  0.24137931  0.00000000       0.004
   0.22988506  0.22988506  0.00000000       0.004
   0.21839080  0.21839080  0.00000000       0.004
   0.20689655  0.20689655  0.00000000       0.004
   0.19540230  0.19540230  0.00000000       0.004
   0.18390804  0.18390804  0.00000000       0.004
   0.17241379  0.17241379  0.00000000       0.004
   0.16091954  0.16091954  0.00000000       0.004
   0.14942529  0.14942529  0.00000000       0.004
   0.13793103  0.13793103  0.00000000       0.004
   0.12643678  0.12643678  0.00000000       0.004
   0.11494253  0.11494253  0.00000000       0.004
   0.10344827  0.10344827  0.00000000       0.004
   0.09195402  0.09195402  0.00000000       0.004
   0.08045977  0.08045977  0.00000000       0.004
   0.06896552  0.06896552  0.00000000       0.004
   0.05747126  0.05747126  0.00000000       0.004
   0.04597701  0.04597701  0.00000000       0.004
   0.03448276  0.03448276  0.00000000       0.004
   0.02298851  0.02298851  0.00000000       0.004
   0.01149425  0.01149425  0.00000000       0.004
   0.00000000  0.00000000  0.00000000       0.004
   0.00000000  0.00000000  0.00000000       0.004
   0.00000000  0.00000000  0.01724138       0.004
   0.00000000  0.00000000  0.03448276       0.004
   0.00000000  0.00000000  0.05172414       0.004
   0.00000000  0.00000000  0.06896552       0.004
   0.00000000  0.00000000  0.08620690       0.004
   0.00000000  0.00000000  0.10344828       0.004
   0.00000000  0.00000000  0.12068966       0.004
   0.00000000  0.00000000  0.13793103       0.004
   0.00000000  0.00000000  0.15517241       0.004
   0.00000000  0.00000000  0.17241379       0.004
   0.00000000  0.00000000  0.18965517       0.004
   0.00000000  0.00000000  0.20689655       0.004
   0.00000000  0.00000000  0.22413793       0.004
   0.00000000  0.00000000  0.24137931       0.004
   0.00000000  0.00000000  0.25862069       0.004
   0.00000000  0.00000000  0.27586207       0.004
   0.00000000  0.00000000  0.29310345       0.004
   0.00000000  0.00000000  0.31034483       0.004
   0.00000000  0.00000000  0.32758621       0.004
   0.00000000  0.00000000  0.34482759       0.004
   0.00000000  0.00000000  0.36206897       0.004
   0.00000000  0.00000000  0.37931034       0.004
   0.00000000  0.00000000  0.39655172       0.004
   0.00000000  0.00000000  0.41379310       0.004
   0.00000000  0.00000000  0.43103448       0.004
   0.00000000  0.00000000  0.44827586       0.004
   0.00000000  0.00000000  0.46551724       0.004
   0.00000000  0.00000000  0.48275862       0.004
   0.00000000  0.00000000  0.50000000       0.004
   0.00000000  0.00000000  0.50000000       0.004
   0.01724138  0.00000000  0.50000000       0.004
   0.03448276  0.00000000  0.50000000       0.004
   0.05172414  0.00000000  0.50000000       0.004
   0.06896552  0.00000000  0.50000000       0.004
   0.08620690  0.00000000  0.50000000       0.004
   0.10344828  0.00000000  0.50000000       0.004
   0.12068966  0.00000000  0.50000000       0.004
   0.13793103  0.00000000  0.50000000       0.004
   0.15517241  0.00000000  0.50000000       0.004
   0.17241379  0.00000000  0.50000000       0.004
   0.18965517  0.00000000  0.50000000       0.004
   0.20689655  0.00000000  0.50000000       0.004
   0.22413793  0.00000000  0.50000000       0.004
   0.24137931  0.00000000  0.50000000       0.004
   0.25862069  0.00000000  0.50000000       0.004
   0.27586207  0.00000000  0.50000000       0.004
   0.29310345  0.00000000  0.50000000       0.004
   0.31034483  0.00000000  0.50000000       0.004
   0.32758621  0.00000000  0.50000000       0.004
   0.34482759  0.00000000  0.50000000       0.004
   0.36206897  0.00000000  0.50000000       0.004
   0.37931034  0.00000000  0.50000000       0.004
   0.39655172  0.00000000  0.50000000       0.004
   0.41379310  0.00000000  0.50000000       0.004
   0.43103448  0.00000000  0.50000000       0.004
   0.44827586  0.00000000  0.50000000       0.004
   0.46551724  0.00000000  0.50000000       0.004
   0.48275862  0.00000000  0.50000000       0.004
   0.50000000  0.00000000  0.50000000       0.004
   0.50000000  0.00000000  0.50000000       0.004
   0.49425287  0.01149425  0.50000000       0.004
   0.48850575  0.02298851  0.50000000       0.004
   0.48275862  0.03448276  0.50000000       0.004
   0.47701149  0.04597701  0.50000000       0.004
   0.47126437  0.05747126  0.50000000       0.004
   0.46551724  0.06896552  0.50000000       0.004
   0.45977011  0.08045977  0.50000000       0.004
   0.45402299  0.09195402  0.50000000       0.004
   0.44827586  0.10344827  0.50000000       0.004
   0.44252873  0.11494253  0.50000000       0.004
   0.43678161  0.12643678  0.50000000       0.004
   0.43103448  0.13793103  0.50000000       0.004
   0.42528735  0.14942529  0.50000000       0.004
   0.41954023  0.16091954  0.50000000       0.004
   0.41379310  0.17241379  0.50000000       0.004
   0.40804598  0.18390804  0.50000000       0.004
   0.40229885  0.19540230  0.50000000       0.004
   0.39655172  0.20689655  0.50000000       0.004
   0.39080460  0.21839080  0.50000000       0.004
   0.38505747  0.22988506  0.50000000       0.004
   0.37931034  0.24137931  0.50000000       0.004
   0.37356322  0.25287356  0.50000000       0.004
   0.36781609  0.26436781  0.50000000       0.004
   0.36206896  0.27586207  0.50000000       0.004
   0.35632184  0.28735632  0.50000000       0.004
   0.35057471  0.29885057  0.50000000       0.004
   0.34482758  0.31034482  0.50000000       0.004
   0.33908046  0.32183908  0.50000000       0.004
   0.33333333  0.33333333  0.50000000       0.004
   0.33333333  0.33333333  0.50000000       0.004
   0.32183908  0.32183908  0.50000000       0.004
   0.31034482  0.31034482  0.50000000       0.004
   0.29885057  0.29885057  0.50000000       0.004
   0.28735632  0.28735632  0.50000000       0.004
   0.27586207  0.27586207  0.50000000       0.004
   0.26436781  0.26436781  0.50000000       0.004
   0.25287356  0.25287356  0.50000000       0.004
   0.24137931  0.24137931  0.50000000       0.004
   0.22988506  0.22988506  0.50000000       0.004
   0.21839080  0.21839080  0.50000000       0.004
   0.20689655  0.20689655  0.50000000       0.004
   0.19540230  0.19540230  0.50000000       0.004
   0.18390804  0.18390804  0.50000000       0.004
   0.17241379  0.17241379  0.50000000       0.004
   0.16091954  0.16091954  0.50000000       0.004
   0.14942529  0.14942529  0.50000000       0.004
   0.13793103  0.13793103  0.50000000       0.004
   0.12643678  0.12643678  0.50000000       0.004
   0.11494253  0.11494253  0.50000000       0.004
   0.10344827  0.10344827  0.50000000       0.004
   0.09195402  0.09195402  0.50000000       0.004
   0.08045977  0.08045977  0.50000000       0.004
   0.06896552  0.06896552  0.50000000       0.004
   0.05747126  0.05747126  0.50000000       0.004
   0.04597701  0.04597701  0.50000000       0.004
   0.03448276  0.03448276  0.50000000       0.004
   0.02298851  0.02298851  0.50000000       0.004
   0.01149425  0.01149425  0.50000000       0.004
   0.00000000  0.00000000  0.50000000       0.004
   0.50000000  0.00000000  0.50000000       0.004
   0.50000000  0.00000000  0.48275862       0.004
   0.50000000  0.00000000  0.46551724       0.004
   0.50000000  0.00000000  0.44827586       0.004
   0.50000000  0.00000000  0.43103448       0.004
   0.50000000  0.00000000  0.41379310       0.004
   0.50000000  0.00000000  0.39655172       0.004
   0.50000000  0.00000000  0.37931034       0.004
   0.50000000  0.00000000  0.36206897       0.004
   0.50000000  0.00000000  0.34482759       0.004
   0.50000000  0.00000000  0.32758621       0.004
   0.50000000  0.00000000  0.31034483       0.004
   0.50000000  0.00000000  0.29310345       0.004
   0.50000000  0.00000000  0.27586207       0.004
   0.50000000  0.00000000  0.25862069       0.004
   0.50000000  0.00000000  0.24137931       0.004
   0.50000000  0.00000000  0.22413793       0.004
   0.50000000  0.00000000  0.20689655       0.004
   0.50000000  0.00000000  0.18965517       0.004
   0.50000000  0.00000000  0.17241379       0.004
   0.50000000  0.00000000  0.15517241       0.004
   0.50000000  0.00000000  0.13793103       0.004
   0.50000000  0.00000000  0.12068966       0.004
   0.50000000  0.00000000  0.10344828       0.004
   0.50000000  0.00000000  0.08620690       0.004
   0.50000000  0.00000000  0.06896552       0.004
   0.50000000  0.00000000  0.05172414       0.004
   0.50000000  0.00000000  0.03448276       0.004
   0.50000000  0.00000000  0.01724138       0.004
   0.50000000  0.00000000  0.00000000       0.004
   0.33333333  0.33333333  0.00000000       0.004
   0.33333333  0.33333333  0.01724138       0.004
   0.33333333  0.33333333  0.03448276       0.004
   0.33333333  0.33333333  0.05172414       0.004
   0.33333333  0.33333333  0.06896552       0.004
   0.33333333  0.33333333  0.08620690       0.004
   0.33333333  0.33333333  0.10344828       0.004
   0.33333333  0.33333333  0.12068966       0.004
   0.33333333  0.33333333  0.13793103       0.004
   0.33333333  0.33333333  0.15517241       0.004
   0.33333333  0.33333333  0.17241379       0.004
   0.33333333  0.33333333  0.18965517       0.004
   0.33333333  0.33333333  0.20689655       0.004
   0.33333333  0.33333333  0.22413793       0.004
   0.33333333  0.33333333  0.24137931       0.004
   0.33333333  0.33333333  0.25862069       0.004
   0.33333333  0.33333333  0.27586207       0.004
   0.33333333  0.33333333  0.29310345       0.004
   0.33333333  0.33333333  0.31034483       0.004
   0.33333333  0.33333333  0.32758621       0.004
   0.33333333  0.33333333  0.34482759       0.004
   0.33333333  0.33333333  0.36206897       0.004
   0.33333333  0.33333333  0.37931034       0.004
   0.33333333  0.33333333  0.39655172       0.004
   0.33333333  0.33333333  0.41379310       0.004
   0.33333333  0.33333333  0.43103448       0.004
   0.33333333  0.33333333  0.44827586       0.004
   0.33333333  0.33333333  0.46551724       0.004
   0.33333333  0.33333333  0.48275862       0.004
   0.33333333  0.33333333  0.50000000       0.004
 
 position of ions in fractional coordinates (direct lattice) 
   0.00000000  0.00000000  0.00000000
   0.50000000  0.00000000  0.50000000
   0.00000000  0.50000000  0.50000000
   0.50000000  0.50000000  0.50000000
   0.00000000  0.00000000  0.50000000
   0.33333333  0.66666667  0.73014512
   0.66666667  0.33333333  0.73014512
   0.33333333  0.66666667  0.26985488
   0.66666667  0.33333333  0.26985488
 
 position of ions in cartesian coordinates  (Angst):
   0.00000000  0.00000000  0.00000000
   2.75184592  0.00000000  4.93887694
  -1.37592296  2.38316848  4.93887694
   1.37592296  2.38316848  4.93887694
   0.00000000  0.00000000  4.93887694
  -0.00000000  3.17755797  7.21219375
   2.75184592  1.58877898  7.21219375
  -0.00000000  3.17755797  2.66556014
   2.75184592  1.58877898  2.66556014
 
 Euler angles ALPHA=     0.0000000  BETA=     0.0000000

 transformation matrix from SAXIS to cartesian coordinates
 ---------------------------------------------------------
     1.0000000 m_x     0.0000000 m_y     0.0000000 m_z
     0.0000000 m_x     1.0000000 m_y     0.0000000 m_z
     0.0000000 m_x     0.0000000 m_y     1.0000000 m_z

 transformation matrix from cartesian coordinates to SAXIS
 ---------------------------------------------------------
     1.0000000 m_x     0.0000000 m_y     0.0000000 m_z
     0.0000000 m_x     1.0000000 m_y     0.0000000 m_z
     0.0000000 m_x     0.0000000 m_y     1.0000000 m_z




--------------------------------------------------------------------------------------------------------


 k-point  1 :   0.0000 0.0000 0.0000  plane waves:   13070
 k-point  2 :   0.0172 0.0000 0.0000  plane waves:   13034
 k-point  3 :   0.0345 0.0000 0.0000  plane waves:   13034
 k-point  4 :   0.0517 0.0000 0.0000  plane waves:   13054
 k-point  5 :   0.0690 0.0000 0.0000  plane waves:   13054
 k-point  6 :   0.0862 0.0000 0.0000  plane waves:   13078
 k-point  7 :   0.1034 0.0000 0.0000  plane waves:   13086
 k-point  8 :   0.1207 0.0000 0.0000  plane waves:   13098
 k-point  9 :   0.1379 0.0000 0.0000  plane waves:   13118
 k-point 10 :   0.1552 0.0000 0.0000  plane waves:   13122
 k-point 11 :   0.1724 0.0000 0.0000  plane waves:   13130
 k-point 12 :   0.1897 0.0000 0.0000  plane waves:   13146
 k-point 13 :   0.2069 0.0000 0.0000  plane waves:   13162
 k-point 14 :   0.2241 0.0000 0.0000  plane waves:   13170
 k-point 15 :   0.2414 0.0000 0.0000  plane waves:   13126
 k-point 16 :   0.2586 0.0000 0.0000  plane waves:   13114
 k-point 17 :   0.2759 0.0000 0.0000  plane waves:   13134
 k-point 18 :   0.2931 0.0000 0.0000  plane waves:   13134
 k-point 19 :   0.3103 0.0000 0.0000  plane waves:   13136
 k-point 20 :   0.3276 0.0000 0.0000  plane waves:   13132
 k-point 21 :   0.3448 0.0000 0.0000  plane waves:   13128
 k-point 22 :   0.3621 0.0000 0.0000  plane waves:   13140
 k-point 23 :   0.3793 0.0000 0.0000  plane waves:   13144
 k-point 24 :   0.3966 0.0000 0.0000  plane waves:   13120
 k-point 25 :   0.4138 0.0000 0.0000  plane waves:   13152
 k-point 26 :   0.4310 0.0000 0.0000  plane waves:   13136
 k-point 27 :   0.4483 0.0000 0.0000  plane waves:   13140
 k-point 28 :   0.4655 0.0000 0.0000  plane waves:   13116
 k-point 29 :   0.4828 0.0000 0.0000  plane waves:   13124
 k-point 30 :   0.5000 0.0000 0.0000  plane waves:   13128
 k-point 31 :   0.5000 0.0000 0.0000  plane waves:   13128
 k-point 32 :   0.4943 0.0115 0.0000  plane waves:   13124
 k-point 33 :   0.4885 0.0230 0.0000  plane waves:   13112
 k-point 34 :   0.4828 0.0345 0.0000  plane waves:   13104
 k-point 35 :   0.4770 0.0460 0.0000  plane waves:   13120
 k-point 36 :   0.4713 0.0575 0.0000  plane waves:   13124
 k-point 37 :   0.4655 0.0690 0.0000  plane waves:   13124
 k-point 38 :   0.4598 0.0805 0.0000  plane waves:   13124
 k-point 39 :   0.4540 0.0920 0.0000  plane waves:   13140
 k-point 40 :   0.4483 0.1034 0.0000  plane waves:   13148
 k-point 41 :   0.4425 0.1149 0.0000  plane waves:   13156
 k-point 42 :   0.4368 0.1264 0.0000  plane waves:   13152
 k-point 43 :   0.4310 0.1379 0.0000  plane waves:   13160
 k-point 44 :   0.4253 0.1494 0.0000  plane waves:   13160
 k-point 45 :   0.4195 0.1609 0.0000  plane waves:   13152
 k-point 46 :   0.4138 0.1724 0.0000  plane waves:   13160
 k-point 47 :   0.4080 0.1839 0.0000  plane waves:   13152
 k-point 48 :   0.4023 0.1954 0.0000  plane waves:   13160
 k-point 49 :   0.3966 0.2069 0.0000  plane waves:   13152
 k-point 50 :   0.3908 0.2184 0.0000  plane waves:   13144
 k-point 51 :   0.3851 0.2299 0.0000  plane waves:   13128
 k-point 52 :   0.3793 0.2414 0.0000  plane waves:   13148
 k-point 53 :   0.3736 0.2529 0.0000  plane waves:   13168
 k-point 54 :   0.3678 0.2644 0.0000  plane waves:   13164
 k-point 55 :   0.3621 0.2759 0.0000  plane waves:   13148
 k-point 56 :   0.3563 0.2874 0.0000  plane waves:   13124
 k-point 57 :   0.3506 0.2989 0.0000  plane waves:   13116
 k-point 58 :   0.3448 0.3103 0.0000  plane waves:   13128
 k-point 59 :   0.3391 0.3218 0.0000  plane waves:   13124
 k-point 60 :   0.3333 0.3333 0.0000  plane waves:   13116
 k-point 61 :   0.3333 0.3333 0.0000  plane waves:   13116
 k-point 62 :   0.3218 0.3218 0.0000  plane waves:   13140
 k-point 63 :   0.3103 0.3103 0.0000  plane waves:   13156
 k-point 64 :   0.2989 0.2989 0.0000  plane waves:   13148
 k-point 65 :   0.2874 0.2874 0.0000  plane waves:   13160
 k-point 66 :   0.2759 0.2759 0.0000  plane waves:   13152
 k-point 67 :   0.2644 0.2644 0.0000  plane waves:   13164
 k-point 68 :   0.2529 0.2529 0.0000  plane waves:   13168
 k-point 69 :   0.2414 0.2414 0.0000  plane waves:   13152
 k-point 70 :   0.2299 0.2299 0.0000  plane waves:   13176
 k-point 71 :   0.2184 0.2184 0.0000  plane waves:   13180
 k-point 72 :   0.2069 0.2069 0.0000  plane waves:   13152
 k-point 73 :   0.1954 0.1954 0.0000  plane waves:   13136
 k-point 74 :   0.1839 0.1839 0.0000  plane waves:   13160
 k-point 75 :   0.1724 0.1724 0.0000  plane waves:   13160
 k-point 76 :   0.1609 0.1609 0.0000  plane waves:   13168
 k-point 77 :   0.1494 0.1494 0.0000  plane waves:   13196
 k-point 78 :   0.1379 0.1379 0.0000  plane waves:   13172
 k-point 79 :   0.1264 0.1264 0.0000  plane waves:   13164
 k-point 80 :   0.1149 0.1149 0.0000  plane waves:   13160
 k-point 81 :   0.1034 0.1034 0.0000  plane waves:   13144
 k-point 82 :   0.0920 0.0920 0.0000  plane waves:   13164
 k-point 83 :   0.0805 0.0805 0.0000  plane waves:   13148
 k-point 84 :   0.0690 0.0690 0.0000  plane waves:   13108
 k-point 85 :   0.0575 0.0575 0.0000  plane waves:   13116
 k-point 86 :   0.0460 0.0460 0.0000  plane waves:   13072
 k-point 87 :   0.0345 0.0345 0.0000  plane waves:   13060
 k-point 88 :   0.0230 0.0230 0.0000  plane waves:   13024
 k-point 89 :   0.0115 0.0115 0.0000  plane waves:   13034
 k-point 90 :   0.0000 0.0000 0.0000  plane waves:   13070
 k-point 91 :   0.0000 0.0000 0.0000  plane waves:   13070
 k-point 92 :   0.0000 0.0000 0.0172  plane waves:   13080
 k-point 93 :   0.0000 0.0000 0.0345  plane waves:   13056
 k-point 94 :   0.0000 0.0000 0.0517  plane waves:   13008
 k-point 95 :   0.0000 0.0000 0.0690  plane waves:   13008
 k-point 96 :   0.0000 0.0000 0.0862  plane waves:   13032
 k-point 97 :   0.0000 0.0000 0.1034  plane waves:   13044
 k-point 98 :   0.0000 0.0000 0.1207  plane waves:   13080
 k-point 99 :   0.0000 0.0000 0.1379  plane waves:   13092
 k-point ** :   0.0000 0.0000 0.1552  plane waves:   13092
 k-point ** :   0.0000 0.0000 0.1724  plane waves:   13092
 k-point ** :   0.0000 0.0000 0.1897  plane waves:   13140
 k-point ** :   0.0000 0.0000 0.2069  plane waves:   13140
 k-point ** :   0.0000 0.0000 0.2241  plane waves:   13140
 k-point ** :   0.0000 0.0000 0.2414  plane waves:   13140
 k-point ** :   0.0000 0.0000 0.2586  plane waves:   13140
 k-point ** :   0.0000 0.0000 0.2759  plane waves:   13152
 k-point ** :   0.0000 0.0000 0.2931  plane waves:   13104
 k-point ** :   0.0000 0.0000 0.3103  plane waves:   13080
 k-point ** :   0.0000 0.0000 0.3276  plane waves:   13080
 k-point ** :   0.0000 0.0000 0.3448  plane waves:   13092
 k-point ** :   0.0000 0.0000 0.3621  plane waves:   13104
 k-point ** :   0.0000 0.0000 0.3793  plane waves:   13104
 k-point ** :   0.0000 0.0000 0.3966  plane waves:   13080
 k-point ** :   0.0000 0.0000 0.4138  plane waves:   13080
 k-point ** :   0.0000 0.0000 0.4310  plane waves:   13104
 k-point ** :   0.0000 0.0000 0.4483  plane waves:   13092
 k-point ** :   0.0000 0.0000 0.4655  plane waves:   13092
 k-point ** :   0.0000 0.0000 0.4828  plane waves:   13128
 k-point ** :   0.0000 0.0000 0.5000  plane waves:   13128
 k-point ** :   0.0000 0.0000 0.5000  plane waves:   13128
 k-point ** :   0.0172 0.0000 0.5000  plane waves:   13120
 k-point ** :   0.0345 0.0000 0.5000  plane waves:   13128
 k-point ** :   0.0517 0.0000 0.5000  plane waves:   13160
 k-point ** :   0.0690 0.0000 0.5000  plane waves:   13152
 k-point ** :   0.0862 0.0000 0.5000  plane waves:   13144
 k-point ** :   0.1034 0.0000 0.5000  plane waves:   13124
 k-point ** :   0.1207 0.0000 0.5000  plane waves:   13080
 k-point ** :   0.1379 0.0000 0.5000  plane waves:   13096
 k-point ** :   0.1552 0.0000 0.5000  plane waves:   13084
 k-point ** :   0.1724 0.0000 0.5000  plane waves:   13124
 k-point ** :   0.1897 0.0000 0.5000  plane waves:   13116
 k-point ** :   0.2069 0.0000 0.5000  plane waves:   13100
 k-point ** :   0.2241 0.0000 0.5000  plane waves:   13108
 k-point ** :   0.2414 0.0000 0.5000  plane waves:   13108
 k-point ** :   0.2586 0.0000 0.5000  plane waves:   13116
 k-point ** :   0.2759 0.0000 0.5000  plane waves:   13104
 k-point ** :   0.2931 0.0000 0.5000  plane waves:   13144
 k-point ** :   0.3103 0.0000 0.5000  plane waves:   13152
 k-point ** :   0.3276 0.0000 0.5000  plane waves:   13160
 k-point ** :   0.3448 0.0000 0.5000  plane waves:   13176
 k-point ** :   0.3621 0.0000 0.5000  plane waves:   13120
 k-point ** :   0.3793 0.0000 0.5000  plane waves:   13136
 k-point ** :   0.3966 0.0000 0.5000  plane waves:   13160
 k-point ** :   0.4138 0.0000 0.5000  plane waves:   13160
 k-point ** :   0.4310 0.0000 0.5000  plane waves:   13152
 k-point ** :   0.4483 0.0000 0.5000  plane waves:   13160
 k-point ** :   0.4655 0.0000 0.5000  plane waves:   13160
 k-point ** :   0.4828 0.0000 0.5000  plane waves:   13160
 k-point ** :   0.5000 0.0000 0.5000  plane waves:   13160
 k-point ** :   0.5000 0.0000 0.5000  plane waves:   13160
 k-point ** :   0.4943 0.0115 0.5000  plane waves:   13168
 k-point ** :   0.4885 0.0230 0.5000  plane waves:   13176
 k-point ** :   0.4828 0.0345 0.5000  plane waves:   13192
 k-point ** :   0.4770 0.0460 0.5000  plane waves:   13176
 k-point ** :   0.4713 0.0575 0.5000  plane waves:   13176
 k-point ** :   0.4655 0.0690 0.5000  plane waves:   13144
 k-point ** :   0.4598 0.0805 0.5000  plane waves:   13152
 k-point ** :   0.4540 0.0920 0.5000  plane waves:   13168
 k-point ** :   0.4483 0.1034 0.5000  plane waves:   13184
 k-point ** :   0.4425 0.1149 0.5000  plane waves:   13180
 k-point ** :   0.4368 0.1264 0.5000  plane waves:   13176
 k-point ** :   0.4310 0.1379 0.5000  plane waves:   13160
 k-point ** :   0.4253 0.1494 0.5000  plane waves:   13160
 k-point ** :   0.4195 0.1609 0.5000  plane waves:   13180
 k-point ** :   0.4138 0.1724 0.5000  plane waves:   13164
 k-point ** :   0.4080 0.1839 0.5000  plane waves:   13180
 k-point ** :   0.4023 0.1954 0.5000  plane waves:   13196
 k-point ** :   0.3966 0.2069 0.5000  plane waves:   13204
 k-point ** :   0.3908 0.2184 0.5000  plane waves:   13188
 k-point ** :   0.3851 0.2299 0.5000  plane waves:   13200
 k-point ** :   0.3793 0.2414 0.5000  plane waves:   13208
 k-point ** :   0.3736 0.2529 0.5000  plane waves:   13208
 k-point ** :   0.3678 0.2644 0.5000  plane waves:   13200
 k-point ** :   0.3621 0.2759 0.5000  plane waves:   13192
 k-point ** :   0.3563 0.2874 0.5000  plane waves:   13192
 k-point ** :   0.3506 0.2989 0.5000  plane waves:   13200
 k-point ** :   0.3448 0.3103 0.5000  plane waves:   13240
 k-point ** :   0.3391 0.3218 0.5000  plane waves:   13248
 k-point ** :   0.3333 0.3333 0.5000  plane waves:   13248
 k-point ** :   0.3333 0.3333 0.5000  plane waves:   13248
 k-point ** :   0.3218 0.3218 0.5000  plane waves:   13240
 k-point ** :   0.3103 0.3103 0.5000  plane waves:   13216
 k-point ** :   0.2989 0.2989 0.5000  plane waves:   13192
 k-point ** :   0.2874 0.2874 0.5000  plane waves:   13176
 k-point ** :   0.2759 0.2759 0.5000  plane waves:   13184
 k-point ** :   0.2644 0.2644 0.5000  plane waves:   13224
 k-point ** :   0.2529 0.2529 0.5000  plane waves:   13244
 k-point ** :   0.2414 0.2414 0.5000  plane waves:   13220
 k-point ** :   0.2299 0.2299 0.5000  plane waves:   13220
 k-point ** :   0.2184 0.2184 0.5000  plane waves:   13216
 k-point ** :   0.2069 0.2069 0.5000  plane waves:   13192
 k-point ** :   0.1954 0.1954 0.5000  plane waves:   13192
 k-point ** :   0.1839 0.1839 0.5000  plane waves:   13164
 k-point ** :   0.1724 0.1724 0.5000  plane waves:   13148
 k-point ** :   0.1609 0.1609 0.5000  plane waves:   13132
 k-point ** :   0.1494 0.1494 0.5000  plane waves:   13116
 k-point ** :   0.1379 0.1379 0.5000  plane waves:   13132
 k-point ** :   0.1264 0.1264 0.5000  plane waves:   13132
 k-point ** :   0.1149 0.1149 0.5000  plane waves:   13100
 k-point ** :   0.1034 0.1034 0.5000  plane waves:   13084
 k-point ** :   0.0920 0.0920 0.5000  plane waves:   13124
 k-point ** :   0.0805 0.0805 0.5000  plane waves:   13116
 k-point ** :   0.0690 0.0690 0.5000  plane waves:   13148
 k-point ** :   0.0575 0.0575 0.5000  plane waves:   13116
 k-point ** :   0.0460 0.0460 0.5000  plane waves:   13116
 k-point ** :   0.0345 0.0345 0.5000  plane waves:   13156
 k-point ** :   0.0230 0.0230 0.5000  plane waves:   13132
 k-point ** :   0.0115 0.0115 0.5000  plane waves:   13120
 k-point ** :   0.0000 0.0000 0.5000  plane waves:   13128
 k-point ** :   0.5000 0.0000 0.5000  plane waves:   13160
 k-point ** :   0.5000 0.0000 0.4828  plane waves:   13172
 k-point ** :   0.5000 0.0000 0.4655  plane waves:   13188
 k-point ** :   0.5000 0.0000 0.4483  plane waves:   13188
 k-point ** :   0.5000 0.0000 0.4310  plane waves:   13196
 k-point ** :   0.5000 0.0000 0.4138  plane waves:   13204
 k-point ** :   0.5000 0.0000 0.3966  plane waves:   13208
 k-point ** :   0.5000 0.0000 0.3793  plane waves:   13188
 k-point ** :   0.5000 0.0000 0.3621  plane waves:   13188
 k-point ** :   0.5000 0.0000 0.3448  plane waves:   13196
 k-point ** :   0.5000 0.0000 0.3276  plane waves:   13196
 k-point ** :   0.5000 0.0000 0.3103  plane waves:   13180
 k-point ** :   0.5000 0.0000 0.2931  plane waves:   13172
 k-point ** :   0.5000 0.0000 0.2759  plane waves:   13164
 k-point ** :   0.5000 0.0000 0.2586  plane waves:   13152
 k-point ** :   0.5000 0.0000 0.2414  plane waves:   13152
 k-point ** :   0.5000 0.0000 0.2241  plane waves:   13160
 k-point ** :   0.5000 0.0000 0.2069  plane waves:   13176
 k-point ** :   0.5000 0.0000 0.1897  plane waves:   13144
 k-point ** :   0.5000 0.0000 0.1724  plane waves:   13148
 k-point ** :   0.5000 0.0000 0.1552  plane waves:   13140
 k-point ** :   0.5000 0.0000 0.1379  plane waves:   13132
 k-point ** :   0.5000 0.0000 0.1207  plane waves:   13116
 k-point ** :   0.5000 0.0000 0.1034  plane waves:   13100
 k-point ** :   0.5000 0.0000 0.0862  plane waves:   13116
 k-point ** :   0.5000 0.0000 0.0690  plane waves:   13128
 k-point ** :   0.5000 0.0000 0.0517  plane waves:   13148
 k-point ** :   0.5000 0.0000 0.0345  plane waves:   13132
 k-point ** :   0.5000 0.0000 0.0172  plane waves:   13136
 k-point ** :   0.5000 0.0000 0.0000  plane waves:   13128
 k-point ** :   0.3333 0.3333 0.0000  plane waves:   13116
 k-point ** :   0.3333 0.3333 0.0172  plane waves:   13122
 k-point ** :   0.3333 0.3333 0.0345  plane waves:   13152
 k-point ** :   0.3333 0.3333 0.0517  plane waves:   13152
 k-point ** :   0.3333 0.3333 0.0690  plane waves:   13182
 k-point ** :   0.3333 0.3333 0.0862  plane waves:   13188
 k-point ** :   0.3333 0.3333 0.1034  plane waves:   13188
 k-point ** :   0.3333 0.3333 0.1207  plane waves:   13164
 k-point ** :   0.3333 0.3333 0.1379  plane waves:   13164
 k-point ** :   0.3333 0.3333 0.1552  plane waves:   13170
 k-point ** :   0.3333 0.3333 0.1724  plane waves:   13182
 k-point ** :   0.3333 0.3333 0.1897  plane waves:   13194
 k-point ** :   0.3333 0.3333 0.2069  plane waves:   13206
 k-point ** :   0.3333 0.3333 0.2241  plane waves:   13194
 k-point ** :   0.3333 0.3333 0.2414  plane waves:   13182
 k-point ** :   0.3333 0.3333 0.2586  plane waves:   13164
 k-point ** :   0.3333 0.3333 0.2759  plane waves:   13188
 k-point ** :   0.3333 0.3333 0.2931  plane waves:   13182
 k-point ** :   0.3333 0.3333 0.3103  plane waves:   13194
 k-point ** :   0.3333 0.3333 0.3276  plane waves:   13206
 k-point ** :   0.3333 0.3333 0.3448  plane waves:   13206
 k-point ** :   0.3333 0.3333 0.3621  plane waves:   13200
 k-point ** :   0.3333 0.3333 0.3793  plane waves:   13200
 k-point ** :   0.3333 0.3333 0.3966  plane waves:   13230
 k-point ** :   0.3333 0.3333 0.4138  plane waves:   13230
 k-point ** :   0.3333 0.3333 0.4310  plane waves:   13254
 k-point ** :   0.3333 0.3333 0.4483  plane waves:   13254
 k-point ** :   0.3333 0.3333 0.4655  plane waves:   13260
 k-point ** :   0.3333 0.3333 0.4828  plane waves:   13260
 k-point ** :   0.3333 0.3333 0.5000  plane waves:   13248

 maximum and minimum number of plane-waves per node :      3354     3210

 maximum number of plane-waves:     13260
 maximum index in each direction: 
   IXMAX=   10   IYMAX=   10   IZMAX=   18
   IXMIN=  -10   IYMIN=  -10   IZMIN=  -18


 parallel 3D FFT for wavefunctions:
    minimum data exchange during FFTs selected (reduces bandwidth)
 parallel 3D FFT for charge:
    minimum data exchange during FFTs selected (reduces bandwidth)


 total amount of memory used by VASP MPI-rank0   355632. kBytes
=======================================================================

   base      :      30000. kBytes
   nonl-proj :     194795. kBytes
   fftplans  :       2458. kBytes
   grid      :       9584. kBytes
   one-center:        186. kBytes
   wavefun   :     118609. kBytes
 
     INWAV:  cpu time   11.2958: real time   11.3345
 initial charge density was supplied:
 number of electron      72.9999980 magnetization       0.0024680      0.0024324      0.0026747
 keeping initial charge density in first step


--------------------------------------------------------------------------------------------------------


 Maximum index for augmentation-charges          913 (set IRDMAX)


--------------------------------------------------------------------------------------------------------


 First call to EWALD:  gamma=   0.278
 Maximum number of real-space cells 4x 4x 2
 Maximum number of reciprocal cells 2x 2x 4

    FEWALD:  cpu time    0.0018: real time    0.0018


--------------------------------------- Iteration      1(   1)  ---------------------------------------


    POTLOK:  cpu time    0.1080: real time    0.1144
    SETDIJ:  cpu time    0.0231: real time    0.0233
     EDDAV:  cpu time   76.2275: real time   76.4206
       DOS:  cpu time    0.0079: real time    0.0079
    --------------------------------------------
      LOOP:  cpu time   76.3665: real time   76.5663

 eigenvalue-minimisations  : 60576
 total energy-change (2. order) :-0.2723253E+02  (-0.1159711E+03)
 number of electron      72.9999980 magnetization       0.0024680      0.0024324      0.0026747
 augmentation part       72.9999980 magnetization       0.0024680      0.0024324      0.0026747

 Free energy of the ion-electron system (eV)
  ---------------------------------------------------
  alpha Z        PSCENC =       164.08283614
  Ewald energy   TEWEN  =     -2316.07770175
  -Hartree energ DENC   =     -4331.17037475
  -exchange      EXHF   =         0.00000000
  -V(xc)+E(xc)   XCENC  =        -8.62658503
  PAW double counting   =      4929.44099188    -4705.03659424
  entropy T*S    EENTRO =        -0.02622620
  eigenvalues    EBANDS =      -918.67306525
  atomic energy  EATOM  =      7158.85418704
  Solvation  Ediel_sol  =         0.00000000
  ---------------------------------------------------
  free energy    TOTEN  =       -27.23253216 eV

  energy without entropy =      -27.20630596  energy(sigma->0) =      -27.21941906


--------------------------------------------------------------------------------------------------------




--------------------------------------- Iteration      1(   2)  ---------------------------------------


     EDDAV:  cpu time   79.9439: real time   80.1497
       DOS:  cpu time    0.0078: real time    0.0078
    --------------------------------------------
      LOOP:  cpu time   79.9517: real time   80.1575

 eigenvalue-minimisations  : 64704
 total energy-change (2. order) :-0.2383131E+02  (-0.2280174E+02)
 number of electron      72.9999980 magnetization       0.0024680      0.0024324      0.0026747
 augmentation part       72.9999980 magnetization       0.0024680      0.0024324      0.0026747

 Free energy of the ion-electron system (eV)
  ---------------------------------------------------
  alpha Z        PSCENC =       164.08283614
  Ewald energy   TEWEN  =     -2316.07770175
  -Hartree energ DENC   =     -4331.17037475
  -exchange      EXHF   =         0.00000000
  -V(xc)+E(xc)   XCENC  =        -8.62658503
  PAW double counting   =      4929.44099188    -4705.03659424
  entropy T*S    EENTRO =        -0.02948992
  eigenvalues    EBANDS =      -942.50111039
  atomic energy  EATOM  =      7158.85418704
  Solvation  Ediel_sol  =         0.00000000
  ---------------------------------------------------
  free energy    TOTEN  =       -51.06384101 eV

  energy without entropy =      -51.03435110  energy(sigma->0) =      -51.04909606


--------------------------------------------------------------------------------------------------------




--------------------------------------- Iteration      1(   3)  ---------------------------------------


     EDDAV:  cpu time   81.7108: real time   81.9576
       DOS:  cpu time    0.0078: real time    0.0078
    --------------------------------------------
      LOOP:  cpu time   81.7187: real time   81.9654

 eigenvalue-minimisations  : 66528
 total energy-change (2. order) :-0.7561044E+00  (-0.7335952E+00)
 number of electron      72.9999980 magnetization       0.0024680      0.0024324      0.0026747
 augmentation part       72.9999980 magnetization       0.0024680      0.0024324      0.0026747

 Free energy of the ion-electron system (eV)
  ---------------------------------------------------
  alpha Z        PSCENC =       164.08283614
  Ewald energy   TEWEN  =     -2316.07770175
  -Hartree energ DENC   =     -4331.17037475
  -exchange      EXHF   =         0.00000000
  -V(xc)+E(xc)   XCENC  =        -8.62658503
  PAW double counting   =      4929.44099188    -4705.03659424
  entropy T*S    EENTRO =        -0.03025904
  eigenvalues    EBANDS =      -943.25644567
  atomic energy  EATOM  =      7158.85418704
  Solvation  Ediel_sol  =         0.00000000
  ---------------------------------------------------
  free energy    TOTEN  =       -51.81994542 eV

  energy without entropy =      -51.78968638  energy(sigma->0) =      -51.80481590


--------------------------------------------------------------------------------------------------------




--------------------------------------- Iteration      1(   4)  ---------------------------------------


     EDDAV:  cpu time   82.1064: real time   82.3273
       DOS:  cpu time    0.0077: real time    0.0077
    --------------------------------------------
      LOOP:  cpu time   82.1141: real time   82.3350

 eigenvalue-minimisations  : 66948
 total energy-change (2. order) :-0.2112857E-01  (-0.2107273E-01)
 number of electron      72.9999980 magnetization       0.0024680      0.0024324      0.0026747
 augmentation part       72.9999980 magnetization       0.0024680      0.0024324      0.0026747

 Free energy of the ion-electron system (eV)
  ---------------------------------------------------
  alpha Z        PSCENC =       164.08283614
  Ewald energy   TEWEN  =     -2316.07770175
  -Hartree energ DENC   =     -4331.17037475
  -exchange      EXHF   =         0.00000000
  -V(xc)+E(xc)   XCENC  =        -8.62658503
  PAW double counting   =      4929.44099188    -4705.03659424
  entropy T*S    EENTRO =        -0.03030063
  eigenvalues    EBANDS =      -943.27753265
  atomic energy  EATOM  =      7158.85418704
  Solvation  Ediel_sol  =         0.00000000
  ---------------------------------------------------
  free energy    TOTEN  =       -51.84107399 eV

  energy without entropy =      -51.81077336  energy(sigma->0) =      -51.82592368


--------------------------------------------------------------------------------------------------------




--------------------------------------- Iteration      1(   5)  ---------------------------------------


     EDDAV:  cpu time   81.5577: real time   81.7651
       DOS:  cpu time    0.0077: real time    0.0077
 


 total charge     
 
# of ion       s       p       d       tot
------------------------------------------
    1        1.838   4.694   0.027   6.559
    2        2.246   6.207   3.063  11.517
    3        2.237   6.235   3.029  11.500
    4        2.247   6.202   3.045  11.495
    5        1.113   1.345   0.058   2.516
    6        1.179   1.227   0.036   2.441
    7        1.179   1.227   0.036   2.441
    8        1.179   1.227   0.036   2.441
    9        1.179   1.227   0.036   2.441
--------------------------------------------------
tot         14.397  29.591   9.364  53.352
 


 magnetization (x)
 
# of ion       s       p       d       tot
------------------------------------------
    1        0.000   0.000  -0.000   0.000
    2        0.000   0.000   0.002   0.002
    3        0.000   0.000   0.000   0.000
    4       -0.000  -0.000  -0.001  -0.001
    5       -0.000  -0.000   0.000  -0.000
    6        0.000   0.000   0.000   0.000
    7        0.000   0.000   0.000   0.000
    8       -0.000  -0.000  -0.000  -0.000
    9       -0.000  -0.000  -0.000  -0.000
--------------------------------------------------
tot          0.000  -0.000   0.001   0.001
 


 magnetization (y)
 
# of ion       s       p       d       tot
------------------------------------------
    1        0.000   0.000  -0.000   0.000
    2        0.000   0.000   0.002   0.002
    3        0.000   0.000   0.001   0.001
    4       -0.000  -0.000  -0.001  -0.001
    5       -0.000  -0.000   0.000  -0.000
    6        0.000   0.000  -0.000   0.000
    7        0.000   0.000  -0.000   0.000
    8       -0.000  -0.000   0.000  -0.000
    9       -0.000  -0.000   0.000  -0.000
--------------------------------------------------
tot          0.000  -0.000   0.001   0.001
 


 magnetization (z)
 
# of ion       s       p       d       tot
------------------------------------------
    1        0.000   0.000  -0.000   0.000
    2        0.000   0.000   0.002   0.002
    3        0.000   0.000   0.001   0.001
    4       -0.000  -0.000  -0.001  -0.001
    5       -0.000  -0.000   0.000  -0.000
    6        0.002  -0.002  -0.000  -0.000
    7       -0.002   0.002   0.000   0.000
    8        0.002  -0.002  -0.000  -0.000
    9       -0.002   0.002   0.000   0.000
--------------------------------------------------
tot          0.000  -0.000   0.001   0.001
 
    --------------------------------------------
      LOOP:  cpu time   81.6364: real time   81.8440

 eigenvalue-minimisations  : 66252
 total energy-change (2. order) :-0.7373646E-03  (-0.7370377E-03)
 number of electron      72.9999980 magnetization       0.0024680      0.0024324      0.0026747
 augmentation part       72.9999980 magnetization       0.0024680      0.0024324      0.0026747

 Free energy of the ion-electron system (eV)
  ---------------------------------------------------
  alpha Z        PSCENC =       164.08283614
  Ewald energy   TEWEN  =     -2316.07770175
  -Hartree energ DENC   =     -4331.17037475
  -exchange      EXHF   =         0.00000000
  -V(xc)+E(xc)   XCENC  =        -8.62658503
  PAW double counting   =      4929.44099188    -4705.03659424
  entropy T*S    EENTRO =        -0.03030245
  eigenvalues    EBANDS =      -943.27826819
  atomic energy  EATOM  =      7158.85418704
  Solvation  Ediel_sol  =         0.00000000
  ---------------------------------------------------
  free energy    TOTEN  =       -51.84181136 eV

  energy without entropy =      -51.81150890  energy(sigma->0) =      -51.82666013


--------------------------------------------------------------------------------------------------------




--------------------------------------- Iteration      1(   6)  ---------------------------------------


     EDDAV:  cpu time   76.4846: real time   76.7234
       DOS:  cpu time    0.0077: real time    0.0078
    --------------------------------------------
      LOOP:  cpu time   76.4212: real time   76.6600

 eigenvalue-minimisations  : 60360
 total energy-change (2. order) :-0.2978692E-04  (-0.2978304E-04)
[...]
    FORCOR:  cpu time    0.0941: real time    0.0943
    FORHAR:  cpu time    0.0119: real time    0.0119
    OFIELD:  cpu time    0.0014: real time    0.0014

  FORCE on cell =-STRESS in cart. coord.  units (eV):
  Direction    XX          YY          ZZ          XY          YZ          ZX
  --------------------------------------------------------------------------------------
  Alpha Z   164.08284   164.08284   164.08284
  Ewald    1060.16225  1060.16225 -4436.40781     0.00000     0.00000    -0.00000
  Hartree  3125.21872  3122.69482 -1925.41417     4.86240     0.00011    -0.00012
  E(xc)    -353.36797  -353.43301  -355.74327     0.03034     0.00000    -0.00000
  Local   -5008.81633 -5003.83335  5537.41558    -8.24776     0.00014     0.00002
  n-local   125.07997   125.82846   140.76290    -0.23234     0.00005     0.00004
  augment    22.09612    21.43856    13.37003     0.59438     0.00000    -0.00000
  Kinetic   860.04520   860.78706   859.21759    -1.60565     0.00007     0.00004
  Fock        0.00000     0.00000     0.00000     0.00000     0.00000     0.00000
  -------------------------------------------------------------------------------------
  Total      -5.49921    -2.27238    -2.71630    -4.59862     0.00038    -0.00003
  in kB     -34.00273   -14.05059   -16.79545   -28.43419     0.00237    -0.00018
  external pressure =      -21.62 kB  Pullay stress =        0.00 kB


 VOLUME and BASIS-vectors are now :
 -----------------------------------------------------------------------------
  energy-cutoff  :      500.00
  volume of cell :      259.12
      direct lattice vectors                 reciprocal lattice vectors
     5.503691847  0.000000000  0.000000000     0.181696219  0.104902361  0.000000000
    -2.751845924  4.766336954  0.000000000     0.000000000  0.209804722  0.000000000
     0.000000000  0.000000000  9.877753889     0.000000000  0.000000000  0.101237590

  length of vectors
     5.503691847  5.503691847  9.877753889     0.209804722  0.209804722  0.101237590


 FORCES acting on ions
    electron-ion (+dipol)            ewald-force                    non-local-force                 convergence-correction
 -----------------------------------------------------------------------------------------------
   -.469E-08 -.137E-07 0.165E-08   0.199E-14 0.833E-15 -.284E-13   0.000E+00 0.000E+00 0.000E+00   0.124E-13 -.138E-13 -.251E-12
   -.129E-13 0.140E-13 0.165E-11   -.644E-14 -.639E-13 0.000E+00   0.000E+00 0.000E+00 0.000E+00   -.223E-12 0.891E-12 -.394E-12
   0.454E-13 0.738E-13 0.154E-11   -.711E-14 0.000E+00 0.284E-13   0.635E-21 0.000E+00 0.000E+00   -.602E-12 -.815E-13 -.102E-12
   -.618E-12 0.103E-11 0.148E-11   0.711E-14 -.178E-13 -.284E-13   -.424E-21 0.000E+00 0.000E+00   0.544E-12 -.470E-12 0.635E-12
   0.534E-13 0.524E-13 0.234E-13   0.178E-14 -.383E-14 0.000E+00   0.000E+00 0.000E+00 0.000E+00   0.131E-12 0.523E-13 0.176E-12
   0.353E+01 0.165E+01 -.372E+03   0.146E-07 -.980E-08 0.375E+03   -.273E+01 -.117E+01 -.355E+01   -.504E+00 -.321E+00 0.269E+00
   -.353E+01 -.165E+01 -.372E+03   -.146E-07 0.980E-08 0.375E+03   0.273E+01 0.117E+01 -.355E+01   0.504E+00 0.321E+00 0.269E+00
   0.353E+01 0.165E+01 0.372E+03   0.146E-07 -.980E-08 -.375E+03   -.273E+01 -.117E+01 0.355E+01   -.504E+00 -.321E+00 -.269E+00
   -.353E+01 -.165E+01 0.372E+03   -.146E-07 0.980E-08 -.375E+03   0.273E+01 0.117E+01 0.355E+01   0.504E+00 0.321E+00 -.269E+00
 -----------------------------------------------------------------------------------------------
   -.469E-08 -.137E-07 0.165E-08   -.291E-14 0.851E-15 -.114E-12   0.444E-15 0.000E+00 0.000E+00   -.194E-12 0.320E-12 0.274E-12
 
 
 POSITION                                       TOTAL-FORCE (eV/Angst)
 -----------------------------------------------------------------------------------
      0.00000      0.00000      0.00000         0.000000      0.000000      0.000000
      2.75185      0.00000      4.93888         0.000000      0.000000      0.000000
     -1.37592      2.38317      4.93888         0.000000      0.000000      0.000000
      1.37592      2.38317      4.93888         0.000000      0.000000      0.000000
      0.00000      0.00000      4.93888         0.000000      0.000000      0.000000
     -0.00000      3.17756      7.21219         0.287737      0.157474     -0.053621
      2.75185      1.58878      7.21219        -0.287737     -0.157476     -0.053624
     -0.00000      3.17756      2.66556         0.287737      0.157476      0.053624
      2.75185      1.58878      2.66556        -0.287737     -0.157474      0.053621
 -----------------------------------------------------------------------------------
    total drift:                               -0.000000     -0.000000      0.000000


--------------------------------------------------------------------------------------------------------



  FREE ENERGIE OF THE ION-ELECTRON SYSTEM (eV)
  ---------------------------------------------------
  free  energy   TOTEN  =       -51.84184246 eV

  energy  without entropy=      -51.81153995  energy(sigma->0) =      -51.82669121
 


--------------------------------------------------------------------------------------------------------


    POTLOK:  cpu time    0.1159: real time    0.1162


--------------------------------------------------------------------------------------------------------


     LOOP+:  cpu time  580.4958: real time  582.1116
    4ORBIT:  cpu time    0.0000: real time    0.0000

 Spin-Orbit-Coupling matrix elements

 Ion:    1  E_soc:     -0.2867034
 l=   1
     0.0000000    -0.0478253    -0.0474886
    -0.0478253     0.0000000    -0.0479073
    -0.0474886    -0.0479073     0.0000000
 l=   2
     0.0000000    -0.0000082     0.0000000    -0.0000093    -0.0000266
    -0.0000082     0.0000000    -0.0000276    -0.0000121    -0.0000091
     0.0000000    -0.0000276     0.0000000    -0.0000319     0.0000000
    -0.0000093    -0.0000121    -0.0000319     0.0000000    -0.0000058
    -0.0000266    -0.0000091     0.0000000    -0.0000058     0.0000000
 l=   3
     0.0000000     0.0000000     0.0000000     0.0000000     0.0000000     0.0000000     0.0000000
     0.0000000     0.0000000     0.0000000     0.0000000     0.0000000     0.0000000     0.0000000
     0.0000000     0.0000000     0.0000000     0.0000000     0.0000000     0.0000000     0.0000000
     0.0000000     0.0000000     0.0000000     0.0000000     0.0000000     0.0000000     0.0000000
     0.0000000     0.0000000     0.0000000     0.0000000     0.0000000     0.0000000     0.0000000
     0.0000000     0.0000000     0.0000000     0.0000000     0.0000000     0.0000000     0.0000000
     0.0000000     0.0000000     0.0000000     0.0000000     0.0000000     0.0000000     0.0000000

 Ion:    2  E_soc:     -0.0192060
 l=   1
     0.0000000    -0.0024473    -0.0024405
    -0.0024473     0.0000000    -0.0024172
    -0.0024405    -0.0024172     0.0000000
 l=   2
     0.0000000    -0.0002290     0.0000000    -0.0000977    -0.0004478
    -0.0002290     0.0000000    -0.0004996    -0.0002211    -0.0001126
     0.0000000    -0.0004996     0.0000000    -0.0005569     0.0000000
    -0.0000977    -0.0002211    -0.0005569     0.0000000    -0.0001333
    -0.0004478    -0.0001126     0.0000000    -0.0001333     0.0000000
 l=   3
     0.0000000     0.0000000     0.0000000     0.0000000     0.0000000     0.0000000     0.0000000
     0.0000000     0.0000000     0.0000000     0.0000000     0.0000000     0.0000000     0.0000000
     0.0000000     0.0000000     0.0000000     0.0000000     0.0000000     0.0000000     0.0000000
     0.0000000     0.0000000     0.0000000     0.0000000     0.0000000     0.0000000     0.0000000
     0.0000000     0.0000000     0.0000000     0.0000000     0.0000000     0.0000000     0.0000000
     0.0000000     0.0000000     0.0000000     0.0000000     0.0000000     0.0000000     0.0000000
     0.0000000     0.0000000     0.0000000     0.0000000     0.0000000     0.0000000     0.0000000

 Ion:    3  E_soc:     -0.0209759
 l=   1
     0.0000000    -0.0024704    -0.0024466
    -0.0024704     0.0000000    -0.0024497
    -0.0024466    -0.0024497     0.0000000
 l=   2
     0.0000000    -0.0000688     0.0000000    -0.0001654    -0.0004364
    -0.0000688     0.0000000    -0.0007273    -0.0005871    -0.0001487
     0.0000000    -0.0007273     0.0000000    -0.0007279     0.0000000
    -0.0001654    -0.0005871    -0.0007279     0.0000000    -0.0002596
    -0.0004364    -0.0001487     0.0000000    -0.0002596     0.0000000
 l=   3
     0.0000000     0.0000000     0.0000000     0.0000000     0.0000000     0.0000000     0.0000000
     0.0000000     0.0000000     0.0000000     0.0000000     0.0000000     0.0000000     0.0000000
     0.0000000     0.0000000     0.0000000     0.0000000     0.0000000     0.0000000     0.0000000
     0.0000000     0.0000000     0.0000000     0.0000000     0.0000000     0.0000000     0.0000000
     0.0000000     0.0000000     0.0000000     0.0000000     0.0000000     0.0000000     0.0000000
     0.0000000     0.0000000     0.0000000     0.0000000     0.0000000     0.0000000     0.0000000
     0.0000000     0.0000000     0.0000000     0.0000000     0.0000000     0.0000000     0.0000000

 Ion:    4  E_soc:     -0.0190873
 l=   1
     0.0000000    -0.0024339    -0.0024396
    -0.0024339     0.0000000    -0.0024195
    -0.0024396    -0.0024195     0.0000000
 l=   2
     0.0000000    -0.0000927     0.0000000    -0.0001630    -0.0004541
    -0.0000927     0.0000000    -0.0005434    -0.0001995    -0.0001405
     0.0000000    -0.0005434     0.0000000    -0.0004873     0.0000000
    -0.0001630    -0.0001995    -0.0004873     0.0000000    -0.0001702
    -0.0004541    -0.0001405     0.0000000    -0.0001702     0.0000000
 l=   3
     0.0000000     0.0000000     0.0000000     0.0000000     0.0000000     0.0000000     0.0000000
     0.0000000     0.0000000     0.0000000     0.0000000     0.0000000     0.0000000     0.0000000
     0.0000000     0.0000000     0.0000000     0.0000000     0.0000000     0.0000000     0.0000000
     0.0000000     0.0000000     0.0000000     0.0000000     0.0000000     0.0000000     0.0000000
     0.0000000     0.0000000     0.0000000     0.0000000     0.0000000     0.0000000     0.0000000
     0.0000000     0.0000000     0.0000000     0.0000000     0.0000000     0.0000000     0.0000000
     0.0000000     0.0000000     0.0000000     0.0000000     0.0000000     0.0000000     0.0000000

 Ion:    5  E_soc:     -0.1299213
 l=   1
     0.0000000    -0.0232901    -0.0181804
    -0.0232901     0.0000000    -0.0228468
    -0.0181804    -0.0228468     0.0000000
 l=   2
     0.0000000    -0.0000526     0.0000000    -0.0000496    -0.0001753
    -0.0000526     0.0000000    -0.0000861    -0.0000810    -0.0000653
     0.0000000    -0.0000861     0.0000000    -0.0000812     0.0000000
    -0.0000496    -0.0000810    -0.0000812     0.0000000    -0.0000522
    -0.0001753    -0.0000653     0.0000000    -0.0000522     0.0000000
 l=   3
     0.0000000     0.0000000     0.0000000     0.0000000     0.0000000     0.0000000     0.0000000
     0.0000000     0.0000000     0.0000000     0.0000000     0.0000000     0.0000000     0.0000000
     0.0000000     0.0000000     0.0000000     0.0000000     0.0000000     0.0000000     0.0000000
     0.0000000     0.0000000     0.0000000     0.0000000     0.0000000     0.0000000     0.0000000
     0.0000000     0.0000000     0.0000000     0.0000000     0.0000000     0.0000000     0.0000000
     0.0000000     0.0000000     0.0000000     0.0000000     0.0000000     0.0000000     0.0000000
     0.0000000     0.0000000     0.0000000     0.0000000     0.0000000     0.0000000     0.0000000

 Ion:    6  E_soc:     -0.1296753
 l=   1
     0.0000000    -0.0215675    -0.0211629
    -0.0215675     0.0000000    -0.0217636
    -0.0211629    -0.0217636     0.0000000
 l=   2
     0.0000000    -0.0000218     0.0000000    -0.0000206    -0.0001419
    -0.0000218     0.0000000    -0.0000678     0.0000174    -0.0000241
     0.0000000    -0.0000678     0.0000000    -0.0000638     0.0000000
    -0.0000206     0.0000174    -0.0000638     0.0000000    -0.0000209
    -0.0001419    -0.0000241     0.0000000    -0.0000209     0.0000000
 l=   3
     0.0000000     0.0000000     0.0000000     0.0000000     0.0000000     0.0000000     0.0000000
     0.0000000     0.0000000     0.0000000     0.0000000     0.0000000     0.0000000     0.0000000
     0.0000000     0.0000000     0.0000000     0.0000000     0.0000000     0.0000000     0.0000000
     0.0000000     0.0000000     0.0000000     0.0000000     0.0000000     0.0000000     0.0000000
     0.0000000     0.0000000     0.0000000     0.0000000     0.0000000     0.0000000     0.0000000
     0.0000000     0.0000000     0.0000000     0.0000000     0.0000000     0.0000000     0.0000000
     0.0000000     0.0000000     0.0000000     0.0000000     0.0000000     0.0000000     0.0000000

 Ion:    7  E_soc:     -0.1296751
 l=   1
     0.0000000    -0.0215675    -0.0211629
    -0.0215675     0.0000000    -0.0217635
    -0.0211629    -0.0217635     0.0000000
 l=   2
     0.0000000    -0.0000218     0.0000000    -0.0000206    -0.0001419
    -0.0000218     0.0000000    -0.0000678     0.0000174    -0.0000241
     0.0000000    -0.0000678     0.0000000    -0.0000638     0.0000000
    -0.0000206     0.0000174    -0.0000638     0.0000000    -0.0000209
    -0.0001419    -0.0000241     0.0000000    -0.0000209     0.0000000
 l=   3
     0.0000000     0.0000000     0.0000000     0.0000000     0.0000000     0.0000000     0.0000000
     0.0000000     0.0000000     0.0000000     0.0000000     0.0000000     0.0000000     0.0000000
     0.0000000     0.0000000     0.0000000     0.0000000     0.0000000     0.0000000     0.0000000
     0.0000000     0.0000000     0.0000000     0.0000000     0.0000000     0.0000000     0.0000000
     0.0000000     0.0000000     0.0000000     0.0000000     0.0000000     0.0000000     0.0000000
     0.0000000     0.0000000     0.0000000     0.0000000     0.0000000     0.0000000     0.0000000
     0.0000000     0.0000000     0.0000000     0.0000000     0.0000000     0.0000000     0.0000000

 Ion:    8  E_soc:     -0.1296751
 l=   1
     0.0000000    -0.0215675    -0.0211629
    -0.0215675     0.0000000    -0.0217635
    -0.0211629    -0.0217635     0.0000000
 l=   2
     0.0000000    -0.0000218     0.0000000    -0.0000206    -0.0001419
    -0.0000218     0.0000000    -0.0000678     0.0000174    -0.0000241
     0.0000000    -0.0000678     0.0000000    -0.0000638     0.0000000
    -0.0000206     0.0000174    -0.0000638     0.0000000    -0.0000209
    -0.0001419    -0.0000241     0.0000000    -0.0000209     0.0000000
 l=   3
     0.0000000     0.0000000     0.0000000     0.0000000     0.0000000     0.0000000     0.0000000
     0.0000000     0.0000000     0.0000000     0.0000000     0.0000000     0.0000000     0.0000000
     0.0000000     0.0000000     0.0000000     0.0000000     0.0000000     0.0000000     0.0000000
     0.0000000     0.0000000     0.0000000     0.0000000     0.0000000     0.0000000     0.0000000
     0.0000000     0.0000000     0.0000000     0.0000000     0.0000000     0.0000000     0.0000000
     0.0000000     0.0000000     0.0000000     0.0000000     0.0000000     0.0000000     0.0000000
     0.0000000     0.0000000     0.0000000     0.0000000     0.0000000     0.0000000     0.0000000

 Ion:    9  E_soc:     -0.1296753
 l=   1
     0.0000000    -0.0215675    -0.0211629
    -0.0215675     0.0000000    -0.0217636
    -0.0211629    -0.0217636     0.0000000
 l=   2
     0.0000000    -0.0000218     0.0000000    -0.0000206    -0.0001419
    -0.0000218     0.0000000    -0.0000678     0.0000174    -0.0000241
     0.0000000    -0.0000678     0.0000000    -0.0000638     0.0000000
    -0.0000206     0.0000174    -0.0000638     0.0000000    -0.0000209
    -0.0001419    -0.0000241     0.0000000    -0.0000209     0.0000000
 l=   3
     0.0000000     0.0000000     0.0000000     0.0000000     0.0000000     0.0000000     0.0000000
     0.0000000     0.0000000     0.0000000     0.0000000     0.0000000     0.0000000     0.0000000
     0.0000000     0.0000000     0.0000000     0.0000000     0.0000000     0.0000000     0.0000000
     0.0000000     0.0000000     0.0000000     0.0000000     0.0000000     0.0000000     0.0000000
     0.0000000     0.0000000     0.0000000     0.0000000     0.0000000     0.0000000     0.0000000
     0.0000000     0.0000000     0.0000000     0.0000000     0.0000000     0.0000000     0.0000000
     0.0000000     0.0000000     0.0000000     0.0000000     0.0000000     0.0000000     0.0000000
 


 total charge     
 
# of ion       s       p       d       tot
------------------------------------------
    1        1.838   4.694   0.027   6.559
    2        2.246   6.207   3.063  11.517
    3        2.237   6.235   3.029  11.500
    4        2.247   6.202   3.045  11.495
    5        1.113   1.345   0.058   2.516
    6        1.179   1.227   0.036   2.441
    7        1.179   1.227   0.036   2.441
    8        1.179   1.227   0.036   2.441
    9        1.179   1.227   0.036   2.441
--------------------------------------------------
tot         14.396  29.591   9.364  53.351
 


 magnetization (x)
 
# of ion       s       p       d       tot
------------------------------------------
    1        0.000   0.000  -0.000   0.000
    2        0.000   0.000   0.002   0.002
    3        0.000   0.000   0.000   0.000
    4       -0.000  -0.000  -0.001  -0.001
    5       -0.000  -0.000   0.000  -0.000
    6        0.000   0.000   0.000   0.000
    7        0.000   0.000   0.000   0.000
    8       -0.000  -0.000  -0.000  -0.000
    9       -0.000  -0.000  -0.000  -0.000
--------------------------------------------------
tot          0.000  -0.000   0.001   0.001
 


 magnetization (y)
 
# of ion       s       p       d       tot
------------------------------------------
    1        0.000   0.000  -0.000   0.000
    2        0.000   0.000   0.002   0.002
    3        0.000   0.000   0.001   0.001
    4       -0.000  -0.000  -0.001  -0.001
    5       -0.000   0.000   0.000  -0.000
    6        0.000   0.000  -0.000   0.000
    7        0.000   0.000  -0.000   0.000
    8       -0.000  -0.000   0.000  -0.000
    9       -0.000  -0.000   0.000  -0.000
--------------------------------------------------
tot          0.000  -0.000   0.001   0.001
 


 magnetization (z)
 
# of ion       s       p       d       tot
------------------------------------------
    1        0.000   0.000  -0.000   0.000
    2        0.000   0.000   0.002   0.002
    3        0.000   0.000   0.001   0.001
    4       -0.000  -0.000  -0.001  -0.001
    5       -0.000  -0.000   0.000  -0.000
    6        0.002  -0.002  -0.000  -0.000
    7       -0.002   0.002   0.000   0.000
    8        0.002  -0.002  -0.000  -0.000
    9       -0.002   0.002   0.000   0.000
--------------------------------------------------
tot          0.000  -0.000   0.001   0.001
 

 total amount of memory used by VASP MPI-rank0   355632. kBytes
=======================================================================

   base      :      30000. kBytes
   nonl-proj :     194795. kBytes
   fftplans  :       2458. kBytes
   grid      :       9584. kBytes
   one-center:        186. kBytes
   wavefun   :     118609. kBytes
 
  
  
 General timing and accounting informations for this job:
 ========================================================
  
                  Total CPU time used (sec):      619.058
                            User time (sec):      612.780
                          System time (sec):        6.279
                         Elapsed time (sec):      621.988
  
                   Maximum memory used (kb):      661136.
                   Average memory used (kb):           0.
  
                          Minor page faults:       104796
                          Major page faults:            0
                 Voluntary context switches:         5299
