 vasp.5.4.4.18Apr17-6-g9f103f2a35 (build May 20 2021 12:11:10) complex          
  
 executed on             LinuxIFC date 2021.09.17  16:09:40
 running on   48 total cores
 distrk:  each k-point on   48 cores,    1 groups
 distr:  one band on NCORES_PER_BAND=   4 cores,   12 groups


--------------------------------------------------------------------------------------------------------


 INCAR:
 POTCAR:   PAW_PBE Cs_sv 08Apr2002                
 POTCAR:   PAW_PBE V_sv 07Sep2000                 
 POTCAR:   PAW_PBE Sb 06Sep2000                   
 POTCAR:   PAW_PBE Cs_sv 08Apr2002                
   VRHFIN =Cs: 5s5p6s                                                           
   LEXCH  = PE                                                                  
   EATOM  =   555.6835 eV,   40.8416 Ry                                         
                                                                                
   TITEL  = PAW_PBE Cs_sv 08Apr2002                                             
   LULTRA =        F    use ultrasoft PP ?                                      
   IUNSCR =        1    unscreen: 0-lin 1-nonlin 2-no                           
   RPACOR =    2.200    partial core radius                                     
   POMASS =  132.900; ZVAL   =    9.000    mass and valenz                      
   RCORE  =    2.500    outmost cutoff radius                                   
   RWIGS  =    2.500; RWIGS  =    1.323    wigner-seitz radius (au A)           
   ENMAX  =  220.318; ENMIN  =  165.238 eV                                      
   RCLOC  =    2.207    cutoff for local pot                                    
   LCOR   =        T    correct aug charges                                     
   LPAW   =        T    paw PP                                                  
   EAUG   =  407.933                                                            
   DEXC   =    -.004                                                            
   RMAX   =    3.106    core radius for proj-oper                               
   RAUG   =    1.300    factor for augmentation sphere                          
   RDEP   =    2.590    radius for radial grids                                 
   QCUT   =   -4.024; QGAM   =    8.048    optimization parameters              
                                                                                
   Description                                                                  
     l     E      TYP  RCUT    TYP  RCUT                                        
     0   .000     23  1.900                                                     
     0   .000     23  1.900                                                     
     0   .000     23  1.900                                                     
     0   .000     23  1.900                                                     
     1   .000     23  2.500                                                     
     1  -.200     23  2.500                                                     
     2   .000     23  2.500                                                     
  local pseudopotential read in
  partial core-charges read in
  atomic valenz-charges read in
  non local Contribution for L=           0  read in
    real space projection operators read in
  non local Contribution for L=           0  read in
    real space projection operators read in
  non local Contribution for L=           1  read in
    real space projection operators read in
  non local Contribution for L=           1  read in
    real space projection operators read in
  non local Contribution for L=           2  read in
    real space projection operators read in
    PAW grid and wavefunctions read in
 
   number of l-projection  operators is LMAX  =           5
   number of lm-projection operators is LMMAX =          13
 
 POTCAR:   PAW_PBE V_sv 07Sep2000                 
   VRHFIN =V: p6 d4 s1                                                          
   LEXCH  = PE                                                                  
   EATOM  =  1951.3925 eV,  143.4233 Ry                                         
                                                                                
   TITEL  = PAW_PBE V_sv 07Sep2000                                              
   LULTRA =        F    use ultrasoft PP ?                                      
   IUNSCR =        1    unscreen: 0-lin 1-nonlin 2-no                           
   RPACOR =    2.000    partial core radius                                     
   POMASS =   50.941; ZVAL   =   13.000    mass and valenz                      
   RCORE  =    2.300    outmost cutoff radius                                   
   RWIGS  =    2.300; RWIGS  =    1.217    wigner-seitz radius (au A)           
   ENMAX  =  263.675; ENMIN  =  197.756 eV                                      
   RCLOC  =    1.779    cutoff for local pot                                    
   LCOR   =        T    correct aug charges                                     
   LPAW   =        T    paw PP                                                  
   EAUG   =  526.568                                                            
   DEXC   =     .000                                                            
   RMAX   =    2.839    core radius for proj-oper                               
   RAUG   =    1.300    factor for augmentation sphere                          
   RDEP   =    2.430    radius for radial grids                                 
   QCUT   =   -4.402; QGAM   =    8.804    optimization parameters              
                                                                                
   Description                                                                  
     l     E      TYP  RCUT    TYP  RCUT                                        
     0   .000     23  1.800                                                     
     0   .000     23  2.300                                                     
     0   .000     23  1.800                                                     
     0   .000     23  2.300                                                     
     1   .000     23  2.000                                                     
     1   .400     23  2.000                                                     
     2   .000     23  2.300                                                     
     2   .000     23  2.300                                                     
     3   .000      7   .000                                                     
  local pseudopotential read in
  partial core-charges read in
  atomic valenz-charges read in
  non local Contribution for L=           0  read in
    real space projection operators read in
  non local Contribution for L=           0  read in
    real space projection operators read in
  non local Contribution for L=           1  read in
    real space projection operators read in
  non local Contribution for L=           1  read in
    real space projection operators read in
  non local Contribution for L=           2  read in
    real space projection operators read in
  non local Contribution for L=           2  read in
    real space projection operators read in
    PAW grid and wavefunctions read in
 
   number of l-projection  operators is LMAX  =           6
   number of lm-projection operators is LMMAX =          18
 
 POTCAR:   PAW_PBE Sb 06Sep2000                   
   VRHFIN =Sb: s2p3                                                             
   LEXCH  = PE                                                                  
   EATOM  =   149.8037 eV,   11.0103 Ry                                         
                                                                                
   TITEL  = PAW_PBE Sb 06Sep2000                                                
   LULTRA =        F    use ultrasoft PP ?                                      
   IUNSCR =        1    unscreen: 0-lin 1-nonlin 2-no                           
   RPACOR =    2.200    partial core radius                                     
   POMASS =  121.750; ZVAL   =    5.000    mass and valenz                      
   RCORE  =    2.300    outmost cutoff radius                                   
   RWIGS  =    2.980; RWIGS  =    1.577    wigner-seitz radius (au A)           
   ENMAX  =  172.037; ENMIN  =  129.028 eV                                      
   ICORE  =        3    local potential                                         
   LCOR   =        T    correct aug charges                                     
   LPAW   =        T    paw PP                                                  
   EAUG   =  380.513                                                            
   DEXC   =    -.415                                                            
   RMAX   =    3.515    core radius for proj-oper                               
   RAUG   =    1.300    factor for augmentation sphere                          
   RDEP   =    2.360    radius for radial grids                                 
   QCUT   =   -3.556; QGAM   =    7.112    optimization parameters              
                                                                                
   Description                                                                  
     l     E      TYP  RCUT    TYP  RCUT                                        
     0   .000     23  2.300                                                     
     0  1.000     23  2.300                                                     
     1   .000     23  2.300                                                     
     1   .000     23  2.300                                                     
     2   .000     23  2.300                                                     
     3  -.100     23  2.300                                                     
  local pseudopotential read in
  partial core-charges read in
  atomic valenz-charges read in
  non local Contribution for L=           0  read in
    real space projection operators read in
  non local Contribution for L=           0  read in
    real space projection operators read in
  non local Contribution for L=           1  read in
    real space projection operators read in
  non local Contribution for L=           1  read in
    real space projection operators read in
  non local Contribution for L=           2  read in
    real space projection operators read in
    PAW grid and wavefunctions read in
 
   number of l-projection  operators is LMAX  =           5
   number of lm-projection operators is LMMAX =          13
 
 PAW_PBE Cs_sv 08Apr2002                :
 energy of atom  1       EATOM= -555.6835
 kinetic energy error for atom=    0.0019 (will be added to EATOM!!)
 PAW_PBE V_sv 07Sep2000                 :
 energy of atom  2       EATOM=-1951.3925
 kinetic energy error for atom=    0.0070 (will be added to EATOM!!)
 PAW_PBE Sb 06Sep2000                   :
 energy of atom  3       EATOM= -149.8037
 kinetic energy error for atom=    0.0005 (will be added to EATOM!!)
 
 
 POSCAR: Cs  V Sb                                
  positions in direct lattice
  No initial velocities read in
 exchange correlation table for  LEXCH =        8
   RHO(1)=    0.500       N(1)  =     2000
   RHO(2)=  100.500       N(2)  =     4000
 


--------------------------------------------------------------------------------------------------------


 ion  position               nearest neighbor table
   1  0.000  0.000  0.000-
   2  0.500  0.000  0.500-   4 2.75   4 2.75   3 2.75   3 2.75   5 2.75   5 2.75   9 2.77   6 2.77
                             7 2.77   8 2.77
   3  0.000  0.500  0.500-   5 2.75   5 2.75   2 2.75   2 2.75   4 2.75   4 2.75   9 2.77   6 2.77
                             7 2.77   8 2.77
   4  0.500  0.500  0.500-   2 2.75   2 2.75   5 2.75   5 2.75   3 2.75   3 2.75   9 2.77   6 2.77
                             7 2.77   8 2.77
   5  0.000  0.000  0.500-   3 2.75   3 2.75   4 2.75   4 2.75   2 2.75   2 2.75
   6  0.333  0.667  0.730-   2 2.77   3 2.77   4 2.77   7 3.18   7 3.18   7 3.18
   7  0.667  0.333  0.730-   2 2.77   3 2.77   4 2.77   6 3.18   6 3.18   6 3.18
   8  0.333  0.667  0.270-   2 2.77   3 2.77   4 2.77   9 3.18   9 3.18   9 3.18
   9  0.667  0.333  0.270-   2 2.77   3 2.77   4 2.77   8 3.18   8 3.18   8 3.18
 
  LATTYP: Found a hexagonal cell.
 ALAT       =     5.5036918475
 C/A-ratio  =     1.7947505353
  
  Lattice vectors:
  
 A1 = (   5.5036918475,   0.0000000000,   0.0000000000)
 A2 = (  -2.7518459237,   4.7663369545,   0.0000000000)
 A3 = (   0.0000000000,   0.0000000000,   9.8777538894)


Analysis of symmetry for initial positions (statically):
=====================================================================
 Subroutine PRICEL returns:
 Original cell was already a primitive cell.
 

 Routine SETGRP: Setting up the symmetry group for a 
 hexagonal supercell.


 Subroutine GETGRP returns: Found 24 space group operations
 (whereof 24 operations were pure point group operations)
 out of a pool of 24 trial point group operations.


The static configuration has the point symmetry D_6h.


Analysis of symmetry for dynamics (positions and initial velocities):
=====================================================================
 Subroutine PRICEL returns:
 Original cell was already a primitive cell.
 

 Routine SETGRP: Setting up the symmetry group for a 
 hexagonal supercell.


 Subroutine GETGRP returns: Found 24 space group operations
 (whereof 24 operations were pure point group operations)
 out of a pool of 24 trial point group operations.


The dynamic configuration has the point symmetry D_6h.


Analysis of structural, dynamic, and magnetic symmetry:
=====================================================================
 Subroutine PRICEL returns:
 Original cell was already a primitive cell.
 

 Routine SETGRP: Setting up the symmetry group for a 
 hexagonal supercell.


 Subroutine GETGRP returns: Found  2 space group operations
 (whereof  2 operations were pure point group operations)
 out of a pool of 24 trial point group operations.


The (compounded) configuration has the point symmetry S_2 .


 Subroutine INISYM returns: Found  2 space group operations
 (whereof  2 operations are pure point group operations),
 and found     1 'primitive' translations

 
 
 KPOINTS: k-points                                

Automatic generation of k-mesh.
Space group operators:
 irot       det(A)        alpha          n_x          n_y          n_z        tau_x        tau_y        tau_z
    1     1.000000     0.000000     1.000000     0.000000     0.000000     0.000000     0.000000     0.000000
    2    -1.000000     0.000000     1.000000     0.000000     0.000000     0.000000     0.000000     0.000000
 
 Subroutine IBZKPT returns following result:
 ===========================================
 
 Found   1125 irreducible k-points:
 
 Following reciprocal coordinates:
            Coordinates               Weight
  0.000000  0.000000  0.050000      2.000000
  0.066667 -0.000000  0.050000      2.000000
  0.133333  0.000000  0.050000      2.000000
  0.200000  0.000000  0.050000      2.000000
  0.266667  0.000000  0.050000      2.000000
  0.333333  0.000000  0.050000      2.000000
  0.400000  0.000000  0.050000      2.000000
  0.466667  0.000000  0.050000      2.000000
 -0.466667 -0.000000  0.050000      2.000000
 -0.400000 -0.000000  0.050000      2.000000
 -0.333333  0.000000  0.050000      2.000000
 -0.266667  0.000000  0.050000      2.000000
 -0.200000 -0.000000  0.050000      2.000000
 -0.133333  0.000000  0.050000      2.000000
 -0.066667  0.000000  0.050000      2.000000
  0.000000  0.066667  0.050000      2.000000
  0.066667  0.066667  0.050000      2.000000
  0.133333  0.066667  0.050000      2.000000
  0.200000  0.066667  0.050000      2.000000
  0.266667  0.066667  0.050000      2.000000
  0.333333  0.066667  0.050000      2.000000
  0.400000  0.066667  0.050000      2.000000
  0.466667  0.066667  0.050000      2.000000
 -0.466667  0.066667  0.050000      2.000000
 -0.400000  0.066667  0.050000      2.000000
 -0.333333  0.066667  0.050000      2.000000
 -0.266667  0.066667  0.050000      2.000000
 -0.200000  0.066667  0.050000      2.000000
 -0.133333  0.066667  0.050000      2.000000
 -0.066667  0.066667  0.050000      2.000000
  0.000000  0.133333  0.050000      2.000000
  0.066667  0.133333  0.050000      2.000000
  0.133333  0.133333  0.050000      2.000000
  0.200000  0.133333  0.050000      2.000000
  0.266667  0.133333  0.050000      2.000000
  0.333333  0.133333  0.050000      2.000000
  0.400000  0.133333  0.050000      2.000000
  0.466667  0.133333  0.050000      2.000000
 -0.466667  0.133333  0.050000      2.000000
 -0.400000  0.133333  0.050000      2.000000
 -0.333333  0.133333  0.050000      2.000000
 -0.266667  0.133333  0.050000      2.000000
 -0.200000  0.133333  0.050000      2.000000
 -0.133333  0.133333  0.050000      2.000000
 -0.066667  0.133333  0.050000      2.000000
  0.000000  0.200000  0.050000      2.000000
  0.066667  0.200000  0.050000      2.000000
  0.133333  0.200000  0.050000      2.000000
  0.200000  0.200000  0.050000      2.000000
  0.266667  0.200000  0.050000      2.000000
  0.333333  0.200000  0.050000      2.000000
  0.400000  0.200000  0.050000      2.000000
  0.466667  0.200000  0.050000      2.000000
 -0.466667  0.200000  0.050000      2.000000
 -0.400000  0.200000  0.050000      2.000000
 -0.333333  0.200000  0.050000      2.000000
 -0.266667  0.200000  0.050000      2.000000
 -0.200000  0.200000  0.050000      2.000000
 -0.133333  0.200000  0.050000      2.000000
 -0.066667  0.200000  0.050000      2.000000
  0.000000  0.266667  0.050000      2.000000
  0.066667  0.266667  0.050000      2.000000
  0.133333  0.266667  0.050000      2.000000
  0.200000  0.266667  0.050000      2.000000
  0.266667  0.266667  0.050000      2.000000
  0.333333  0.266667  0.050000      2.000000
  0.400000  0.266667  0.050000      2.000000
  0.466667  0.266667  0.050000      2.000000
 -0.466667  0.266667  0.050000      2.000000
 -0.400000  0.266667  0.050000      2.000000
 -0.333333  0.266667  0.050000      2.000000
 -0.266667  0.266667  0.050000      2.000000
 -0.200000  0.266667  0.050000      2.000000
 -0.133333  0.266667  0.050000      2.000000
 -0.066667  0.266667  0.050000      2.000000
  0.000000  0.333333  0.050000      2.000000
  0.066667  0.333333  0.050000      2.000000
  0.133333  0.333333  0.050000      2.000000
  0.200000  0.333333  0.050000      2.000000
  0.266667  0.333333  0.050000      2.000000
  0.333333  0.333333  0.050000      2.000000
  0.400000  0.333333  0.050000      2.000000
  0.466667  0.333333  0.050000      2.000000
 -0.466667  0.333333  0.050000      2.000000
 -0.400000  0.333333  0.050000      2.000000
 -0.333333  0.333333  0.050000      2.000000
 -0.266667  0.333333  0.050000      2.000000
 -0.200000  0.333333  0.050000      2.000000
 -0.133333  0.333333  0.050000      2.000000
 -0.066667  0.333333  0.050000      2.000000
  0.000000  0.400000  0.050000      2.000000
  0.066667  0.400000  0.050000      2.000000
  0.133333  0.400000  0.050000      2.000000
  0.200000  0.400000  0.050000      2.000000
  0.266667  0.400000  0.050000      2.000000
  0.333333  0.400000  0.050000      2.000000
  0.400000  0.400000  0.050000      2.000000
  0.466667  0.400000  0.050000      2.000000
 -0.466667  0.400000  0.050000      2.000000
 -0.400000  0.400000  0.050000      2.000000
 -0.333333  0.400000  0.050000      2.000000
 -0.266667  0.400000  0.050000      2.000000
 -0.200000  0.400000  0.050000      2.000000
 -0.133333  0.400000  0.050000      2.000000
 -0.066667  0.400000  0.050000      2.000000
  0.000000  0.466667  0.050000      2.000000
  0.066667  0.466667  0.050000      2.000000
  0.133333  0.466667  0.050000      2.000000
  0.200000  0.466667  0.050000      2.000000
  0.266667  0.466667  0.050000      2.000000
  0.333333  0.466667  0.050000      2.000000
  0.400000  0.466667  0.050000      2.000000
  0.466667  0.466667  0.050000      2.000000
 -0.466667  0.466667  0.050000      2.000000
 -0.400000  0.466667  0.050000      2.000000
 -0.333333  0.466667  0.050000      2.000000
 -0.266667  0.466667  0.050000      2.000000
 -0.200000  0.466667  0.050000      2.000000
 -0.133333  0.466667  0.050000      2.000000
 -0.066667  0.466667  0.050000      2.000000
  0.000000 -0.466667  0.050000      2.000000
  0.066667 -0.466667  0.050000      2.000000
  0.133333 -0.466667  0.050000      2.000000
  0.200000 -0.466667  0.050000      2.000000
  0.266667 -0.466667  0.050000      2.000000
  0.333333 -0.466667  0.050000      2.000000
  0.400000 -0.466667  0.050000      2.000000
  0.466667 -0.466667  0.050000      2.000000
 -0.466667 -0.466667  0.050000      2.000000
 -0.400000 -0.466667  0.050000      2.000000
 -0.333333 -0.466667  0.050000      2.000000
 -0.266667 -0.466667  0.050000      2.000000
 -0.200000 -0.466667  0.050000      2.000000
 -0.133333 -0.466667  0.050000      2.000000
 -0.066667 -0.466667  0.050000      2.000000
  0.000000 -0.400000  0.050000      2.000000
  0.066667 -0.400000  0.050000      2.000000
  0.133333 -0.400000  0.050000      2.000000
  0.200000 -0.400000  0.050000      2.000000
  0.266667 -0.400000  0.050000      2.000000
  0.333333 -0.400000  0.050000      2.000000
  0.400000 -0.400000  0.050000      2.000000
  0.466667 -0.400000  0.050000      2.000000
 -0.466667 -0.400000  0.050000      2.000000
 -0.400000 -0.400000  0.050000      2.000000
 -0.333333 -0.400000  0.050000      2.000000
 -0.266667 -0.400000  0.050000      2.000000
 -0.200000 -0.400000  0.050000      2.000000
 -0.133333 -0.400000  0.050000      2.000000
 -0.066667 -0.400000  0.050000      2.000000
  0.000000 -0.333333  0.050000      2.000000
  0.066667 -0.333333  0.050000      2.000000
  0.133333 -0.333333  0.050000      2.000000
  0.200000 -0.333333  0.050000      2.000000
  0.266667 -0.333333  0.050000      2.000000
  0.333333 -0.333333  0.050000      2.000000
  0.400000 -0.333333  0.050000      2.000000
  0.466667 -0.333333  0.050000      2.000000
 -0.466667 -0.333333  0.050000      2.000000
 -0.400000 -0.333333  0.050000      2.000000
 -0.333333 -0.333333  0.050000      2.000000
 -0.266667 -0.333333  0.050000      2.000000
 -0.200000 -0.333333  0.050000      2.000000
 -0.133333 -0.333333  0.050000      2.000000
 -0.066667 -0.333333  0.050000      2.000000
  0.000000 -0.266667  0.050000      2.000000
  0.066667 -0.266667  0.050000      2.000000
  0.133333 -0.266667  0.050000      2.000000
  0.200000 -0.266667  0.050000      2.000000
  0.266667 -0.266667  0.050000      2.000000
  0.333333 -0.266667  0.050000      2.000000
  0.400000 -0.266667  0.050000      2.000000
  0.466667 -0.266667  0.050000      2.000000
 -0.466667 -0.266667  0.050000      2.000000
 -0.400000 -0.266667  0.050000      2.000000
 -0.333333 -0.266667  0.050000      2.000000
 -0.266667 -0.266667  0.050000      2.000000
 -0.200000 -0.266667  0.050000      2.000000
 -0.133333 -0.266667  0.050000      2.000000
 -0.066667 -0.266667  0.050000      2.000000
  0.000000 -0.200000  0.050000      2.000000
  0.066667 -0.200000  0.050000      2.000000
  0.133333 -0.200000  0.050000      2.000000
  0.200000 -0.200000  0.050000      2.000000
  0.266667 -0.200000  0.050000      2.000000
  0.333333 -0.200000  0.050000      2.000000
  0.400000 -0.200000  0.050000      2.000000
  0.466667 -0.200000  0.050000      2.000000
 -0.466667 -0.200000  0.050000      2.000000
 -0.400000 -0.200000  0.050000      2.000000
 -0.333333 -0.200000  0.050000      2.000000
 -0.266667 -0.200000  0.050000      2.000000
 -0.200000 -0.200000  0.050000      2.000000
 -0.133333 -0.200000  0.050000      2.000000
 -0.066667 -0.200000  0.050000      2.000000
  0.000000 -0.133333  0.050000      2.000000
  0.066667 -0.133333  0.050000      2.000000
  0.133333 -0.133333  0.050000      2.000000
  0.200000 -0.133333  0.050000      2.000000
  0.266667 -0.133333  0.050000      2.000000
  0.333333 -0.133333  0.050000      2.000000
  0.400000 -0.133333  0.050000      2.000000
  0.466667 -0.133333  0.050000      2.000000
 -0.466667 -0.133333  0.050000      2.000000
 -0.400000 -0.133333  0.050000      2.000000
 -0.333333 -0.133333  0.050000      2.000000
 -0.266667 -0.133333  0.050000      2.000000
 -0.200000 -0.133333  0.050000      2.000000
 -0.133333 -0.133333  0.050000      2.000000
 -0.066667 -0.133333  0.050000      2.000000
  0.000000 -0.066667  0.050000      2.000000
  0.066667 -0.066667  0.050000      2.000000
  0.133333 -0.066667  0.050000      2.000000
  0.200000 -0.066667  0.050000      2.000000
  0.266667 -0.066667  0.050000      2.000000
  0.333333 -0.066667  0.050000      2.000000
  0.400000 -0.066667  0.050000      2.000000
  0.466667 -0.066667  0.050000      2.000000
 -0.466667 -0.066667  0.050000      2.000000
 -0.400000 -0.066667  0.050000      2.000000
 -0.333333 -0.066667  0.050000      2.000000
 -0.266667 -0.066667  0.050000      2.000000
 -0.200000 -0.066667  0.050000      2.000000
 -0.133333 -0.066667  0.050000      2.000000
 -0.066667 -0.066667  0.050000      2.000000
  0.000000  0.000000  0.150000      2.000000
  0.066667 -0.000000  0.150000      2.000000
  0.133333  0.000000  0.150000      2.000000
  0.200000  0.000000  0.150000      2.000000
  0.266667  0.000000  0.150000      2.000000
  0.333333  0.000000  0.150000      2.000000
  0.400000  0.000000  0.150000      2.000000
  0.466667  0.000000  0.150000      2.000000
 -0.466667 -0.000000  0.150000      2.000000
 -0.400000 -0.000000  0.150000      2.000000
 -0.333333  0.000000  0.150000      2.000000
 -0.266667  0.000000  0.150000      2.000000
 -0.200000 -0.000000  0.150000      2.000000
 -0.133333  0.000000  0.150000      2.000000
 -0.066667  0.000000  0.150000      2.000000
  0.000000  0.066667  0.150000      2.000000
  0.066667  0.066667  0.150000      2.000000
  0.133333  0.066667  0.150000      2.000000
  0.200000  0.066667  0.150000      2.000000
  0.266667  0.066667  0.150000      2.000000
  0.333333  0.066667  0.150000      2.000000
  0.400000  0.066667  0.150000      2.000000
  0.466667  0.066667  0.150000      2.000000
 -0.466667  0.066667  0.150000      2.000000
 -0.400000  0.066667  0.150000      2.000000
 -0.333333  0.066667  0.150000      2.000000
 -0.266667  0.066667  0.150000      2.000000
 -0.200000  0.066667  0.150000      2.000000
 -0.133333  0.066667  0.150000      2.000000
 -0.066667  0.066667  0.150000      2.000000
  0.000000  0.133333  0.150000      2.000000
  0.066667  0.133333  0.150000      2.000000
  0.133333  0.133333  0.150000      2.000000
  0.200000  0.133333  0.150000      2.000000
  0.266667  0.133333  0.150000      2.000000
  0.333333  0.133333  0.150000      2.000000
  0.400000  0.133333  0.150000      2.000000
  0.466667  0.133333  0.150000      2.000000
 -0.466667  0.133333  0.150000      2.000000
 -0.400000  0.133333  0.150000      2.000000
 -0.333333  0.133333  0.150000      2.000000
 -0.266667  0.133333  0.150000      2.000000
 -0.200000  0.133333  0.150000      2.000000
 -0.133333  0.133333  0.150000      2.000000
 -0.066667  0.133333  0.150000      2.000000
  0.000000  0.200000  0.150000      2.000000
  0.066667  0.200000  0.150000      2.000000
  0.133333  0.200000  0.150000      2.000000
  0.200000  0.200000  0.150000      2.000000
  0.266667  0.200000  0.150000      2.000000
  0.333333  0.200000  0.150000      2.000000
  0.400000  0.200000  0.150000      2.000000
  0.466667  0.200000  0.150000      2.000000
 -0.466667  0.200000  0.150000      2.000000
 -0.400000  0.200000  0.150000      2.000000
 -0.333333  0.200000  0.150000      2.000000
 -0.266667  0.200000  0.150000      2.000000
 -0.200000  0.200000  0.150000      2.000000
 -0.133333  0.200000  0.150000      2.000000
 -0.066667  0.200000  0.150000      2.000000
  0.000000  0.266667  0.150000      2.000000
  0.066667  0.266667  0.150000      2.000000
  0.133333  0.266667  0.150000      2.000000
  0.200000  0.266667  0.150000      2.000000
  0.266667  0.266667  0.150000      2.000000
  0.333333  0.266667  0.150000      2.000000
  0.400000  0.266667  0.150000      2.000000
  0.466667  0.266667  0.150000      2.000000
 -0.466667  0.266667  0.150000      2.000000
 -0.400000  0.266667  0.150000      2.000000
 -0.333333  0.266667  0.150000      2.000000
 -0.266667  0.266667  0.150000      2.000000
 -0.200000  0.266667  0.150000      2.000000
 -0.133333  0.266667  0.150000      2.000000
 -0.066667  0.266667  0.150000      2.000000
  0.000000  0.333333  0.150000      2.000000
  0.066667  0.333333  0.150000      2.000000
  0.133333  0.333333  0.150000      2.000000
  0.200000  0.333333  0.150000      2.000000
  0.266667  0.333333  0.150000      2.000000
  0.333333  0.333333  0.150000      2.000000
  0.400000  0.333333  0.150000      2.000000
  0.466667  0.333333  0.150000      2.000000
 -0.466667  0.333333  0.150000      2.000000
 -0.400000  0.333333  0.150000      2.000000
 -0.333333  0.333333  0.150000      2.000000
 -0.266667  0.333333  0.150000      2.000000
 -0.200000  0.333333  0.150000      2.000000
 -0.133333  0.333333  0.150000      2.000000
 -0.066667  0.333333  0.150000      2.000000
  0.000000  0.400000  0.150000      2.000000
  0.066667  0.400000  0.150000      2.000000
  0.133333  0.400000  0.150000      2.000000
  0.200000  0.400000  0.150000      2.000000
  0.266667  0.400000  0.150000      2.000000
  0.333333  0.400000  0.150000      2.000000
  0.400000  0.400000  0.150000      2.000000
  0.466667  0.400000  0.150000      2.000000
 -0.466667  0.400000  0.150000      2.000000
 -0.400000  0.400000  0.150000      2.000000
 -0.333333  0.400000  0.150000      2.000000
 -0.266667  0.400000  0.150000      2.000000
 -0.200000  0.400000  0.150000      2.000000
 -0.133333  0.400000  0.150000      2.000000
 -0.066667  0.400000  0.150000      2.000000
  0.000000  0.466667  0.150000      2.000000
  0.066667  0.466667  0.150000      2.000000
  0.133333  0.466667  0.150000      2.000000
  0.200000  0.466667  0.150000      2.000000
  0.266667  0.466667  0.150000      2.000000
  0.333333  0.466667  0.150000      2.000000
  0.400000  0.466667  0.150000      2.000000
  0.466667  0.466667  0.150000      2.000000
 -0.466667  0.466667  0.150000      2.000000
 -0.400000  0.466667  0.150000      2.000000
 -0.333333  0.466667  0.150000      2.000000
 -0.266667  0.466667  0.150000      2.000000
 -0.200000  0.466667  0.150000      2.000000
 -0.133333  0.466667  0.150000      2.000000
 -0.066667  0.466667  0.150000      2.000000
  0.000000 -0.466667  0.150000      2.000000
  0.066667 -0.466667  0.150000      2.000000
  0.133333 -0.466667  0.150000      2.000000
  0.200000 -0.466667  0.150000      2.000000
  0.266667 -0.466667  0.150000      2.000000
  0.333333 -0.466667  0.150000      2.000000
  0.400000 -0.466667  0.150000      2.000000
  0.466667 -0.466667  0.150000      2.000000
 -0.466667 -0.466667  0.150000      2.000000
 -0.400000 -0.466667  0.150000      2.000000
 -0.333333 -0.466667  0.150000      2.000000
 -0.266667 -0.466667  0.150000      2.000000
 -0.200000 -0.466667  0.150000      2.000000
 -0.133333 -0.466667  0.150000      2.000000
 -0.066667 -0.466667  0.150000      2.000000
  0.000000 -0.400000  0.150000      2.000000
  0.066667 -0.400000  0.150000      2.000000
  0.133333 -0.400000  0.150000      2.000000
  0.200000 -0.400000  0.150000      2.000000
  0.266667 -0.400000  0.150000      2.000000
  0.333333 -0.400000  0.150000      2.000000
  0.400000 -0.400000  0.150000      2.000000
  0.466667 -0.400000  0.150000      2.000000
 -0.466667 -0.400000  0.150000      2.000000
 -0.400000 -0.400000  0.150000      2.000000
 -0.333333 -0.400000  0.150000      2.000000
 -0.266667 -0.400000  0.150000      2.000000
 -0.200000 -0.400000  0.150000      2.000000
 -0.133333 -0.400000  0.150000      2.000000
 -0.066667 -0.400000  0.150000      2.000000
  0.000000 -0.333333  0.150000      2.000000
  0.066667 -0.333333  0.150000      2.000000
  0.133333 -0.333333  0.150000      2.000000
  0.200000 -0.333333  0.150000      2.000000
  0.266667 -0.333333  0.150000      2.000000
  0.333333 -0.333333  0.150000      2.000000
  0.400000 -0.333333  0.150000      2.000000
  0.466667 -0.333333  0.150000      2.000000
 -0.466667 -0.333333  0.150000      2.000000
 -0.400000 -0.333333  0.150000      2.000000
 -0.333333 -0.333333  0.150000      2.000000
 -0.266667 -0.333333  0.150000      2.000000
 -0.200000 -0.333333  0.150000      2.000000
 -0.133333 -0.333333  0.150000      2.000000
 -0.066667 -0.333333  0.150000      2.000000
  0.000000 -0.266667  0.150000      2.000000
  0.066667 -0.266667  0.150000      2.000000
  0.133333 -0.266667  0.150000      2.000000
  0.200000 -0.266667  0.150000      2.000000
  0.266667 -0.266667  0.150000      2.000000
  0.333333 -0.266667  0.150000      2.000000
  0.400000 -0.266667  0.150000      2.000000
  0.466667 -0.266667  0.150000      2.000000
 -0.466667 -0.266667  0.150000      2.000000
 -0.400000 -0.266667  0.150000      2.000000
 -0.333333 -0.266667  0.150000      2.000000
 -0.266667 -0.266667  0.150000      2.000000
 -0.200000 -0.266667  0.150000      2.000000
 -0.133333 -0.266667  0.150000      2.000000
 -0.066667 -0.266667  0.150000      2.000000
  0.000000 -0.200000  0.150000      2.000000
  0.066667 -0.200000  0.150000      2.000000
  0.133333 -0.200000  0.150000      2.000000
  0.200000 -0.200000  0.150000      2.000000
  0.266667 -0.200000  0.150000      2.000000
  0.333333 -0.200000  0.150000      2.000000
  0.400000 -0.200000  0.150000      2.000000
  0.466667 -0.200000  0.150000      2.000000
 -0.466667 -0.200000  0.150000      2.000000
 -0.400000 -0.200000  0.150000      2.000000
 -0.333333 -0.200000  0.150000      2.000000
 -0.266667 -0.200000  0.150000      2.000000
 -0.200000 -0.200000  0.150000      2.000000
 -0.133333 -0.200000  0.150000      2.000000
 -0.066667 -0.200000  0.150000      2.000000
  0.000000 -0.133333  0.150000      2.000000
  0.066667 -0.133333  0.150000      2.000000
  0.133333 -0.133333  0.150000      2.000000
  0.200000 -0.133333  0.150000      2.000000
  0.266667 -0.133333  0.150000      2.000000
  0.333333 -0.133333  0.150000      2.000000
  0.400000 -0.133333  0.150000      2.000000
  0.466667 -0.133333  0.150000      2.000000
 -0.466667 -0.133333  0.150000      2.000000
 -0.400000 -0.133333  0.150000      2.000000
 -0.333333 -0.133333  0.150000      2.000000
 -0.266667 -0.133333  0.150000      2.000000
 -0.200000 -0.133333  0.150000      2.000000
 -0.133333 -0.133333  0.150000      2.000000
 -0.066667 -0.133333  0.150000      2.000000
  0.000000 -0.066667  0.150000      2.000000
  0.066667 -0.066667  0.150000      2.000000
  0.133333 -0.066667  0.150000      2.000000
  0.200000 -0.066667  0.150000      2.000000
  0.266667 -0.066667  0.150000      2.000000
  0.333333 -0.066667  0.150000      2.000000
  0.400000 -0.066667  0.150000      2.000000
  0.466667 -0.066667  0.150000      2.000000
 -0.466667 -0.066667  0.150000      2.000000
 -0.400000 -0.066667  0.150000      2.000000
 -0.333333 -0.066667  0.150000      2.000000
 -0.266667 -0.066667  0.150000      2.000000
 -0.200000 -0.066667  0.150000      2.000000
 -0.133333 -0.066667  0.150000      2.000000
 -0.066667 -0.066667  0.150000      2.000000
  0.000000  0.000000  0.250000      2.000000
  0.066667 -0.000000  0.250000      2.000000
  0.133333  0.000000  0.250000      2.000000
  0.200000  0.000000  0.250000      2.000000
  0.266667  0.000000  0.250000      2.000000
  0.333333  0.000000  0.250000      2.000000
  0.400000  0.000000  0.250000      2.000000
  0.466667  0.000000  0.250000      2.000000
 -0.466667 -0.000000  0.250000      2.000000
 -0.400000 -0.000000  0.250000      2.000000
 -0.333333  0.000000  0.250000      2.000000
 -0.266667  0.000000  0.250000      2.000000
 -0.200000 -0.000000  0.250000      2.000000
 -0.133333  0.000000  0.250000      2.000000
 -0.066667  0.000000  0.250000      2.000000
  0.000000  0.066667  0.250000      2.000000
  0.066667  0.066667  0.250000      2.000000
  0.133333  0.066667  0.250000      2.000000
  0.200000  0.066667  0.250000      2.000000
  0.266667  0.066667  0.250000      2.000000
  0.333333  0.066667  0.250000      2.000000
  0.400000  0.066667  0.250000      2.000000
  0.466667  0.066667  0.250000      2.000000
 -0.466667  0.066667  0.250000      2.000000
 -0.400000  0.066667  0.250000      2.000000
 -0.333333  0.066667  0.250000      2.000000
 -0.266667  0.066667  0.250000      2.000000
 -0.200000  0.066667  0.250000      2.000000
 -0.133333  0.066667  0.250000      2.000000
 -0.066667  0.066667  0.250000      2.000000
  0.000000  0.133333  0.250000      2.000000
  0.066667  0.133333  0.250000      2.000000
  0.133333  0.133333  0.250000      2.000000
  0.200000  0.133333  0.250000      2.000000
  0.266667  0.133333  0.250000      2.000000
  0.333333  0.133333  0.250000      2.000000
  0.400000  0.133333  0.250000      2.000000
  0.466667  0.133333  0.250000      2.000000
 -0.466667  0.133333  0.250000      2.000000
 -0.400000  0.133333  0.250000      2.000000
 -0.333333  0.133333  0.250000      2.000000
 -0.266667  0.133333  0.250000      2.000000
 -0.200000  0.133333  0.250000      2.000000
 -0.133333  0.133333  0.250000      2.000000
 -0.066667  0.133333  0.250000      2.000000
  0.000000  0.200000  0.250000      2.000000
  0.066667  0.200000  0.250000      2.000000
  0.133333  0.200000  0.250000      2.000000
  0.200000  0.200000  0.250000      2.000000
  0.266667  0.200000  0.250000      2.000000
  0.333333  0.200000  0.250000      2.000000
  0.400000  0.200000  0.250000      2.000000
  0.466667  0.200000  0.250000      2.000000
 -0.466667  0.200000  0.250000      2.000000
 -0.400000  0.200000  0.250000      2.000000
 -0.333333  0.200000  0.250000      2.000000
 -0.266667  0.200000  0.250000      2.000000
 -0.200000  0.200000  0.250000      2.000000
 -0.133333  0.200000  0.250000      2.000000
 -0.066667  0.200000  0.250000      2.000000
  0.000000  0.266667  0.250000      2.000000
  0.066667  0.266667  0.250000      2.000000
  0.133333  0.266667  0.250000      2.000000
  0.200000  0.266667  0.250000      2.000000
  0.266667  0.266667  0.250000      2.000000
  0.333333  0.266667  0.250000      2.000000
  0.400000  0.266667  0.250000      2.000000
  0.466667  0.266667  0.250000      2.000000
 -0.466667  0.266667  0.250000      2.000000
 -0.400000  0.266667  0.250000      2.000000
 -0.333333  0.266667  0.250000      2.000000
 -0.266667  0.266667  0.250000      2.000000
 -0.200000  0.266667  0.250000      2.000000
 -0.133333  0.266667  0.250000      2.000000
 -0.066667  0.266667  0.250000      2.000000
  0.000000  0.333333  0.250000      2.000000
  0.066667  0.333333  0.250000      2.000000
  0.133333  0.333333  0.250000      2.000000
  0.200000  0.333333  0.250000      2.000000
  0.266667  0.333333  0.250000      2.000000
  0.333333  0.333333  0.250000      2.000000
  0.400000  0.333333  0.250000      2.000000
  0.466667  0.333333  0.250000      2.000000
 -0.466667  0.333333  0.250000      2.000000
 -0.400000  0.333333  0.250000      2.000000
 -0.333333  0.333333  0.250000      2.000000
 -0.266667  0.333333  0.250000      2.000000
 -0.200000  0.333333  0.250000      2.000000
 -0.133333  0.333333  0.250000      2.000000
 -0.066667  0.333333  0.250000      2.000000
  0.000000  0.400000  0.250000      2.000000
  0.066667  0.400000  0.250000      2.000000
  0.133333  0.400000  0.250000      2.000000
  0.200000  0.400000  0.250000      2.000000
  0.266667  0.400000  0.250000      2.000000
  0.333333  0.400000  0.250000      2.000000
  0.400000  0.400000  0.250000      2.000000
  0.466667  0.400000  0.250000      2.000000
 -0.466667  0.400000  0.250000      2.000000
 -0.400000  0.400000  0.250000      2.000000
 -0.333333  0.400000  0.250000      2.000000
 -0.266667  0.400000  0.250000      2.000000
 -0.200000  0.400000  0.250000      2.000000
 -0.133333  0.400000  0.250000      2.000000
 -0.066667  0.400000  0.250000      2.000000
  0.000000  0.466667  0.250000      2.000000
  0.066667  0.466667  0.250000      2.000000
  0.133333  0.466667  0.250000      2.000000
  0.200000  0.466667  0.250000      2.000000
  0.266667  0.466667  0.250000      2.000000
  0.333333  0.466667  0.250000      2.000000
  0.400000  0.466667  0.250000      2.000000
  0.466667  0.466667  0.250000      2.000000
 -0.466667  0.466667  0.250000      2.000000
 -0.400000  0.466667  0.250000      2.000000
 -0.333333  0.466667  0.250000      2.000000
 -0.266667  0.466667  0.250000      2.000000
 -0.200000  0.466667  0.250000      2.000000
 -0.133333  0.466667  0.250000      2.000000
 -0.066667  0.466667  0.250000      2.000000
  0.000000 -0.466667  0.250000      2.000000
  0.066667 -0.466667  0.250000      2.000000
  0.133333 -0.466667  0.250000      2.000000
  0.200000 -0.466667  0.250000      2.000000
  0.266667 -0.466667  0.250000      2.000000
  0.333333 -0.466667  0.250000      2.000000
  0.400000 -0.466667  0.250000      2.000000
  0.466667 -0.466667  0.250000      2.000000
 -0.466667 -0.466667  0.250000      2.000000
 -0.400000 -0.466667  0.250000      2.000000
 -0.333333 -0.466667  0.250000      2.000000
 -0.266667 -0.466667  0.250000      2.000000
 -0.200000 -0.466667  0.250000      2.000000
 -0.133333 -0.466667  0.250000      2.000000
 -0.066667 -0.466667  0.250000      2.000000
  0.000000 -0.400000  0.250000      2.000000
  0.066667 -0.400000  0.250000      2.000000
  0.133333 -0.400000  0.250000      2.000000
  0.200000 -0.400000  0.250000      2.000000
  0.266667 -0.400000  0.250000      2.000000
  0.333333 -0.400000  0.250000      2.000000
  0.400000 -0.400000  0.250000      2.000000
  0.466667 -0.400000  0.250000      2.000000
 -0.466667 -0.400000  0.250000      2.000000
 -0.400000 -0.400000  0.250000      2.000000
 -0.333333 -0.400000  0.250000      2.000000
 -0.266667 -0.400000  0.250000      2.000000
 -0.200000 -0.400000  0.250000      2.000000
 -0.133333 -0.400000  0.250000      2.000000
 -0.066667 -0.400000  0.250000      2.000000
  0.000000 -0.333333  0.250000      2.000000
  0.066667 -0.333333  0.250000      2.000000
  0.133333 -0.333333  0.250000      2.000000
  0.200000 -0.333333  0.250000      2.000000
  0.266667 -0.333333  0.250000      2.000000
  0.333333 -0.333333  0.250000      2.000000
  0.400000 -0.333333  0.250000      2.000000
  0.466667 -0.333333  0.250000      2.000000
 -0.466667 -0.333333  0.250000      2.000000
 -0.400000 -0.333333  0.250000      2.000000
 -0.333333 -0.333333  0.250000      2.000000
 -0.266667 -0.333333  0.250000      2.000000
 -0.200000 -0.333333  0.250000      2.000000
 -0.133333 -0.333333  0.250000      2.000000
 -0.066667 -0.333333  0.250000      2.000000
  0.000000 -0.266667  0.250000      2.000000
  0.066667 -0.266667  0.250000      2.000000
  0.133333 -0.266667  0.250000      2.000000
  0.200000 -0.266667  0.250000      2.000000
  0.266667 -0.266667  0.250000      2.000000
  0.333333 -0.266667  0.250000      2.000000
  0.400000 -0.266667  0.250000      2.000000
  0.466667 -0.266667  0.250000      2.000000
 -0.466667 -0.266667  0.250000      2.000000
 -0.400000 -0.266667  0.250000      2.000000
 -0.333333 -0.266667  0.250000      2.000000
 -0.266667 -0.266667  0.250000      2.000000
 -0.200000 -0.266667  0.250000      2.000000
 -0.133333 -0.266667  0.250000      2.000000
 -0.066667 -0.266667  0.250000      2.000000
  0.000000 -0.200000  0.250000      2.000000
  0.066667 -0.200000  0.250000      2.000000
  0.133333 -0.200000  0.250000      2.000000
  0.200000 -0.200000  0.250000      2.000000
  0.266667 -0.200000  0.250000      2.000000
  0.333333 -0.200000  0.250000      2.000000
  0.400000 -0.200000  0.250000      2.000000
  0.466667 -0.200000  0.250000      2.000000
 -0.466667 -0.200000  0.250000      2.000000
 -0.400000 -0.200000  0.250000      2.000000
 -0.333333 -0.200000  0.250000      2.000000
 -0.266667 -0.200000  0.250000      2.000000
 -0.200000 -0.200000  0.250000      2.000000
 -0.133333 -0.200000  0.250000      2.000000
 -0.066667 -0.200000  0.250000      2.000000
  0.000000 -0.133333  0.250000      2.000000
  0.066667 -0.133333  0.250000      2.000000
  0.133333 -0.133333  0.250000      2.000000
  0.200000 -0.133333  0.250000      2.000000
  0.266667 -0.133333  0.250000      2.000000
  0.333333 -0.133333  0.250000      2.000000
  0.400000 -0.133333  0.250000      2.000000
  0.466667 -0.133333  0.250000      2.000000
 -0.466667 -0.133333  0.250000      2.000000
 -0.400000 -0.133333  0.250000      2.000000
 -0.333333 -0.133333  0.250000      2.000000
 -0.266667 -0.133333  0.250000      2.000000
 -0.200000 -0.133333  0.250000      2.000000
 -0.133333 -0.133333  0.250000      2.000000
 -0.066667 -0.133333  0.250000      2.000000
  0.000000 -0.066667  0.250000      2.000000
  0.066667 -0.066667  0.250000      2.000000
  0.133333 -0.066667  0.250000      2.000000
  0.200000 -0.066667  0.250000      2.000000
  0.266667 -0.066667  0.250000      2.000000
  0.333333 -0.066667  0.250000      2.000000
  0.400000 -0.066667  0.250000      2.000000
  0.466667 -0.066667  0.250000      2.000000
 -0.466667 -0.066667  0.250000      2.000000
 -0.400000 -0.066667  0.250000      2.000000
 -0.333333 -0.066667  0.250000      2.000000
 -0.266667 -0.066667  0.250000      2.000000
 -0.200000 -0.066667  0.250000      2.000000
 -0.133333 -0.066667  0.250000      2.000000
 -0.066667 -0.066667  0.250000      2.000000
  0.000000  0.000000  0.350000      2.000000
  0.066667 -0.000000  0.350000      2.000000
  0.133333  0.000000  0.350000      2.000000
  0.200000  0.000000  0.350000      2.000000
  0.266667  0.000000  0.350000      2.000000
  0.333333  0.000000  0.350000      2.000000
  0.400000  0.000000  0.350000      2.000000
  0.466667  0.000000  0.350000      2.000000
 -0.466667 -0.000000  0.350000      2.000000
 -0.400000 -0.000000  0.350000      2.000000
 -0.333333  0.000000  0.350000      2.000000
 -0.266667  0.000000  0.350000      2.000000
 -0.200000 -0.000000  0.350000      2.000000
 -0.133333  0.000000  0.350000      2.000000
 -0.066667  0.000000  0.350000      2.000000
  0.000000  0.066667  0.350000      2.000000
  0.066667  0.066667  0.350000      2.000000
  0.133333  0.066667  0.350000      2.000000
  0.200000  0.066667  0.350000      2.000000
  0.266667  0.066667  0.350000      2.000000
  0.333333  0.066667  0.350000      2.000000
  0.400000  0.066667  0.350000      2.000000
  0.466667  0.066667  0.350000      2.000000
 -0.466667  0.066667  0.350000      2.000000
 -0.400000  0.066667  0.350000      2.000000
 -0.333333  0.066667  0.350000      2.000000
 -0.266667  0.066667  0.350000      2.000000
 -0.200000  0.066667  0.350000      2.000000
 -0.133333  0.066667  0.350000      2.000000
 -0.066667  0.066667  0.350000      2.000000
  0.000000  0.133333  0.350000      2.000000
  0.066667  0.133333  0.350000      2.000000
  0.133333  0.133333  0.350000      2.000000
  0.200000  0.133333  0.350000      2.000000
  0.266667  0.133333  0.350000      2.000000
  0.333333  0.133333  0.350000      2.000000
  0.400000  0.133333  0.350000      2.000000
  0.466667  0.133333  0.350000      2.000000
 -0.466667  0.133333  0.350000      2.000000
 -0.400000  0.133333  0.350000      2.000000
 -0.333333  0.133333  0.350000      2.000000
 -0.266667  0.133333  0.350000      2.000000
 -0.200000  0.133333  0.350000      2.000000
 -0.133333  0.133333  0.350000      2.000000
 -0.066667  0.133333  0.350000      2.000000
  0.000000  0.200000  0.350000      2.000000
  0.066667  0.200000  0.350000      2.000000
  0.133333  0.200000  0.350000      2.000000
  0.200000  0.200000  0.350000      2.000000
  0.266667  0.200000  0.350000      2.000000
  0.333333  0.200000  0.350000      2.000000
  0.400000  0.200000  0.350000      2.000000
  0.466667  0.200000  0.350000      2.000000
 -0.466667  0.200000  0.350000      2.000000
 -0.400000  0.200000  0.350000      2.000000
 -0.333333  0.200000  0.350000      2.000000
 -0.266667  0.200000  0.350000      2.000000
 -0.200000  0.200000  0.350000      2.000000
 -0.133333  0.200000  0.350000      2.000000
 -0.066667  0.200000  0.350000      2.000000
  0.000000  0.266667  0.350000      2.000000
  0.066667  0.266667  0.350000      2.000000
  0.133333  0.266667  0.350000      2.000000
  0.200000  0.266667  0.350000      2.000000
  0.266667  0.266667  0.350000      2.000000
  0.333333  0.266667  0.350000      2.000000
  0.400000  0.266667  0.350000      2.000000
  0.466667  0.266667  0.350000      2.000000
 -0.466667  0.266667  0.350000      2.000000
 -0.400000  0.266667  0.350000      2.000000
 -0.333333  0.266667  0.350000      2.000000
 -0.266667  0.266667  0.350000      2.000000
 -0.200000  0.266667  0.350000      2.000000
 -0.133333  0.266667  0.350000      2.000000
 -0.066667  0.266667  0.350000      2.000000
  0.000000  0.333333  0.350000      2.000000
  0.066667  0.333333  0.350000      2.000000
  0.133333  0.333333  0.350000      2.000000
  0.200000  0.333333  0.350000      2.000000
  0.266667  0.333333  0.350000      2.000000
  0.333333  0.333333  0.350000      2.000000
  0.400000  0.333333  0.350000      2.000000
  0.466667  0.333333  0.350000      2.000000
 -0.466667  0.333333  0.350000      2.000000
 -0.400000  0.333333  0.350000      2.000000
 -0.333333  0.333333  0.350000      2.000000
 -0.266667  0.333333  0.350000      2.000000
 -0.200000  0.333333  0.350000      2.000000
 -0.133333  0.333333  0.350000      2.000000
 -0.066667  0.333333  0.350000      2.000000
  0.000000  0.400000  0.350000      2.000000
  0.066667  0.400000  0.350000      2.000000
  0.133333  0.400000  0.350000      2.000000
  0.200000  0.400000  0.350000      2.000000
  0.266667  0.400000  0.350000      2.000000
  0.333333  0.400000  0.350000      2.000000
  0.400000  0.400000  0.350000      2.000000
  0.466667  0.400000  0.350000      2.000000
 -0.466667  0.400000  0.350000      2.000000
 -0.400000  0.400000  0.350000      2.000000
 -0.333333  0.400000  0.350000      2.000000
 -0.266667  0.400000  0.350000      2.000000
 -0.200000  0.400000  0.350000      2.000000
 -0.133333  0.400000  0.350000      2.000000
 -0.066667  0.400000  0.350000      2.000000
  0.000000  0.466667  0.350000      2.000000
  0.066667  0.466667  0.350000      2.000000
  0.133333  0.466667  0.350000      2.000000
  0.200000  0.466667  0.350000      2.000000
  0.266667  0.466667  0.350000      2.000000
  0.333333  0.466667  0.350000      2.000000
  0.400000  0.466667  0.350000      2.000000
  0.466667  0.466667  0.350000      2.000000
 -0.466667  0.466667  0.350000      2.000000
 -0.400000  0.466667  0.350000      2.000000
 -0.333333  0.466667  0.350000      2.000000
 -0.266667  0.466667  0.350000      2.000000
 -0.200000  0.466667  0.350000      2.000000
 -0.133333  0.466667  0.350000      2.000000
 -0.066667  0.466667  0.350000      2.000000
  0.000000 -0.466667  0.350000      2.000000
  0.066667 -0.466667  0.350000      2.000000
  0.133333 -0.466667  0.350000      2.000000
  0.200000 -0.466667  0.350000      2.000000
  0.266667 -0.466667  0.350000      2.000000
  0.333333 -0.466667  0.350000      2.000000
  0.400000 -0.466667  0.350000      2.000000
  0.466667 -0.466667  0.350000      2.000000
 -0.466667 -0.466667  0.350000      2.000000
 -0.400000 -0.466667  0.350000      2.000000
 -0.333333 -0.466667  0.350000      2.000000
 -0.266667 -0.466667  0.350000      2.000000
 -0.200000 -0.466667  0.350000      2.000000
 -0.133333 -0.466667  0.350000      2.000000
 -0.066667 -0.466667  0.350000      2.000000
  0.000000 -0.400000  0.350000      2.000000
  0.066667 -0.400000  0.350000      2.000000
  0.133333 -0.400000  0.350000      2.000000
  0.200000 -0.400000  0.350000      2.000000
  0.266667 -0.400000  0.350000      2.000000
  0.333333 -0.400000  0.350000      2.000000
  0.400000 -0.400000  0.350000      2.000000
  0.466667 -0.400000  0.350000      2.000000
 -0.466667 -0.400000  0.350000      2.000000
 -0.400000 -0.400000  0.350000      2.000000
 -0.333333 -0.400000  0.350000      2.000000
 -0.266667 -0.400000  0.350000      2.000000
 -0.200000 -0.400000  0.350000      2.000000
 -0.133333 -0.400000  0.350000      2.000000
 -0.066667 -0.400000  0.350000      2.000000
  0.000000 -0.333333  0.350000      2.000000
  0.066667 -0.333333  0.350000      2.000000
  0.133333 -0.333333  0.350000      2.000000
  0.200000 -0.333333  0.350000      2.000000
  0.266667 -0.333333  0.350000      2.000000
  0.333333 -0.333333  0.350000      2.000000
  0.400000 -0.333333  0.350000      2.000000
  0.466667 -0.333333  0.350000      2.000000
 -0.466667 -0.333333  0.350000      2.000000
 -0.400000 -0.333333  0.350000      2.000000
 -0.333333 -0.333333  0.350000      2.000000
 -0.266667 -0.333333  0.350000      2.000000
 -0.200000 -0.333333  0.350000      2.000000
 -0.133333 -0.333333  0.350000      2.000000
 -0.066667 -0.333333  0.350000      2.000000
  0.000000 -0.266667  0.350000      2.000000
  0.066667 -0.266667  0.350000      2.000000
  0.133333 -0.266667  0.350000      2.000000
  0.200000 -0.266667  0.350000      2.000000
  0.266667 -0.266667  0.350000      2.000000
  0.333333 -0.266667  0.350000      2.000000
  0.400000 -0.266667  0.350000      2.000000
  0.466667 -0.266667  0.350000      2.000000
 -0.466667 -0.266667  0.350000      2.000000
 -0.400000 -0.266667  0.350000      2.000000
 -0.333333 -0.266667  0.350000      2.000000
 -0.266667 -0.266667  0.350000      2.000000
 -0.200000 -0.266667  0.350000      2.000000
 -0.133333 -0.266667  0.350000      2.000000
 -0.066667 -0.266667  0.350000      2.000000
  0.000000 -0.200000  0.350000      2.000000
  0.066667 -0.200000  0.350000      2.000000
  0.133333 -0.200000  0.350000      2.000000
  0.200000 -0.200000  0.350000      2.000000
  0.266667 -0.200000  0.350000      2.000000
  0.333333 -0.200000  0.350000      2.000000
  0.400000 -0.200000  0.350000      2.000000
  0.466667 -0.200000  0.350000      2.000000
 -0.466667 -0.200000  0.350000      2.000000
 -0.400000 -0.200000  0.350000      2.000000
 -0.333333 -0.200000  0.350000      2.000000
 -0.266667 -0.200000  0.350000      2.000000
 -0.200000 -0.200000  0.350000      2.000000
 -0.133333 -0.200000  0.350000      2.000000
 -0.066667 -0.200000  0.350000      2.000000
  0.000000 -0.133333  0.350000      2.000000
  0.066667 -0.133333  0.350000      2.000000
  0.133333 -0.133333  0.350000      2.000000
  0.200000 -0.133333  0.350000      2.000000
  0.266667 -0.133333  0.350000      2.000000
  0.333333 -0.133333  0.350000      2.000000
  0.400000 -0.133333  0.350000      2.000000
  0.466667 -0.133333  0.350000      2.000000
 -0.466667 -0.133333  0.350000      2.000000
 -0.400000 -0.133333  0.350000      2.000000
 -0.333333 -0.133333  0.350000      2.000000
 -0.266667 -0.133333  0.350000      2.000000
 -0.200000 -0.133333  0.350000      2.000000
 -0.133333 -0.133333  0.350000      2.000000
 -0.066667 -0.133333  0.350000      2.000000
  0.000000 -0.066667  0.350000      2.000000
  0.066667 -0.066667  0.350000      2.000000
  0.133333 -0.066667  0.350000      2.000000
  0.200000 -0.066667  0.350000      2.000000
  0.266667 -0.066667  0.350000      2.000000
  0.333333 -0.066667  0.350000      2.000000
  0.400000 -0.066667  0.350000      2.000000
  0.466667 -0.066667  0.350000      2.000000
 -0.466667 -0.066667  0.350000      2.000000
 -0.400000 -0.066667  0.350000      2.000000
 -0.333333 -0.066667  0.350000      2.000000
 -0.266667 -0.066667  0.350000      2.000000
 -0.200000 -0.066667  0.350000      2.000000
 -0.133333 -0.066667  0.350000      2.000000
 -0.066667 -0.066667  0.350000      2.000000
  0.000000  0.000000  0.450000      2.000000
  0.066667 -0.000000  0.450000      2.000000
  0.133333  0.000000  0.450000      2.000000
  0.200000  0.000000  0.450000      2.000000
  0.266667  0.000000  0.450000      2.000000
  0.333333  0.000000  0.450000      2.000000
  0.400000  0.000000  0.450000      2.000000
  0.466667  0.000000  0.450000      2.000000
 -0.466667 -0.000000  0.450000      2.000000
 -0.400000 -0.000000  0.450000      2.000000
 -0.333333  0.000000  0.450000      2.000000
 -0.266667  0.000000  0.450000      2.000000
 -0.200000 -0.000000  0.450000      2.000000
 -0.133333  0.000000  0.450000      2.000000
 -0.066667  0.000000  0.450000      2.000000
  0.000000  0.066667  0.450000      2.000000
  0.066667  0.066667  0.450000      2.000000
  0.133333  0.066667  0.450000      2.000000
  0.200000  0.066667  0.450000      2.000000
  0.266667  0.066667  0.450000      2.000000
  0.333333  0.066667  0.450000      2.000000
  0.400000  0.066667  0.450000      2.000000
  0.466667  0.066667  0.450000      2.000000
 -0.466667  0.066667  0.450000      2.000000
 -0.400000  0.066667  0.450000      2.000000
 -0.333333  0.066667  0.450000      2.000000
 -0.266667  0.066667  0.450000      2.000000
 -0.200000  0.066667  0.450000      2.000000
 -0.133333  0.066667  0.450000      2.000000
 -0.066667  0.066667  0.450000      2.000000
  0.000000  0.133333  0.450000      2.000000
  0.066667  0.133333  0.450000      2.000000
  0.133333  0.133333  0.450000      2.000000
  0.200000  0.133333  0.450000      2.000000
  0.266667  0.133333  0.450000      2.000000
  0.333333  0.133333  0.450000      2.000000
  0.400000  0.133333  0.450000      2.000000
  0.466667  0.133333  0.450000      2.000000
 -0.466667  0.133333  0.450000      2.000000
 -0.400000  0.133333  0.450000      2.000000
 -0.333333  0.133333  0.450000      2.000000
 -0.266667  0.133333  0.450000      2.000000
 -0.200000  0.133333  0.450000      2.000000
 -0.133333  0.133333  0.450000      2.000000
 -0.066667  0.133333  0.450000      2.000000
  0.000000  0.200000  0.450000      2.000000
  0.066667  0.200000  0.450000      2.000000
  0.133333  0.200000  0.450000      2.000000
  0.200000  0.200000  0.450000      2.000000
  0.266667  0.200000  0.450000      2.000000
  0.333333  0.200000  0.450000      2.000000
  0.400000  0.200000  0.450000      2.000000
  0.466667  0.200000  0.450000      2.000000
 -0.466667  0.200000  0.450000      2.000000
 -0.400000  0.200000  0.450000      2.000000
 -0.333333  0.200000  0.450000      2.000000
 -0.266667  0.200000  0.450000      2.000000
 -0.200000  0.200000  0.450000      2.000000
 -0.133333  0.200000  0.450000      2.000000
 -0.066667  0.200000  0.450000      2.000000
  0.000000  0.266667  0.450000      2.000000
  0.066667  0.266667  0.450000      2.000000
  0.133333  0.266667  0.450000      2.000000
  0.200000  0.266667  0.450000      2.000000
  0.266667  0.266667  0.450000      2.000000
  0.333333  0.266667  0.450000      2.000000
  0.400000  0.266667  0.450000      2.000000
  0.466667  0.266667  0.450000      2.000000
 -0.466667  0.266667  0.450000      2.000000
 -0.400000  0.266667  0.450000      2.000000
 -0.333333  0.266667  0.450000      2.000000
 -0.266667  0.266667  0.450000      2.000000
 -0.200000  0.266667  0.450000      2.000000
 -0.133333  0.266667  0.450000      2.000000
 -0.066667  0.266667  0.450000      2.000000
  0.000000  0.333333  0.450000      2.000000
  0.066667  0.333333  0.450000      2.000000
  0.133333  0.333333  0.450000      2.000000
  0.200000  0.333333  0.450000      2.000000
  0.266667  0.333333  0.450000      2.000000
  0.333333  0.333333  0.450000      2.000000
  0.400000  0.333333  0.450000      2.000000
  0.466667  0.333333  0.450000      2.000000
 -0.466667  0.333333  0.450000      2.000000
 -0.400000  0.333333  0.450000      2.000000
 -0.333333  0.333333  0.450000      2.000000
 -0.266667  0.333333  0.450000      2.000000
 -0.200000  0.333333  0.450000      2.000000
 -0.133333  0.333333  0.450000      2.000000
 -0.066667  0.333333  0.450000      2.000000
  0.000000  0.400000  0.450000      2.000000
  0.066667  0.400000  0.450000      2.000000
  0.133333  0.400000  0.450000      2.000000
  0.200000  0.400000  0.450000      2.000000
  0.266667  0.400000  0.450000      2.000000
  0.333333  0.400000  0.450000      2.000000
  0.400000  0.400000  0.450000      2.000000
  0.466667  0.400000  0.450000      2.000000
 -0.466667  0.400000  0.450000      2.000000
 -0.400000  0.400000  0.450000      2.000000
 -0.333333  0.400000  0.450000      2.000000
 -0.266667  0.400000  0.450000      2.000000
 -0.200000  0.400000  0.450000      2.000000
 -0.133333  0.400000  0.450000      2.000000
 -0.066667  0.400000  0.450000      2.000000
  0.000000  0.466667  0.450000      2.000000
  0.066667  0.466667  0.450000      2.000000
  0.133333  0.466667  0.450000      2.000000
  0.200000  0.466667  0.450000      2.000000
  0.266667  0.466667  0.450000      2.000000
  0.333333  0.466667  0.450000      2.000000
  0.400000  0.466667  0.450000      2.000000
  0.466667  0.466667  0.450000      2.000000
 -0.466667  0.466667  0.450000      2.000000
 -0.400000  0.466667  0.450000      2.000000
 -0.333333  0.466667  0.450000      2.000000
 -0.266667  0.466667  0.450000      2.000000
 -0.200000  0.466667  0.450000      2.000000
 -0.133333  0.466667  0.450000      2.000000
 -0.066667  0.466667  0.450000      2.000000
  0.000000 -0.466667  0.450000      2.000000
  0.066667 -0.466667  0.450000      2.000000
  0.133333 -0.466667  0.450000      2.000000
  0.200000 -0.466667  0.450000      2.000000
  0.266667 -0.466667  0.450000      2.000000
  0.333333 -0.466667  0.450000      2.000000
  0.400000 -0.466667  0.450000      2.000000
  0.466667 -0.466667  0.450000      2.000000
 -0.466667 -0.466667  0.450000      2.000000
 -0.400000 -0.466667  0.450000      2.000000
 -0.333333 -0.466667  0.450000      2.000000
 -0.266667 -0.466667  0.450000      2.000000
 -0.200000 -0.466667  0.450000      2.000000
 -0.133333 -0.466667  0.450000      2.000000
 -0.066667 -0.466667  0.450000      2.000000
  0.000000 -0.400000  0.450000      2.000000
  0.066667 -0.400000  0.450000      2.000000
  0.133333 -0.400000  0.450000      2.000000
  0.200000 -0.400000  0.450000      2.000000
  0.266667 -0.400000  0.450000      2.000000
  0.333333 -0.400000  0.450000      2.000000
  0.400000 -0.400000  0.450000      2.000000
  0.466667 -0.400000  0.450000      2.000000
 -0.466667 -0.400000  0.450000      2.000000
 -0.400000 -0.400000  0.450000      2.000000
 -0.333333 -0.400000  0.450000      2.000000
 -0.266667 -0.400000  0.450000      2.000000
 -0.200000 -0.400000  0.450000      2.000000
 -0.133333 -0.400000  0.450000      2.000000
 -0.066667 -0.400000  0.450000      2.000000
  0.000000 -0.333333  0.450000      2.000000
  0.066667 -0.333333  0.450000      2.000000
  0.133333 -0.333333  0.450000      2.000000
  0.200000 -0.333333  0.450000      2.000000
  0.266667 -0.333333  0.450000      2.000000
  0.333333 -0.333333  0.450000      2.000000
  0.400000 -0.333333  0.450000      2.000000
  0.466667 -0.333333  0.450000      2.000000
 -0.466667 -0.333333  0.450000      2.000000
 -0.400000 -0.333333  0.450000      2.000000
 -0.333333 -0.333333  0.450000      2.000000
 -0.266667 -0.333333  0.450000      2.000000
 -0.200000 -0.333333  0.450000      2.000000
 -0.133333 -0.333333  0.450000      2.000000
 -0.066667 -0.333333  0.450000      2.000000
  0.000000 -0.266667  0.450000      2.000000
  0.066667 -0.266667  0.450000      2.000000
  0.133333 -0.266667  0.450000      2.000000
  0.200000 -0.266667  0.450000      2.000000
  0.266667 -0.266667  0.450000      2.000000
  0.333333 -0.266667  0.450000      2.000000
  0.400000 -0.266667  0.450000      2.000000
  0.466667 -0.266667  0.450000      2.000000
 -0.466667 -0.266667  0.450000      2.000000
 -0.400000 -0.266667  0.450000      2.000000
 -0.333333 -0.266667  0.450000      2.000000
 -0.266667 -0.266667  0.450000      2.000000
 -0.200000 -0.266667  0.450000      2.000000
 -0.133333 -0.266667  0.450000      2.000000
 -0.066667 -0.266667  0.450000      2.000000
  0.000000 -0.200000  0.450000      2.000000
  0.066667 -0.200000  0.450000      2.000000
  0.133333 -0.200000  0.450000      2.000000
  0.200000 -0.200000  0.450000      2.000000
  0.266667 -0.200000  0.450000      2.000000
  0.333333 -0.200000  0.450000      2.000000
  0.400000 -0.200000  0.450000      2.000000
  0.466667 -0.200000  0.450000      2.000000
 -0.466667 -0.200000  0.450000      2.000000
 -0.400000 -0.200000  0.450000      2.000000
 -0.333333 -0.200000  0.450000      2.000000
 -0.266667 -0.200000  0.450000      2.000000
 -0.200000 -0.200000  0.450000      2.000000
 -0.133333 -0.200000  0.450000      2.000000
 -0.066667 -0.200000  0.450000      2.000000
  0.000000 -0.133333  0.450000      2.000000
  0.066667 -0.133333  0.450000      2.000000
  0.133333 -0.133333  0.450000      2.000000
  0.200000 -0.133333  0.450000      2.000000
  0.266667 -0.133333  0.450000      2.000000
  0.333333 -0.133333  0.450000      2.000000
  0.400000 -0.133333  0.450000      2.000000
  0.466667 -0.133333  0.450000      2.000000
 -0.466667 -0.133333  0.450000      2.000000
 -0.400000 -0.133333  0.450000      2.000000
 -0.333333 -0.133333  0.450000      2.000000
 -0.266667 -0.133333  0.450000      2.000000
 -0.200000 -0.133333  0.450000      2.000000
 -0.133333 -0.133333  0.450000      2.000000
 -0.066667 -0.133333  0.450000      2.000000
  0.000000 -0.066667  0.450000      2.000000
  0.066667 -0.066667  0.450000      2.000000
  0.133333 -0.066667  0.450000      2.000000
  0.200000 -0.066667  0.450000      2.000000
  0.266667 -0.066667  0.450000      2.000000
  0.333333 -0.066667  0.450000      2.000000
  0.400000 -0.066667  0.450000      2.000000
  0.466667 -0.066667  0.450000      2.000000
 -0.466667 -0.066667  0.450000      2.000000
 -0.400000 -0.066667  0.450000      2.000000
 -0.333333 -0.066667  0.450000      2.000000
 -0.266667 -0.066667  0.450000      2.000000
 -0.200000 -0.066667  0.450000      2.000000
 -0.133333 -0.066667  0.450000      2.000000
 -0.066667 -0.066667  0.450000      2.000000
 
 Following cartesian coordinates:
            Coordinates               Weight
  0.000000  0.000000  0.005062      2.000000
  0.012113  0.006993  0.005062      2.000000
  0.024226  0.013987  0.005062      2.000000
  0.036339  0.020980  0.005062      2.000000
  0.048452  0.027974  0.005062      2.000000
  0.060565  0.034967  0.005062      2.000000
  0.072678  0.041961  0.005062      2.000000
  0.084792  0.048954  0.005062      2.000000
 -0.084792 -0.048954  0.005062      2.000000
 -0.072678 -0.041961  0.005062      2.000000
 -0.060565 -0.034967  0.005062      2.000000
 -0.048452 -0.027974  0.005062      2.000000
 -0.036339 -0.020980  0.005062      2.000000
 -0.024226 -0.013987  0.005062      2.000000
 -0.012113 -0.006993  0.005062      2.000000
  0.000000  0.013987  0.005062      2.000000
  0.012113  0.020980  0.005062      2.000000
  0.024226  0.027974  0.005062      2.000000
  0.036339  0.034967  0.005062      2.000000
  0.048452  0.041961  0.005062      2.000000
  0.060565  0.048954  0.005062      2.000000
  0.072678  0.055948  0.005062      2.000000
  0.084792  0.062941  0.005062      2.000000
 -0.084792 -0.034967  0.005062      2.000000
 -0.072678 -0.027974  0.005062      2.000000
 -0.060565 -0.020980  0.005062      2.000000
 -0.048452 -0.013987  0.005062      2.000000
 -0.036339 -0.006993  0.005062      2.000000
 -0.024226  0.000000  0.005062      2.000000
 -0.012113  0.006993  0.005062      2.000000
  0.000000  0.027974  0.005062      2.000000
  0.012113  0.034967  0.005062      2.000000
  0.024226  0.041961  0.005062      2.000000
  0.036339  0.048954  0.005062      2.000000
  0.048452  0.055948  0.005062      2.000000
  0.060565  0.062941  0.005062      2.000000
  0.072678  0.069935  0.005062      2.000000
  0.084792  0.076928  0.005062      2.000000
 -0.084792 -0.020980  0.005062      2.000000
 -0.072678 -0.013987  0.005062      2.000000
 -0.060565 -0.006993  0.005062      2.000000
 -0.048452  0.000000  0.005062      2.000000
 -0.036339  0.006993  0.005062      2.000000
 -0.024226  0.013987  0.005062      2.000000
 -0.012113  0.020980  0.005062      2.000000
  0.000000  0.041961  0.005062      2.000000
  0.012113  0.048954  0.005062      2.000000
  0.024226  0.055948  0.005062      2.000000
  0.036339  0.062941  0.005062      2.000000
  0.048452  0.069935  0.005062      2.000000
  0.060565  0.076928  0.005062      2.000000
  0.072678  0.083922  0.005062      2.000000
  0.084792  0.090915  0.005062      2.000000
 -0.084792 -0.006993  0.005062      2.000000
 -0.072678  0.000000  0.005062      2.000000
 -0.060565  0.006993  0.005062      2.000000
 -0.048452  0.013987  0.005062      2.000000
 -0.036339  0.020980  0.005062      2.000000
 -0.024226  0.027974  0.005062      2.000000
 -0.012113  0.034967  0.005062      2.000000
  0.000000  0.055948  0.005062      2.000000
  0.012113  0.062941  0.005062      2.000000
  0.024226  0.069935  0.005062      2.000000
  0.036339  0.076928  0.005062      2.000000
  0.048452  0.083922  0.005062      2.000000
  0.060565  0.090915  0.005062      2.000000
  0.072678  0.097909  0.005062      2.000000
  0.084792  0.104902  0.005062      2.000000
 -0.084792  0.006993  0.005062      2.000000
 -0.072678  0.013987  0.005062      2.000000
 -0.060565  0.020980  0.005062      2.000000
 -0.048452  0.027974  0.005062      2.000000
 -0.036339  0.034967  0.005062      2.000000
 -0.024226  0.041961  0.005062      2.000000
 -0.012113  0.048954  0.005062      2.000000
  0.000000  0.069935  0.005062      2.000000
  0.012113  0.076928  0.005062      2.000000
  0.024226  0.083922  0.005062      2.000000
  0.036339  0.090915  0.005062      2.000000
  0.048452  0.097909  0.005062      2.000000
  0.060565  0.104902  0.005062      2.000000
  0.072678  0.111896  0.005062      2.000000
  0.084792  0.118889  0.005062      2.000000
 -0.084792  0.020980  0.005062      2.000000
 -0.072678  0.027974  0.005062      2.000000
 -0.060565  0.034967  0.005062      2.000000
 -0.048452  0.041961  0.005062      2.000000
 -0.036339  0.048954  0.005062      2.000000
 -0.024226  0.055948  0.005062      2.000000
 -0.012113  0.062941  0.005062      2.000000
  0.000000  0.083922  0.005062      2.000000
  0.012113  0.090915  0.005062      2.000000
  0.024226  0.097909  0.005062      2.000000
  0.036339  0.104902  0.005062      2.000000
  0.048452  0.111896  0.005062      2.000000
  0.060565  0.118889  0.005062      2.000000
  0.072678  0.125883  0.005062      2.000000
  0.084792  0.132876  0.005062      2.000000
 -0.084792  0.034967  0.005062      2.000000
 -0.072678  0.041961  0.005062      2.000000
 -0.060565  0.048954  0.005062      2.000000
 -0.048452  0.055948  0.005062      2.000000
 -0.036339  0.062941  0.005062      2.000000
 -0.024226  0.069935  0.005062      2.000000
 -0.012113  0.076928  0.005062      2.000000
  0.000000  0.097909  0.005062      2.000000
  0.012113  0.104902  0.005062      2.000000
  0.024226  0.111896  0.005062      2.000000
  0.036339  0.118889  0.005062      2.000000
  0.048452  0.125883  0.005062      2.000000
  0.060565  0.132876  0.005062      2.000000
  0.072678  0.139870  0.005062      2.000000
  0.084792  0.146863  0.005062      2.000000
 -0.084792  0.048954  0.005062      2.000000
 -0.072678  0.055948  0.005062      2.000000
 -0.060565  0.062941  0.005062      2.000000
 -0.048452  0.069935  0.005062      2.000000
 -0.036339  0.076928  0.005062      2.000000
 -0.024226  0.083922  0.005062      2.000000
 -0.012113  0.090915  0.005062      2.000000
  0.000000 -0.097909  0.005062      2.000000
  0.012113 -0.090915  0.005062      2.000000
  0.024226 -0.083922  0.005062      2.000000
  0.036339 -0.076928  0.005062      2.000000
  0.048452 -0.069935  0.005062      2.000000
  0.060565 -0.062941  0.005062      2.000000
  0.072678 -0.055948  0.005062      2.000000
  0.084792 -0.048954  0.005062      2.000000
 -0.084792 -0.146863  0.005062      2.000000
 -0.072678 -0.139870  0.005062      2.000000
 -0.060565 -0.132876  0.005062      2.000000
 -0.048452 -0.125883  0.005062      2.000000
 -0.036339 -0.118889  0.005062      2.000000
 -0.024226 -0.111896  0.005062      2.000000
 -0.012113 -0.104902  0.005062      2.000000
  0.000000 -0.083922  0.005062      2.000000
  0.012113 -0.076928  0.005062      2.000000
  0.024226 -0.069935  0.005062      2.000000
  0.036339 -0.062941  0.005062      2.000000
  0.048452 -0.055948  0.005062      2.000000
  0.060565 -0.048954  0.005062      2.000000
  0.072678 -0.041961  0.005062      2.000000
  0.084792 -0.034967  0.005062      2.000000
 -0.084792 -0.132876  0.005062      2.000000
 -0.072678 -0.125883  0.005062      2.000000
 -0.060565 -0.118889  0.005062      2.000000
 -0.048452 -0.111896  0.005062      2.000000
 -0.036339 -0.104902  0.005062      2.000000
 -0.024226 -0.097909  0.005062      2.000000
 -0.012113 -0.090915  0.005062      2.000000
  0.000000 -0.069935  0.005062      2.000000
  0.012113 -0.062941  0.005062      2.000000
  0.024226 -0.055948  0.005062      2.000000
  0.036339 -0.048954  0.005062      2.000000
  0.048452 -0.041961  0.005062      2.000000
  0.060565 -0.034967  0.005062      2.000000
  0.072678 -0.027974  0.005062      2.000000
  0.084792 -0.020980  0.005062      2.000000
 -0.084792 -0.118889  0.005062      2.000000
 -0.072678 -0.111896  0.005062      2.000000
 -0.060565 -0.104902  0.005062      2.000000
 -0.048452 -0.097909  0.005062      2.000000
 -0.036339 -0.090915  0.005062      2.000000
 -0.024226 -0.083922  0.005062      2.000000
 -0.012113 -0.076928  0.005062      2.000000
  0.000000 -0.055948  0.005062      2.000000
  0.012113 -0.048954  0.005062      2.000000
  0.024226 -0.041961  0.005062      2.000000
  0.036339 -0.034967  0.005062      2.000000
  0.048452 -0.027974  0.005062      2.000000
  0.060565 -0.020980  0.005062      2.000000
  0.072678 -0.013987  0.005062      2.000000
  0.084792 -0.006993  0.005062      2.000000
 -0.084792 -0.104902  0.005062      2.000000
 -0.072678 -0.097909  0.005062      2.000000
 -0.060565 -0.090915  0.005062      2.000000
 -0.048452 -0.083922  0.005062      2.000000
 -0.036339 -0.076928  0.005062      2.000000
 -0.024226 -0.069935  0.005062      2.000000
 -0.012113 -0.062941  0.005062      2.000000
  0.000000 -0.041961  0.005062      2.000000
  0.012113 -0.034967  0.005062      2.000000
  0.024226 -0.027974  0.005062      2.000000
  0.036339 -0.020980  0.005062      2.000000
  0.048452 -0.013987  0.005062      2.000000
  0.060565 -0.006993  0.005062      2.000000
  0.072678 -0.000000  0.005062      2.000000
  0.084792  0.006993  0.005062      2.000000
 -0.084792 -0.090915  0.005062      2.000000
 -0.072678 -0.083922  0.005062      2.000000
 -0.060565 -0.076928  0.005062      2.000000
 -0.048452 -0.069935  0.005062      2.000000
 -0.036339 -0.062941  0.005062      2.000000
 -0.024226 -0.055948  0.005062      2.000000
 -0.012113 -0.048954  0.005062      2.000000
  0.000000 -0.027974  0.005062      2.000000
  0.012113 -0.020980  0.005062      2.000000
  0.024226 -0.013987  0.005062      2.000000
  0.036339 -0.006993  0.005062      2.000000
  0.048452 -0.000000  0.005062      2.000000
  0.060565  0.006993  0.005062      2.000000
  0.072678  0.013987  0.005062      2.000000
  0.084792  0.020980  0.005062      2.000000
 -0.084792 -0.076928  0.005062      2.000000
 -0.072678 -0.069935  0.005062      2.000000
 -0.060565 -0.062941  0.005062      2.000000
 -0.048452 -0.055948  0.005062      2.000000
 -0.036339 -0.048954  0.005062      2.000000
 -0.024226 -0.041961  0.005062      2.000000
 -0.012113 -0.034967  0.005062      2.000000
  0.000000 -0.013987  0.005062      2.000000
  0.012113 -0.006993  0.005062      2.000000
  0.024226 -0.000000  0.005062      2.000000
  0.036339  0.006993  0.005062      2.000000
  0.048452  0.013987  0.005062      2.000000
  0.060565  0.020980  0.005062      2.000000
  0.072678  0.027974  0.005062      2.000000
  0.084792  0.034967  0.005062      2.000000
 -0.084792 -0.062941  0.005062      2.000000
 -0.072678 -0.055948  0.005062      2.000000
 -0.060565 -0.048954  0.005062      2.000000
 -0.048452 -0.041961  0.005062      2.000000
 -0.036339 -0.034967  0.005062      2.000000
 -0.024226 -0.027974  0.005062      2.000000
 -0.012113 -0.020980  0.005062      2.000000
  0.000000  0.000000  0.015186      2.000000
  0.012113  0.006993  0.015186      2.000000
  0.024226  0.013987  0.015186      2.000000
  0.036339  0.020980  0.015186      2.000000
  0.048452  0.027974  0.015186      2.000000
  0.060565  0.034967  0.015186      2.000000
  0.072678  0.041961  0.015186      2.000000
  0.084792  0.048954  0.015186      2.000000
 -0.084792 -0.048954  0.015186      2.000000
 -0.072678 -0.041961  0.015186      2.000000
 -0.060565 -0.034967  0.015186      2.000000
 -0.048452 -0.027974  0.015186      2.000000
 -0.036339 -0.020980  0.015186      2.000000
 -0.024226 -0.013987  0.015186      2.000000
 -0.012113 -0.006993  0.015186      2.000000
  0.000000  0.013987  0.015186      2.000000
  0.012113  0.020980  0.015186      2.000000
  0.024226  0.027974  0.015186      2.000000
  0.036339  0.034967  0.015186      2.000000
  0.048452  0.041961  0.015186      2.000000
  0.060565  0.048954  0.015186      2.000000
  0.072678  0.055948  0.015186      2.000000
  0.084792  0.062941  0.015186      2.000000
 -0.084792 -0.034967  0.015186      2.000000
 -0.072678 -0.027974  0.015186      2.000000
 -0.060565 -0.020980  0.015186      2.000000
 -0.048452 -0.013987  0.015186      2.000000
 -0.036339 -0.006993  0.015186      2.000000
 -0.024226  0.000000  0.015186      2.000000
 -0.012113  0.006993  0.015186      2.000000
  0.000000  0.027974  0.015186      2.000000
  0.012113  0.034967  0.015186      2.000000
  0.024226  0.041961  0.015186      2.000000
  0.036339  0.048954  0.015186      2.000000
  0.048452  0.055948  0.015186      2.000000
  0.060565  0.062941  0.015186      2.000000
  0.072678  0.069935  0.015186      2.000000
  0.084792  0.076928  0.015186      2.000000
 -0.084792 -0.020980  0.015186      2.000000
 -0.072678 -0.013987  0.015186      2.000000
 -0.060565 -0.006993  0.015186      2.000000
 -0.048452  0.000000  0.015186      2.000000
 -0.036339  0.006993  0.015186      2.000000
 -0.024226  0.013987  0.015186      2.000000
 -0.012113  0.020980  0.015186      2.000000
  0.000000  0.041961  0.015186      2.000000
  0.012113  0.048954  0.015186      2.000000
  0.024226  0.055948  0.015186      2.000000
  0.036339  0.062941  0.015186      2.000000
  0.048452  0.069935  0.015186      2.000000
  0.060565  0.076928  0.015186      2.000000
  0.072678  0.083922  0.015186      2.000000
  0.084792  0.090915  0.015186      2.000000
 -0.084792 -0.006993  0.015186      2.000000
 -0.072678  0.000000  0.015186      2.000000
 -0.060565  0.006993  0.015186      2.000000
 -0.048452  0.013987  0.015186      2.000000
 -0.036339  0.020980  0.015186      2.000000
 -0.024226  0.027974  0.015186      2.000000
 -0.012113  0.034967  0.015186      2.000000
  0.000000  0.055948  0.015186      2.000000
  0.012113  0.062941  0.015186      2.000000
  0.024226  0.069935  0.015186      2.000000
  0.036339  0.076928  0.015186      2.000000
  0.048452  0.083922  0.015186      2.000000
  0.060565  0.090915  0.015186      2.000000
  0.072678  0.097909  0.015186      2.000000
  0.084792  0.104902  0.015186      2.000000
 -0.084792  0.006993  0.015186      2.000000
 -0.072678  0.013987  0.015186      2.000000
 -0.060565  0.020980  0.015186      2.000000
 -0.048452  0.027974  0.015186      2.000000
 -0.036339  0.034967  0.015186      2.000000
 -0.024226  0.041961  0.015186      2.000000
 -0.012113  0.048954  0.015186      2.000000
  0.000000  0.069935  0.015186      2.000000
  0.012113  0.076928  0.015186      2.000000
  0.024226  0.083922  0.015186      2.000000
  0.036339  0.090915  0.015186      2.000000
  0.048452  0.097909  0.015186      2.000000
  0.060565  0.104902  0.015186      2.000000
  0.072678  0.111896  0.015186      2.000000
  0.084792  0.118889  0.015186      2.000000
 -0.084792  0.020980  0.015186      2.000000
 -0.072678  0.027974  0.015186      2.000000
 -0.060565  0.034967  0.015186      2.000000
 -0.048452  0.041961  0.015186      2.000000
 -0.036339  0.048954  0.015186      2.000000
 -0.024226  0.055948  0.015186      2.000000
 -0.012113  0.062941  0.015186      2.000000
  0.000000  0.083922  0.015186      2.000000
[...]
  0.000  -0.000   0.000   0.000   0.000   0.000   0.000   0.000  -0.000  -0.000  -0.000   0.000  -0.000
  0.000   0.000   0.000   0.000   0.000   0.000   0.000   0.000  -0.000  -0.000   0.000  -0.000   0.000
 -0.000   0.000   0.000   0.000   0.000   0.000   0.000   0.000  -0.000   0.000  -0.000   0.000   0.000
 -0.000   0.000   0.000   0.000   0.000   0.000   0.000   0.000   0.000  -0.000   0.000   0.000  -0.000
 -0.000   0.000   0.000   0.000   0.000   0.000   0.000   0.000  -0.000   0.000   0.000  -0.000  -0.000
 total augmentation occupancy for first ion, spin component:           4
  0.000   0.000   0.000   0.000   0.000   0.000   0.000   0.000   0.000   0.000  -0.000   0.000  -0.000
  0.000   0.000   0.000   0.000   0.000   0.000   0.000   0.000  -0.000  -0.000   0.000  -0.000   0.000
  0.000   0.000   0.000  -0.000  -0.000  -0.000   0.000   0.000   0.000   0.000   0.000   0.000   0.000
  0.000   0.000  -0.000   0.000  -0.000   0.000   0.000   0.000   0.000   0.000   0.000   0.000   0.000
  0.000   0.000  -0.000  -0.000   0.000   0.000   0.000  -0.000   0.000   0.000   0.000   0.000   0.000
  0.000   0.000  -0.000   0.000   0.000  -0.000  -0.000  -0.000   0.000   0.000   0.000   0.000   0.000
  0.000   0.000   0.000   0.000   0.000  -0.000   0.000  -0.000   0.000   0.000   0.000   0.000   0.000
  0.000   0.000   0.000   0.000  -0.000  -0.000  -0.000  -0.000   0.000   0.000   0.000   0.000   0.000
  0.000  -0.000   0.000   0.000   0.000   0.000   0.000   0.000  -0.000   0.000  -0.000   0.000  -0.000
  0.000  -0.000   0.000   0.000   0.000   0.000   0.000   0.000   0.000  -0.000  -0.000  -0.000  -0.000
 -0.000   0.000   0.000   0.000   0.000   0.000   0.000   0.000  -0.000  -0.000  -0.000  -0.000   0.000
  0.000  -0.000   0.000   0.000   0.000   0.000   0.000   0.000   0.000  -0.000  -0.000   0.000  -0.000
 -0.000   0.000   0.000   0.000   0.000   0.000   0.000   0.000  -0.000  -0.000   0.000  -0.000  -0.000


------------------------ aborting loop because EDIFF is reached ----------------------------------------


    CHARGE:  cpu time   24.5844: real time   24.6890
    FORLOC:  cpu time    0.0041: real time    0.0041
    FORNL :  cpu time   48.2663: real time   48.3934
    STRESS:  cpu time   55.2247: real time   55.3743
    FORCOR:  cpu time    0.0948: real time    0.0952
    FORHAR:  cpu time    0.0119: real time    0.0120
    MIXING:  cpu time    0.0077: real time    0.0077
    OFIELD:  cpu time    0.0001: real time    0.0001

  FORCE on cell =-STRESS in cart. coord.  units (eV):
  Direction    XX          YY          ZZ          XY          YZ          ZX
  --------------------------------------------------------------------------------------
  Alpha Z   164.08284   164.08284   164.08284
  Ewald    1060.16225  1060.16225 -4436.40781     0.00000     0.00000    -0.00000
  Hartree  3121.46843  3121.47095 -1911.70041    -0.00353    -0.00001    -0.00002
  E(xc)    -353.48044  -353.48044  -355.48803    -0.00000    -0.00000     0.00000
  Local   -5000.18400 -5000.18687  5527.27458     0.00374     0.00003     0.00005
  n-local   125.15070   125.15071   137.12186     0.00007     0.00004     0.00005
  augment    21.88437    21.88444    14.51284     0.00004    -0.00000    -0.00000
  Kinetic   861.00992   861.00993   860.56260     0.00002     0.00002     0.00003
  Fock        0.00000     0.00000     0.00000     0.00000     0.00000     0.00000
  -------------------------------------------------------------------------------------
  Total       0.09407     0.09381    -0.04153     0.00034     0.00007     0.00011
  in kB       0.58164     0.58002    -0.25676     0.00209     0.00044     0.00068
  external pressure =        0.30 kB  Pullay stress =        0.00 kB


 VOLUME and BASIS-vectors are now :
 -----------------------------------------------------------------------------
  energy-cutoff  :      500.00
  volume of cell :      259.12
      direct lattice vectors                 reciprocal lattice vectors
     5.503691847  0.000000000  0.000000000     0.181696219  0.104902361  0.000000000
    -2.751845924  4.766336954  0.000000000     0.000000000  0.209804722  0.000000000
     0.000000000  0.000000000  9.877753889     0.000000000  0.000000000  0.101237590

  length of vectors
     5.503691847  5.503691847  9.877753889     0.209804722  0.209804722  0.101237590


 FORCES acting on ions
    electron-ion (+dipol)            ewald-force                    non-local-force                 convergence-correction
 -----------------------------------------------------------------------------------------------
   0.513E-08 0.144E-08 0.400E-08   0.199E-14 0.833E-15 -.284E-13   0.000E+00 0.000E+00 0.000E+00   -.110E-13 -.901E-14 -.332E-12
   0.467E-15 0.169E-13 0.166E-11   -.644E-14 -.639E-13 0.000E+00   0.000E+00 0.000E+00 0.000E+00   -.206E-12 0.174E-13 0.710E-12
   0.434E-13 0.697E-13 0.154E-11   -.711E-14 0.000E+00 0.284E-13   0.000E+00 0.000E+00 0.000E+00   0.218E-12 -.400E-13 0.700E-12
   -.623E-12 0.103E-11 0.151E-11   0.711E-14 -.178E-13 -.284E-13   0.000E+00 0.000E+00 0.000E+00   -.203E-12 -.184E-13 0.697E-12
   0.469E-13 0.394E-13 -.180E-13   0.178E-14 -.383E-14 0.000E+00   -.205E-21 0.000E+00 0.000E+00   0.179E-13 0.192E-13 0.191E-12
   0.248E-03 0.107E-04 -.371E+03   0.146E-07 -.980E-08 0.375E+03   -.343E-05 0.294E-04 -.417E+01   -.243E-03 -.461E-04 -.891E-03
   -.245E-03 -.397E-05 -.371E+03   -.146E-07 0.980E-08 0.375E+03   -.217E-05 -.387E-04 -.417E+01   0.244E-03 0.475E-04 -.892E-03
   0.245E-03 0.397E-05 0.371E+03   0.146E-07 -.980E-08 -.375E+03   0.217E-05 0.387E-04 0.417E+01   -.244E-03 -.475E-04 0.892E-03
   -.248E-03 -.107E-04 0.371E+03   -.146E-07 0.980E-08 -.375E+03   0.343E-05 -.294E-04 0.417E+01   0.243E-03 0.461E-04 0.891E-03
 -----------------------------------------------------------------------------------------------
   0.513E-08 0.144E-08 0.401E-08   -.291E-14 0.851E-15 -.114E-12   0.000E+00 0.000E+00 0.000E+00   -.190E-12 -.443E-13 0.204E-11
 
 
 POSITION                                       TOTAL-FORCE (eV/Angst)
 -----------------------------------------------------------------------------------
      0.00000      0.00000      0.00000         0.000000      0.000000      0.000000
      2.75185      0.00000      4.93888         0.000000      0.000000      0.000000
     -1.37592      2.38317      4.93888         0.000000      0.000000      0.000000
      1.37592      2.38317      4.93888         0.000000      0.000000      0.000000
      0.00000      0.00000      4.93888         0.000000      0.000000      0.000000
     -0.00000      3.17756      7.21219         0.000002     -0.000006     -0.006508
      2.75185      1.58878      7.21219        -0.000003      0.000005     -0.006507
     -0.00000      3.17756      2.66556         0.000003     -0.000005      0.006507
      2.75185      1.58878      2.66556        -0.000002      0.000006      0.006508
 -----------------------------------------------------------------------------------
    total drift:                                0.000000      0.000000      0.000000


--------------------------------------------------------------------------------------------------------



  FREE ENERGIE OF THE ION-ELECTRON SYSTEM (eV)
  ---------------------------------------------------
  free  energy   TOTEN  =       -51.76792006 eV

  energy  without entropy=      -51.73732114  energy(sigma->0) =      -51.75262060
 


--------------------------------------------------------------------------------------------------------


    POTLOK:  cpu time    0.1165: real time    0.1169


--------------------------------------------------------------------------------------------------------


 writing wavefunctions
     LOOP+:  cpu time 6700.9356: real time 6812.0918
    4ORBIT:  cpu time    0.0000: real time    0.0000

 Spin-Orbit-Coupling matrix elements

 Ion:    1  E_soc:     -0.2862349
 l=   1
     0.0000000    -0.0477482    -0.0474919
    -0.0477482     0.0000000    -0.0477482
    -0.0474919    -0.0477482     0.0000000
 l=   2
     0.0000000    -0.0000110     0.0000000    -0.0000110    -0.0000214
    -0.0000110     0.0000000    -0.0000243    -0.0000151    -0.0000110
     0.0000000    -0.0000243     0.0000000    -0.0000243     0.0000000
    -0.0000110    -0.0000151    -0.0000243     0.0000000    -0.0000110
    -0.0000214    -0.0000110     0.0000000    -0.0000110     0.0000000
 l=   3
     0.0000000     0.0000000     0.0000000     0.0000000     0.0000000     0.0000000     0.0000000
     0.0000000     0.0000000     0.0000000     0.0000000     0.0000000     0.0000000     0.0000000
     0.0000000     0.0000000     0.0000000     0.0000000     0.0000000     0.0000000     0.0000000
     0.0000000     0.0000000     0.0000000     0.0000000     0.0000000     0.0000000     0.0000000
     0.0000000     0.0000000     0.0000000     0.0000000     0.0000000     0.0000000     0.0000000
     0.0000000     0.0000000     0.0000000     0.0000000     0.0000000     0.0000000     0.0000000
     0.0000000     0.0000000     0.0000000     0.0000000     0.0000000     0.0000000     0.0000000

 Ion:    2  E_soc:     -0.0193581
 l=   1
     0.0000000    -0.0024306    -0.0024219
    -0.0024306     0.0000000    -0.0024310
    -0.0024219    -0.0024310     0.0000000
 l=   2
     0.0000000    -0.0002537     0.0000000    -0.0001109    -0.0004252
    -0.0002537     0.0000000    -0.0005939    -0.0001832    -0.0001772
     0.0000000    -0.0005939     0.0000000    -0.0005782     0.0000000
    -0.0001109    -0.0001832    -0.0005782     0.0000000    -0.0000733
    -0.0004252    -0.0001772     0.0000000    -0.0000733     0.0000000
 l=   3
     0.0000000     0.0000000     0.0000000     0.0000000     0.0000000     0.0000000     0.0000000
     0.0000000     0.0000000     0.0000000     0.0000000     0.0000000     0.0000000     0.0000000
     0.0000000     0.0000000     0.0000000     0.0000000     0.0000000     0.0000000     0.0000000
     0.0000000     0.0000000     0.0000000     0.0000000     0.0000000     0.0000000     0.0000000
     0.0000000     0.0000000     0.0000000     0.0000000     0.0000000     0.0000000     0.0000000
     0.0000000     0.0000000     0.0000000     0.0000000     0.0000000     0.0000000     0.0000000
     0.0000000     0.0000000     0.0000000     0.0000000     0.0000000     0.0000000     0.0000000

 Ion:    3  E_soc:     -0.0193570
 l=   1
     0.0000000    -0.0024308    -0.0024216
    -0.0024308     0.0000000    -0.0024305
    -0.0024216    -0.0024305     0.0000000
 l=   2
     0.0000000    -0.0001038     0.0000000    -0.0001752    -0.0004252
    -0.0001038     0.0000000    -0.0005821    -0.0001832    -0.0001420
     0.0000000    -0.0005821     0.0000000    -0.0005900     0.0000000
    -0.0001752    -0.0001832    -0.0005900     0.0000000    -0.0001940
    -0.0004252    -0.0001420     0.0000000    -0.0001940     0.0000000
 l=   3
     0.0000000     0.0000000     0.0000000     0.0000000     0.0000000     0.0000000     0.0000000
     0.0000000     0.0000000     0.0000000     0.0000000     0.0000000     0.0000000     0.0000000
     0.0000000     0.0000000     0.0000000     0.0000000     0.0000000     0.0000000     0.0000000
     0.0000000     0.0000000     0.0000000     0.0000000     0.0000000     0.0000000     0.0000000
     0.0000000     0.0000000     0.0000000     0.0000000     0.0000000     0.0000000     0.0000000
     0.0000000     0.0000000     0.0000000     0.0000000     0.0000000     0.0000000     0.0000000
     0.0000000     0.0000000     0.0000000     0.0000000     0.0000000     0.0000000     0.0000000

 Ion:    4  E_soc:     -0.0193580
 l=   1
     0.0000000    -0.0024309    -0.0024219
    -0.0024309     0.0000000    -0.0024306
    -0.0024219    -0.0024306     0.0000000
 l=   2
     0.0000000    -0.0001038     0.0000000    -0.0001752    -0.0004252
    -0.0001038     0.0000000    -0.0005821    -0.0001832    -0.0001420
     0.0000000    -0.0005821     0.0000000    -0.0005900     0.0000000
    -0.0001752    -0.0001832    -0.0005900     0.0000000    -0.0001940
    -0.0004252    -0.0001420     0.0000000    -0.0001940     0.0000000
 l=   3
     0.0000000     0.0000000     0.0000000     0.0000000     0.0000000     0.0000000     0.0000000
     0.0000000     0.0000000     0.0000000     0.0000000     0.0000000     0.0000000     0.0000000
     0.0000000     0.0000000     0.0000000     0.0000000     0.0000000     0.0000000     0.0000000
     0.0000000     0.0000000     0.0000000     0.0000000     0.0000000     0.0000000     0.0000000
     0.0000000     0.0000000     0.0000000     0.0000000     0.0000000     0.0000000     0.0000000
     0.0000000     0.0000000     0.0000000     0.0000000     0.0000000     0.0000000     0.0000000
     0.0000000     0.0000000     0.0000000     0.0000000     0.0000000     0.0000000     0.0000000

 Ion:    5  E_soc:     -0.1238157
 l=   1
     0.0000000    -0.0214271    -0.0184505
    -0.0214271     0.0000000    -0.0214270
    -0.0184505    -0.0214270     0.0000000
 l=   2
     0.0000000    -0.0000511     0.0000000    -0.0000511    -0.0001797
    -0.0000511     0.0000000    -0.0000802    -0.0000589    -0.0000511
     0.0000000    -0.0000802     0.0000000    -0.0000802     0.0000000
    -0.0000511    -0.0000589    -0.0000802     0.0000000    -0.0000511
    -0.0001797    -0.0000511     0.0000000    -0.0000511     0.0000000
 l=   3
     0.0000000     0.0000000     0.0000000     0.0000000     0.0000000     0.0000000     0.0000000
     0.0000000     0.0000000     0.0000000     0.0000000     0.0000000     0.0000000     0.0000000
     0.0000000     0.0000000     0.0000000     0.0000000     0.0000000     0.0000000     0.0000000
     0.0000000     0.0000000     0.0000000     0.0000000     0.0000000     0.0000000     0.0000000
     0.0000000     0.0000000     0.0000000     0.0000000     0.0000000     0.0000000     0.0000000
     0.0000000     0.0000000     0.0000000     0.0000000     0.0000000     0.0000000     0.0000000
     0.0000000     0.0000000     0.0000000     0.0000000     0.0000000     0.0000000     0.0000000

 Ion:    6  E_soc:     -0.1269919
 l=   1
     0.0000000    -0.0213249    -0.0204849
    -0.0213249     0.0000000    -0.0213249
    -0.0204849    -0.0213249     0.0000000
 l=   2
     0.0000000    -0.0000209     0.0000000    -0.0000209    -0.0001307
    -0.0000209     0.0000000    -0.0000744     0.0000018    -0.0000209
     0.0000000    -0.0000744     0.0000000    -0.0000744     0.0000000
    -0.0000209     0.0000018    -0.0000744     0.0000000    -0.0000209
    -0.0001307    -0.0000209     0.0000000    -0.0000209     0.0000000
 l=   3
     0.0000000     0.0000000     0.0000000     0.0000000     0.0000000     0.0000000     0.0000000
     0.0000000     0.0000000     0.0000000     0.0000000     0.0000000     0.0000000     0.0000000
     0.0000000     0.0000000     0.0000000     0.0000000     0.0000000     0.0000000     0.0000000
     0.0000000     0.0000000     0.0000000     0.0000000     0.0000000     0.0000000     0.0000000
     0.0000000     0.0000000     0.0000000     0.0000000     0.0000000     0.0000000     0.0000000
     0.0000000     0.0000000     0.0000000     0.0000000     0.0000000     0.0000000     0.0000000
     0.0000000     0.0000000     0.0000000     0.0000000     0.0000000     0.0000000     0.0000000

 Ion:    7  E_soc:     -0.1269919
 l=   1
     0.0000000    -0.0213249    -0.0204849
    -0.0213249     0.0000000    -0.0213249
    -0.0204849    -0.0213249     0.0000000
 l=   2
     0.0000000    -0.0000209     0.0000000    -0.0000209    -0.0001307
    -0.0000209     0.0000000    -0.0000744     0.0000018    -0.0000209
     0.0000000    -0.0000744     0.0000000    -0.0000744     0.0000000
    -0.0000209     0.0000018    -0.0000744     0.0000000    -0.0000209
    -0.0001307    -0.0000209     0.0000000    -0.0000209     0.0000000
 l=   3
     0.0000000     0.0000000     0.0000000     0.0000000     0.0000000     0.0000000     0.0000000
     0.0000000     0.0000000     0.0000000     0.0000000     0.0000000     0.0000000     0.0000000
     0.0000000     0.0000000     0.0000000     0.0000000     0.0000000     0.0000000     0.0000000
     0.0000000     0.0000000     0.0000000     0.0000000     0.0000000     0.0000000     0.0000000
     0.0000000     0.0000000     0.0000000     0.0000000     0.0000000     0.0000000     0.0000000
     0.0000000     0.0000000     0.0000000     0.0000000     0.0000000     0.0000000     0.0000000
     0.0000000     0.0000000     0.0000000     0.0000000     0.0000000     0.0000000     0.0000000

 Ion:    8  E_soc:     -0.1269919
 l=   1
     0.0000000    -0.0213249    -0.0204849
    -0.0213249     0.0000000    -0.0213249
    -0.0204849    -0.0213249     0.0000000
 l=   2
     0.0000000    -0.0000209     0.0000000    -0.0000209    -0.0001307
    -0.0000209     0.0000000    -0.0000744     0.0000018    -0.0000209
     0.0000000    -0.0000744     0.0000000    -0.0000744     0.0000000
    -0.0000209     0.0000018    -0.0000744     0.0000000    -0.0000209
    -0.0001307    -0.0000209     0.0000000    -0.0000209     0.0000000
 l=   3
     0.0000000     0.0000000     0.0000000     0.0000000     0.0000000     0.0000000     0.0000000
     0.0000000     0.0000000     0.0000000     0.0000000     0.0000000     0.0000000     0.0000000
     0.0000000     0.0000000     0.0000000     0.0000000     0.0000000     0.0000000     0.0000000
     0.0000000     0.0000000     0.0000000     0.0000000     0.0000000     0.0000000     0.0000000
     0.0000000     0.0000000     0.0000000     0.0000000     0.0000000     0.0000000     0.0000000
     0.0000000     0.0000000     0.0000000     0.0000000     0.0000000     0.0000000     0.0000000
     0.0000000     0.0000000     0.0000000     0.0000000     0.0000000     0.0000000     0.0000000

 Ion:    9  E_soc:     -0.1269919
 l=   1
     0.0000000    -0.0213249    -0.0204849
    -0.0213249     0.0000000    -0.0213249
    -0.0204849    -0.0213249     0.0000000
 l=   2
     0.0000000    -0.0000209     0.0000000    -0.0000209    -0.0001307
    -0.0000209     0.0000000    -0.0000744     0.0000018    -0.0000209
     0.0000000    -0.0000744     0.0000000    -0.0000744     0.0000000
    -0.0000209     0.0000018    -0.0000744     0.0000000    -0.0000209
    -0.0001307    -0.0000209     0.0000000    -0.0000209     0.0000000
 l=   3
     0.0000000     0.0000000     0.0000000     0.0000000     0.0000000     0.0000000     0.0000000
     0.0000000     0.0000000     0.0000000     0.0000000     0.0000000     0.0000000     0.0000000
     0.0000000     0.0000000     0.0000000     0.0000000     0.0000000     0.0000000     0.0000000
     0.0000000     0.0000000     0.0000000     0.0000000     0.0000000     0.0000000     0.0000000
     0.0000000     0.0000000     0.0000000     0.0000000     0.0000000     0.0000000     0.0000000
     0.0000000     0.0000000     0.0000000     0.0000000     0.0000000     0.0000000     0.0000000
     0.0000000     0.0000000     0.0000000     0.0000000     0.0000000     0.0000000     0.0000000

 total amount of memory used by VASP MPI-rank0  1347326. kBytes
=======================================================================

   base      :      30000. kBytes
   nonl-proj :     810888. kBytes
   fftplans  :       2460. kBytes
   grid      :       9584. kBytes
   one-center:        186. kBytes
   wavefun   :     494208. kBytes
 
  
  
 General timing and accounting informations for this job:
 ========================================================
  
                  Total CPU time used (sec):     6792.554
                            User time (sec):     6776.388
                          System time (sec):       16.166
                         Elapsed time (sec):     6905.204
  
                   Maximum memory used (kb):     1783448.
                   Average memory used (kb):           0.
  
                          Minor page faults:       527084
                          Major page faults:            0
                 Voluntary context switches:       157433
