
     Program PWSCF v.6.7MaX starts on 18May2022 at 15:54: 6 

     This program is part of the open-source Quantum ESPRESSO suite
     for quantum simulation of materials; please cite
         "P. Giannozzi et al., J. Phys.:Condens. Matter 21 395502 (2009);
         "P. Giannozzi et al., J. Phys.:Condens. Matter 29 465901 (2017);
          URL http://www.quantum-espresso.org", 
     in publications or presentations arising from this work. More details at
     http://www.quantum-espresso.org/quote

     Parallel version (MPI), running on    48 processors

     MPI processes distributed on     1 nodes
     R & G space division:  proc/nbgrp/npool/nimage =      48
     Waiting for input...
     Reading input from standard input

     Current dimensions of program PWSCF are:
     Max number of different atomic species (ntypx) = 10
     Max number of k-points (npk) =  40000
     Max angular momentum in pseudopotentials (lmaxx) =  3
     file O.pbe-nl-kjpaw_psl.1.0.0.UPF: wavefunction(s)  2S 2P renormalized
     file Cl.pbe-nl-kjpaw_psl.1.0.0.UPF: wavefunction(s)  3S renormalized
     file Nb.pbe-spn-kjpaw_psl.1.0.0.UPF: wavefunction(s)  4S 4P 4D renormalized

     Subspace diagonalization in iterative solution of the eigenvalue problem:
     a serial algorithm will be used

     Message from routine setup:
     using ibrav=0 with symmetry is DISCOURAGED, use correct ibrav instead
 
     Parallelization info
     --------------------
     sticks:   dense  smooth     PW     G-vecs:    dense   smooth      PW
     Min         188      75     24                 6088     1541     280
     Max         189      76     25                 6091     1544     282
     Sum        9049    3617   1155               292287    74033   13473
 


     bravais-lattice index     =            0
     lattice parameter (alat)  =      12.6717  a.u.
     unit-cell volume          =     547.9313 (a.u.)^3
     number of atoms/cell      =            4
     number of atomic types    =            3
     number of electrons       =        33.00
     number of Kohn-Sham states=           21
     kinetic-energy cutoff     =     100.0000  Ry
     charge density cutoff     =    1000.0000  Ry
     scf convergence threshold =      1.0E-10
     mixing beta               =       0.7000
     number of iterations used =            8  plain     mixing
     Exchange-correlation= SLA  PW   PBX  PBC
                           (   1   4   3   4   0   0   0)

     celldm(1)=  12.671676  celldm(2)=   0.000000  celldm(3)=   0.000000
     celldm(4)=   0.000000  celldm(5)=   0.000000  celldm(6)=   0.000000

     crystal axes: (cart. coord. in units of alat)
               a(1) = (  -0.250426   0.291161   0.923316 )  
               a(2) = (   0.250426  -0.291161   0.923316 )  
               a(3) = (   0.250426   0.291161  -0.923316 )  

     reciprocal axes: (cart. coord. in units 2 pi/alat)
               b(1) = (  0.000000  1.717261  0.541527 )  
               b(2) = (  1.996594  0.000000  0.541527 )  
               b(3) = (  1.996594  1.717261  0.000000 )  


     PseudoPot. # 1 for O  read from file:
     /zfs_data/gutierre/Scratch/Cl2NbO/convergence/cutoff/8x8x8/100/pseudo/O.pbe-nl-kjpaw_psl.1.0.0.UPF
     MD5 check sum: df3ddea38124b4e5de5e1084591730e4
     Pseudo is Projector augmented-wave + core cor, Zval =  6.0
     Generated using 'atomic' code by A. Dal Corso  v.6.7MaX
     Shape of augmentation charge: PSQ
     Using radial grid of 1095 points,  4 beta functions with: 
                l(1) =   0
                l(2) =   0
                l(3) =   1
                l(4) =   1
     Q(r) pseudized with 0 coefficients 


     PseudoPot. # 2 for Cl read from file:
     /zfs_data/gutierre/Scratch/Cl2NbO/convergence/cutoff/8x8x8/100/pseudo/Cl.pbe-nl-kjpaw_psl.1.0.0.UPF
     MD5 check sum: 8cf6bde52c08f6236e0f72a8870677af
     Pseudo is Projector augmented-wave + core cor, Zval =  7.0
     Generated using 'atomic' code by A. Dal Corso  v.6.7MaX
     Shape of augmentation charge: PSQ
     Using radial grid of 1157 points,  4 beta functions with: 
                l(1) =   0
                l(2) =   0
                l(3) =   1
                l(4) =   1
     Q(r) pseudized with 0 coefficients 


     PseudoPot. # 3 for Nb read from file:
     /zfs_data/gutierre/Scratch/Cl2NbO/convergence/cutoff/8x8x8/100/pseudo/Nb.pbe-spn-kjpaw_psl.1.0.0.UPF
     MD5 check sum: 1ec1a3aa7bf3cbf7f7e0d720422bce7a
     Pseudo is Projector augmented-wave + core cor, Zval = 13.0
     Generated using 'atomic' code by A. Dal Corso  v.6.7MaX
     Shape of augmentation charge: PSQ
     Using radial grid of 1227 points,  6 beta functions with: 
                l(1) =   0
                l(2) =   0
                l(3) =   1
                l(4) =   1
                l(5) =   2
                l(6) =   2
     Q(r) pseudized with 0 coefficients 


     atomic species   valence    mass     pseudopotential
        O              6.00    15.99940     O ( 1.00)
        Cl             7.00    35.45150     Cl( 1.00)
        Nb            13.00    92.90637     Nb( 1.00)

      8 Sym. Ops., with inversion, found


                                    s                        frac. trans.

      isym =  1     identity                                     

 cryst.   s( 1) = (     1          0          0      )
                  (     0          1          0      )
                  (     0          0          1      )

 cart.    s( 1) = (  1.0000000  0.0000000  0.0000000 )
                  (  0.0000000  1.0000000  0.0000000 )
                  (  0.0000000  0.0000000  1.0000000 )


      isym =  2     180 deg rotation - cart. axis [0,0,1]        

 cryst.   s( 2) = (     0          1          0      )
                  (     1          0          0      )
                  (    -1         -1         -1      )

 cart.    s( 2) = ( -1.0000000  0.0000000  0.0000000 )
                  (  0.0000000 -1.0000000  0.0000000 )
                  (  0.0000000  0.0000000  1.0000000 )


      isym =  3     180 deg rotation - cart. axis [0,1,0]        

 cryst.   s( 3) = (     0          0          1      )
                  (    -1         -1         -1      )
                  (     1          0          0      )

 cart.    s( 3) = ( -1.0000000  0.0000000  0.0000000 )
                  (  0.0000000  1.0000000  0.0000000 )
                  (  0.0000000  0.0000000 -1.0000000 )


      isym =  4     180 deg rotation - cart. axis [1,0,0]        

 cryst.   s( 4) = (    -1         -1         -1      )
                  (     0          0          1      )
                  (     0          1          0      )

 cart.    s( 4) = (  1.0000000  0.0000000  0.0000000 )
                  (  0.0000000 -1.0000000  0.0000000 )
                  (  0.0000000  0.0000000 -1.0000000 )


      isym =  5     inversion                                    

 cryst.   s( 5) = (    -1          0          0      )
                  (     0         -1          0      )
                  (     0          0         -1      )

 cart.    s( 5) = ( -1.0000000  0.0000000  0.0000000 )
                  (  0.0000000 -1.0000000  0.0000000 )
                  (  0.0000000  0.0000000 -1.0000000 )


      isym =  6     inv. 180 deg rotation - cart. axis [0,0,1]   

 cryst.   s( 6) = (     0         -1          0      )
                  (    -1          0          0      )
                  (     1          1          1      )

 cart.    s( 6) = (  1.0000000  0.0000000  0.0000000 )
                  (  0.0000000  1.0000000  0.0000000 )
                  (  0.0000000  0.0000000 -1.0000000 )


      isym =  7     inv. 180 deg rotation - cart. axis [0,1,0]   

 cryst.   s( 7) = (     0          0         -1      )
                  (     1          1          1      )
                  (    -1          0          0      )

 cart.    s( 7) = (  1.0000000  0.0000000  0.0000000 )
                  (  0.0000000 -1.0000000  0.0000000 )
                  (  0.0000000  0.0000000  1.0000000 )


      isym =  8     inv. 180 deg rotation - cart. axis [1,0,0]   

 cryst.   s( 8) = (     1          1          1      )
                  (     0          0         -1      )
                  (     0         -1          0      )

 cart.    s( 8) = ( -1.0000000  0.0000000  0.0000000 )
                  (  0.0000000  1.0000000  0.0000000 )
                  (  0.0000000  0.0000000  1.0000000 )


   Cartesian axes

     site n.     atom                  positions (alat units)
         1           O   tau(   1) = (   0.0000000   0.2911613   0.0000000  )
         2           Cl  tau(   2) = (  -0.0000000   0.2911613   0.6365338  )
         3           Cl  tau(   3) = (   0.2504264  -0.0000000   0.2867819  )
         4           Nb  tau(   4) = (   0.0000000   0.0000000   0.0000000  )

   Crystallographic axes

     site n.     atom                  positions (cryst. coord.)
         1           O   tau(   1) = (  0.5000000  0.0000000  0.5000000  )
         2           Cl  tau(   2) = (  0.8447000  0.3447000  0.5000000  )
         3           Cl  tau(   3) = (  0.1553000  0.6553000  0.5000000  )
         4           Nb  tau(   4) = (  0.0000000  0.0000000  0.0000000  )

     number of k points=    95  Methfessel-Paxton smearing, width (Ry)=  0.0120
                       cart. coord. in units 2pi/alat
        k(    1) = (   0.0000000   0.0000000   0.0000000), wk =   0.0039062
        k(    2) = (   0.2495743   0.2146577   0.0000000), wk =   0.0156250
        k(    3) = (   0.4991486   0.4293153   0.0000000), wk =   0.0156250
        k(    4) = (   0.7487229   0.6439730   0.0000000), wk =   0.0156250
        k(    5) = (  -0.9982971  -0.8586307   0.0000000), wk =   0.0078125
        k(    6) = (   0.2495743   0.0000000   0.0676908), wk =   0.0156250
        k(    7) = (   0.4991486   0.2146577   0.0676908), wk =   0.0312500
        k(    8) = (   0.7487229   0.4293153   0.0676908), wk =   0.0312500
        k(    9) = (   0.9982971   0.6439730   0.0676908), wk =   0.0312500
        k(   10) = (  -0.7487229  -0.8586307   0.0676908), wk =   0.0312500
        k(   11) = (  -0.4991486  -0.6439730   0.0676908), wk =   0.0312500
        k(   12) = (  -0.2495743  -0.4293153   0.0676908), wk =   0.0312500
        k(   13) = (   0.0000000  -0.2146577   0.0676908), wk =   0.0156250
        k(   14) = (   0.4991486   0.0000000   0.1353817), wk =   0.0156250
        k(   15) = (   0.7487229   0.2146577   0.1353817), wk =   0.0312500
        k(   16) = (   0.9982971   0.4293153   0.1353817), wk =   0.0312500
        k(   17) = (   1.2478714   0.6439730   0.1353817), wk =   0.0312500
        k(   18) = (  -0.4991486  -0.8586307   0.1353817), wk =   0.0312500
        k(   19) = (  -0.2495743  -0.6439730   0.1353817), wk =   0.0312500
        k(   20) = (   0.0000000  -0.4293153   0.1353817), wk =   0.0156250
        k(   21) = (   0.2495743  -0.2146577   0.1353817), wk =   0.0312500
        k(   22) = (   0.7487229   0.0000000   0.2030725), wk =   0.0156250
        k(   23) = (   0.9982971   0.2146577   0.2030725), wk =   0.0312500
        k(   24) = (   1.2478714   0.4293153   0.2030725), wk =   0.0312500
        k(   25) = (   1.4974457   0.6439730   0.2030725), wk =   0.0312500
        k(   26) = (  -0.2495743  -0.8586307   0.2030725), wk =   0.0312500
        k(   27) = (   0.0000000  -0.6439730   0.2030725), wk =   0.0156250
        k(   28) = (   0.2495743  -0.4293153   0.2030725), wk =   0.0312500
        k(   29) = (   0.4991486  -0.2146577   0.2030725), wk =   0.0312500
        k(   30) = (  -0.9982971   0.0000000  -0.2707633), wk =   0.0078125
        k(   31) = (  -0.7487229   0.2146577  -0.2707633), wk =   0.0312500
        k(   32) = (  -0.4991486   0.4293153  -0.2707633), wk =   0.0312500
        k(   33) = (  -0.2495743   0.6439730  -0.2707633), wk =   0.0312500
        k(   34) = (  -1.9965943  -0.8586307  -0.2707633), wk =   0.0078125
        k(   35) = (   0.4991486   0.4293153   0.1353817), wk =   0.0312500
        k(   36) = (   0.7487229   0.6439730   0.1353817), wk =   0.0312500
        k(   37) = (   0.9982971   0.8586307   0.1353817), wk =   0.0156250
        k(   38) = (   0.0000000   0.0000000   0.1353817), wk =   0.0078125
        k(   39) = (   0.7487229   0.4293153   0.2030725), wk =   0.0312500
        k(   40) = (   0.9982971   0.6439730   0.2030725), wk =   0.0312500
        k(   41) = (   1.2478714   0.8586307   0.2030725), wk =   0.0312500
        k(   42) = (  -0.4991486  -0.6439730   0.2030725), wk =   0.0312500
        k(   43) = (   0.0000000  -0.2146577   0.2030725), wk =   0.0156250
        k(   44) = (   0.2495743   0.0000000   0.2030725), wk =   0.0156250
        k(   45) = (   0.9982971   0.4293153   0.2707633), wk =   0.0156250
        k(   46) = (   1.2478714   0.6439730   0.2707633), wk =   0.0312500
        k(   47) = (   1.4974457   0.8586307   0.2707633), wk =   0.0156250
        k(   48) = (   0.0000000  -0.4293153   0.2707633), wk =   0.0156250
        k(   49) = (   0.2495743  -0.2146577   0.2707633), wk =   0.0312500
        k(   50) = (   0.4991486   0.0000000   0.2707633), wk =   0.0156250
        k(   51) = (  -1.9965943  -0.6439730  -0.2030725), wk =   0.0156250
        k(   52) = (  -1.7470200  -0.4293153  -0.2030725), wk =   0.0312500
        k(   53) = (  -1.4974457  -0.2146577  -0.2030725), wk =   0.0312500
        k(   54) = (  -1.2478714   0.0000000  -0.2030725), wk =   0.0156250
        k(   55) = (   0.0000000   0.8586307  -0.1353817), wk =   0.0156250
        k(   56) = (  -1.7470200  -0.6439730  -0.1353817), wk =   0.0312500
        k(   57) = (  -1.4974457  -0.4293153  -0.1353817), wk =   0.0312500
        k(   58) = (  -1.2478714  -0.2146577  -0.1353817), wk =   0.0312500
        k(   59) = (  -0.9982971   0.0000000  -0.1353817), wk =   0.0156250
        k(   60) = (   0.0000000   0.6439730  -0.0676908), wk =   0.0156250
        k(   61) = (   0.2495743   0.8586307  -0.0676908), wk =   0.0312500
        k(   62) = (  -1.4974457  -0.6439730  -0.0676908), wk =   0.0312500
        k(   63) = (  -1.2478714  -0.4293153  -0.0676908), wk =   0.0312500
        k(   64) = (  -0.9982971  -0.2146577  -0.0676908), wk =   0.0312500
        k(   65) = (  -0.7487229   0.0000000  -0.0676908), wk =   0.0156250
        k(   66) = (   0.0000000   0.4293153   0.0000000), wk =   0.0078125
        k(   67) = (   0.2495743   0.6439730   0.0000000), wk =   0.0156250
        k(   68) = (   0.4991486   0.8586307   0.0000000), wk =   0.0156250
        k(   69) = (  -1.2478714  -0.6439730   0.0000000), wk =   0.0156250
        k(   70) = (  -0.9982971  -0.4293153   0.0000000), wk =   0.0156250
        k(   71) = (  -0.7487229  -0.2146577   0.0000000), wk =   0.0156250
        k(   72) = (  -0.4991486   0.0000000   0.0000000), wk =   0.0078125
        k(   73) = (   0.9982971   0.8586307   0.2707633), wk =   0.0078125
        k(   74) = (   0.0000000   0.0000000   0.2707633), wk =   0.0078125
        k(   75) = (   0.0000000  -0.2146577   0.3384542), wk =   0.0156250
        k(   76) = (   0.2495743   0.0000000   0.3384542), wk =   0.0156250
        k(   77) = (  -1.9965943  -0.4293153  -0.1353817), wk =   0.0156250
        k(   78) = (  -1.7470200  -0.2146577  -0.1353817), wk =   0.0312500
        k(   79) = (  -1.4974457   0.0000000  -0.1353817), wk =   0.0156250
        k(   80) = (   0.0000000   1.0732883  -0.0676908), wk =   0.0156250
        k(   81) = (  -1.7470200  -0.4293153  -0.0676908), wk =   0.0312500
        k(   82) = (  -1.4974457  -0.2146577  -0.0676908), wk =   0.0312500
        k(   83) = (  -1.2478714   0.0000000  -0.0676908), wk =   0.0156250
        k(   84) = (   0.0000000   0.8586307   0.0000000), wk =   0.0078125
        k(   85) = (   0.2495743   1.0732883   0.0000000), wk =   0.0156250
        k(   86) = (  -1.4974457  -0.4293153   0.0000000), wk =   0.0156250
        k(   87) = (  -1.2478714  -0.2146577   0.0000000), wk =   0.0156250
        k(   88) = (  -0.9982971   0.0000000   0.0000000), wk =   0.0078125
        k(   89) = (   0.0000000   0.0000000   0.4061450), wk =   0.0078125
        k(   90) = (  -1.9965943  -0.2146577  -0.0676908), wk =   0.0156250
        k(   91) = (  -1.7470200   0.0000000  -0.0676908), wk =   0.0156250
        k(   92) = (   0.0000000   1.2879460   0.0000000), wk =   0.0078125
        k(   93) = (  -1.7470200  -0.2146577   0.0000000), wk =   0.0156250
        k(   94) = (  -1.4974457   0.0000000   0.0000000), wk =   0.0078125
        k(   95) = (  -1.9965943  -1.7172613  -0.5415266), wk =   0.0039062

                       cryst. coord.
        k(    1) = (   0.0000000   0.0000000   0.0000000), wk =   0.0039062
        k(    2) = (   0.0000000   0.0000000   0.1250000), wk =   0.0156250
        k(    3) = (   0.0000000   0.0000000   0.2500000), wk =   0.0156250
        k(    4) = (  -0.0000000   0.0000000   0.3750000), wk =   0.0156250
        k(    5) = (   0.0000000   0.0000000  -0.5000000), wk =   0.0078125
        k(    6) = (   0.0000000   0.1250000   0.0000000), wk =   0.0156250
        k(    7) = (   0.0000000   0.1250000   0.1250000), wk =   0.0312500
        k(    8) = (   0.0000000   0.1250000   0.2500000), wk =   0.0312500
        k(    9) = (  -0.0000000   0.1250000   0.3750000), wk =   0.0312500
        k(   10) = (   0.0000000   0.1250000  -0.5000000), wk =   0.0312500
        k(   11) = (   0.0000000   0.1250000  -0.3750000), wk =   0.0312500
        k(   12) = (   0.0000000   0.1250000  -0.2500000), wk =   0.0312500
        k(   13) = (   0.0000000   0.1250000  -0.1250000), wk =   0.0156250
        k(   14) = (   0.0000000   0.2500000   0.0000000), wk =   0.0156250
        k(   15) = (   0.0000000   0.2500000   0.1250000), wk =   0.0312500
        k(   16) = (   0.0000000   0.2500000   0.2500000), wk =   0.0312500
        k(   17) = (  -0.0000000   0.2500000   0.3750000), wk =   0.0312500
        k(   18) = (   0.0000000   0.2500000  -0.5000000), wk =   0.0312500
        k(   19) = (   0.0000000   0.2500000  -0.3750000), wk =   0.0312500
        k(   20) = (   0.0000000   0.2500000  -0.2500000), wk =   0.0156250
        k(   21) = (   0.0000000   0.2500000  -0.1250000), wk =   0.0312500
        k(   22) = (   0.0000000   0.3750000   0.0000000), wk =   0.0156250
        k(   23) = (   0.0000000   0.3750000   0.1250000), wk =   0.0312500
        k(   24) = (  -0.0000000   0.3750000   0.2500000), wk =   0.0312500
        k(   25) = (  -0.0000000   0.3750000   0.3750000), wk =   0.0312500
        k(   26) = (   0.0000000   0.3750000  -0.5000000), wk =   0.0312500
        k(   27) = (   0.0000000   0.3750000  -0.3750000), wk =   0.0156250
        k(   28) = (   0.0000000   0.3750000  -0.2500000), wk =   0.0312500
        k(   29) = (   0.0000000   0.3750000  -0.1250000), wk =   0.0312500
        k(   30) = (   0.0000000  -0.5000000   0.0000000), wk =   0.0078125
        k(   31) = (   0.0000000  -0.5000000   0.1250000), wk =   0.0312500
        k(   32) = (   0.0000000  -0.5000000   0.2500000), wk =   0.0312500
        k(   33) = (   0.0000000  -0.5000000   0.3750000), wk =   0.0312500
        k(   34) = (   0.0000000  -0.5000000  -0.5000000), wk =   0.0078125
        k(   35) = (   0.1250000   0.1250000   0.1250000), wk =   0.0312500
        k(   36) = (   0.1250000   0.1250000   0.2500000), wk =   0.0312500
        k(   37) = (   0.1250000   0.1250000   0.3750000), wk =   0.0156250
        k(   38) = (   0.1250000   0.1250000  -0.1250000), wk =   0.0078125
        k(   39) = (   0.1250000   0.2500000   0.1250000), wk =   0.0312500
        k(   40) = (   0.1250000   0.2500000   0.2500000), wk =   0.0312500
        k(   41) = (   0.1250000   0.2500000   0.3750000), wk =   0.0312500
        k(   42) = (   0.1250000   0.2500000  -0.5000000), wk =   0.0312500
        k(   43) = (   0.1250000   0.2500000  -0.2500000), wk =   0.0156250
        k(   44) = (   0.1250000   0.2500000  -0.1250000), wk =   0.0156250
        k(   45) = (   0.1250000   0.3750000   0.1250000), wk =   0.0156250
        k(   46) = (   0.1250000   0.3750000   0.2500000), wk =   0.0312500
        k(   47) = (   0.1250000   0.3750000   0.3750000), wk =   0.0156250
        k(   48) = (   0.1250000   0.3750000  -0.3750000), wk =   0.0156250
        k(   49) = (   0.1250000   0.3750000  -0.2500000), wk =   0.0312500
        k(   50) = (   0.1250000   0.3750000  -0.1250000), wk =   0.0156250
        k(   51) = (   0.1250000  -0.5000000  -0.5000000), wk =   0.0156250
        k(   52) = (   0.1250000  -0.5000000  -0.3750000), wk =   0.0312500
        k(   53) = (   0.1250000  -0.5000000  -0.2500000), wk =   0.0312500
        k(   54) = (   0.1250000  -0.5000000  -0.1250000), wk =   0.0156250
        k(   55) = (   0.1250000  -0.3750000   0.3750000), wk =   0.0156250
        k(   56) = (   0.1250000  -0.3750000  -0.5000000), wk =   0.0312500
        k(   57) = (   0.1250000  -0.3750000  -0.3750000), wk =   0.0312500
        k(   58) = (   0.1250000  -0.3750000  -0.2500000), wk =   0.0312500
        k(   59) = (   0.1250000  -0.3750000  -0.1250000), wk =   0.0156250
        k(   60) = (   0.1250000  -0.2500000   0.2500000), wk =   0.0156250
        k(   61) = (   0.1250000  -0.2500000   0.3750000), wk =   0.0312500
        k(   62) = (   0.1250000  -0.2500000  -0.5000000), wk =   0.0312500
        k(   63) = (   0.1250000  -0.2500000  -0.3750000), wk =   0.0312500
        k(   64) = (   0.1250000  -0.2500000  -0.2500000), wk =   0.0312500
        k(   65) = (   0.1250000  -0.2500000  -0.1250000), wk =   0.0156250
        k(   66) = (   0.1250000  -0.1250000   0.1250000), wk =   0.0078125
        k(   67) = (   0.1250000  -0.1250000   0.2500000), wk =   0.0156250
        k(   68) = (   0.1250000  -0.1250000   0.3750000), wk =   0.0156250
        k(   69) = (   0.1250000  -0.1250000  -0.5000000), wk =   0.0156250
        k(   70) = (   0.1250000  -0.1250000  -0.3750000), wk =   0.0156250
        k(   71) = (   0.1250000  -0.1250000  -0.2500000), wk =   0.0156250
        k(   72) = (   0.1250000  -0.1250000  -0.1250000), wk =   0.0078125
        k(   73) = (   0.2500000   0.2500000   0.2500000), wk =   0.0078125
        k(   74) = (   0.2500000   0.2500000  -0.2500000), wk =   0.0078125
        k(   75) = (   0.2500000   0.3750000  -0.3750000), wk =   0.0156250
        k(   76) = (   0.2500000   0.3750000  -0.2500000), wk =   0.0156250
        k(   77) = (   0.2500000  -0.5000000  -0.5000000), wk =   0.0156250
        k(   78) = (   0.2500000  -0.5000000  -0.3750000), wk =   0.0312500
        k(   79) = (   0.2500000  -0.5000000  -0.2500000), wk =   0.0156250
        k(   80) = (   0.2500000  -0.3750000   0.3750000), wk =   0.0156250
        k(   81) = (   0.2500000  -0.3750000  -0.5000000), wk =   0.0312500
        k(   82) = (   0.2500000  -0.3750000  -0.3750000), wk =   0.0312500
        k(   83) = (   0.2500000  -0.3750000  -0.2500000), wk =   0.0156250
        k(   84) = (   0.2500000  -0.2500000   0.2500000), wk =   0.0078125
        k(   85) = (   0.2500000  -0.2500000   0.3750000), wk =   0.0156250
        k(   86) = (   0.2500000  -0.2500000  -0.5000000), wk =   0.0156250
        k(   87) = (   0.2500000  -0.2500000  -0.3750000), wk =   0.0156250
        k(   88) = (   0.2500000  -0.2500000  -0.2500000), wk =   0.0078125
        k(   89) = (   0.3750000   0.3750000  -0.3750000), wk =   0.0078125
        k(   90) = (   0.3750000  -0.5000000  -0.5000000), wk =   0.0156250
        k(   91) = (   0.3750000  -0.5000000  -0.3750000), wk =   0.0156250
        k(   92) = (   0.3750000  -0.3750000   0.3750000), wk =   0.0078125
        k(   93) = (   0.3750000  -0.3750000  -0.5000000), wk =   0.0156250
        k(   94) = (   0.3750000  -0.3750000  -0.3750000), wk =   0.0078125
        k(   95) = (  -0.5000000  -0.5000000  -0.5000000), wk =   0.0039062

     Dense  grid:   292287 G-vectors     FFT dimensions: ( 128, 128, 128)

     Smooth grid:    74033 G-vectors     FFT dimensions: (  81,  81,  81)

     Dynamical RAM for                 wfc:       0.06 MB

     Dynamical RAM for     wfc (w. buffer):       5.91 MB

     Dynamical RAM for           str. fact:       0.28 MB

     Dynamical RAM for           local pot:       0.00 MB

     Dynamical RAM for          nlocal pot:       0.12 MB

     Dynamical RAM for                qrad:       7.61 MB

     Dynamical RAM for          rho,v,vnew:       1.40 MB

     Dynamical RAM for               rhoin:       0.47 MB

     Dynamical RAM for            rho*nmix:       1.49 MB

     Dynamical RAM for           G-vectors:       0.36 MB

     Dynamical RAM for          h,s,v(r/c):       0.08 MB

     Dynamical RAM for          <psi|beta>:       0.01 MB

     Dynamical RAM for                 psi:       0.12 MB

     Dynamical RAM for                hpsi:       0.12 MB

     Dynamical RAM for                spsi:       0.12 MB

     Dynamical RAM for      wfcinit/wfcrot:       0.16 MB

     Dynamical RAM for           addusdens:      17.47 MB

     Dynamical RAM for          addusforce:      17.71 MB

     Dynamical RAM for         addusstress:      18.68 MB

     Estimated static dynamical RAM per process >      19.88 MB

     Estimated max dynamical RAM per process >      38.56 MB

     Estimated total dynamical RAM >       1.81 GB

     Initial potential from superposition of free atoms

     starting charge   32.99867, renormalised to   33.00000
     Starting wfcs are   25 randomized atomic wfcs
     Checking if some PAW data can be deallocated... 
       PAW data deallocated on   36 nodes for type:  1
       PAW data deallocated on   24 nodes for type:  2
       PAW data deallocated on   36 nodes for type:  3

     total cpu time spent up to now is        3.1 secs

     Self-consistent Calculation

     iteration #  1     ecut=   100.00 Ry     beta= 0.70
     Davidson diagonalization with overlap
     ethr =  1.00E-02,  avg # of iterations =  2.3

     total cpu time spent up to now is        7.5 secs

     total energy              =    -534.52362734 Ry
     estimated scf accuracy    <       0.76496633 Ry

     iteration #  2     ecut=   100.00 Ry     beta= 0.70
     Davidson diagonalization with overlap
     ethr =  2.32E-03,  avg # of iterations =  3.6

     total cpu time spent up to now is       12.6 secs

     total energy              =    -533.64407326 Ry
     estimated scf accuracy    <       8.31686193 Ry

     iteration #  3     ecut=   100.00 Ry     beta= 0.70
     Davidson diagonalization with overlap
     ethr =  2.32E-03,  avg # of iterations =  3.5

     total cpu time spent up to now is       17.4 secs

     total energy              =    -534.97327191 Ry
     estimated scf accuracy    <       0.12360046 Ry

     iteration #  4     ecut=   100.00 Ry     beta= 0.70
     Davidson diagonalization with overlap
     ethr =  3.75E-04,  avg # of iterations =  1.3

     total cpu time spent up to now is       21.3 secs

     total energy              =    -534.96744760 Ry
     estimated scf accuracy    <       0.05866907 Ry

     iteration #  5     ecut=   100.00 Ry     beta= 0.70
     Davidson diagonalization with overlap
     ethr =  1.78E-04,  avg # of iterations =  1.5

     total cpu time spent up to now is       25.3 secs

     total energy              =    -534.96325473 Ry
     estimated scf accuracy    <       0.02408991 Ry

     iteration #  6     ecut=   100.00 Ry     beta= 0.70
     Davidson diagonalization with overlap
     ethr =  7.30E-05,  avg # of iterations =  2.0

     total cpu time spent up to now is       29.3 secs

     total energy              =    -534.96599459 Ry
     estimated scf accuracy    <       0.00058979 Ry

     iteration #  7     ecut=   100.00 Ry     beta= 0.70
     Davidson diagonalization with overlap
     ethr =  1.79E-06,  avg # of iterations =  3.7

     total cpu time spent up to now is       34.6 secs

     total energy              =    -534.96618812 Ry
     estimated scf accuracy    <       0.00017041 Ry

     iteration #  8     ecut=   100.00 Ry     beta= 0.70
     Davidson diagonalization with overlap
     ethr =  5.16E-07,  avg # of iterations =  1.4

     total cpu time spent up to now is       38.5 secs

     total energy              =    -534.96618962 Ry
     estimated scf accuracy    <       0.00002799 Ry

     iteration #  9     ecut=   100.00 Ry     beta= 0.70
     Davidson diagonalization with overlap
     ethr =  8.48E-08,  avg # of iterations =  2.4

     total cpu time spent up to now is       42.8 secs

     total energy              =    -534.96619618 Ry
     estimated scf accuracy    <       0.00000053 Ry

     iteration # 10     ecut=   100.00 Ry     beta= 0.70
     Davidson diagonalization with overlap
     ethr =  1.61E-09,  avg # of iterations =  4.0

     total cpu time spent up to now is       48.3 secs

     total energy              =    -534.96619646 Ry
     estimated scf accuracy    <          8.8E-09 Ry

     iteration # 11     ecut=   100.00 Ry     beta= 0.70
     Davidson diagonalization with overlap
     ethr =  2.67E-11,  avg # of iterations =  4.4

     total cpu time spent up to now is       54.3 secs

     total energy              =    -534.96619646 Ry
     estimated scf accuracy    <       0.00000002 Ry

     iteration # 12     ecut=   100.00 Ry     beta= 0.70
     Davidson diagonalization with overlap
     ethr =  2.67E-11,  avg # of iterations =  2.2

     total cpu time spent up to now is       58.7 secs

     End of self-consistent calculation

          k = 0.0000 0.0000 0.0000 (  9217 PWs)   bands (ev):

   -49.8398 -26.0577 -25.7924 -25.7150 -12.3814  -9.5181  -8.8287   0.6166
     2.4659   2.7367   2.8734   3.0039   3.4590   3.9425   4.2016   4.2830
     5.5050   7.2153   7.3551   8.6465   9.3879

     occupation numbers 
     1.0000   1.0000   1.0000   1.0000   1.0000   1.0000   1.0000   1.0000
     1.0000   1.0000   1.0000   1.0000   1.0000   1.0000   1.0000   1.0000
     1.0000  -0.0015  -0.0000  -0.0000  -0.0000

          k = 0.2496 0.2147 0.0000 (  9239 PWs)   bands (ev):

   -49.8372 -26.0828 -25.7858 -25.7461 -12.1862  -9.4095  -8.8364   0.8282
     2.1217   2.2558   2.4433   2.9940   3.2922   3.5033   3.8832   4.0351
     5.9389   7.5249   7.5999   8.7507  10.0910

     occupation numbers 
     1.0000   1.0000   1.0000   1.0000   1.0000   1.0000   1.0000   1.0000
     1.0000   1.0000   1.0000   1.0000   1.0000   1.0000   1.0000   1.0000
     1.0000  -0.0000  -0.0000  -0.0000  -0.0000

          k = 0.4991 0.4293 0.0000 (  9239 PWs)   bands (ev):

   -49.8308 -26.1415 -25.8200 -25.7699 -11.6873  -9.1321  -8.8585   1.1099
     1.4012   1.7327   1.8971   2.0068   2.1866   2.9230   3.8455   4.0133
     6.8099   8.1633   8.2737   9.1598  11.1500

     occupation numbers 
     1.0000   1.0000   1.0000   1.0000   1.0000   1.0000   1.0000   1.0000
     1.0000   1.0000   1.0000   1.0000   1.0000   1.0000   1.0000   1.0000
     0.5327  -0.0000  -0.0000  -0.0000  -0.0000

          k = 0.7487 0.6440 0.0000 (  9270 PWs)   bands (ev):

   -49.8245 -26.1979 -25.8925 -25.7540 -11.1377  -8.8857  -8.8275  -0.0719
     0.9778   1.2642   1.6647   1.7788   2.1863   2.3103   3.5230   3.9755
     7.8673   8.8515   9.0590   9.5763  11.3812

     occupation numbers 
     1.0000   1.0000   1.0000   1.0000   1.0000   1.0000   1.0000   1.0000
     1.0000   1.0000   1.0000   1.0000   1.0000   1.0000   1.0000   1.0000
    -0.0000  -0.0000  -0.0000  -0.0000  -0.0000

          k =-0.9983-0.8586 0.0000 (  9280 PWs)   bands (ev):

   -49.8219 -26.2207 -25.9221 -25.7474 -10.8904  -8.8984  -8.6909  -0.5607
     0.6051   0.9557   1.7499   1.8300   1.9830   2.5726   3.2692   3.8798
     8.4668   9.1823   9.3743   9.7676  11.4056

     occupation numbers 
     1.0000   1.0000   1.0000   1.0000   1.0000   1.0000   1.0000   1.0000
     1.0000   1.0000   1.0000   1.0000   1.0000   1.0000   1.0000   1.0000
    -0.0000  -0.0000  -0.0000  -0.0000  -0.0000

          k = 0.2496 0.0000 0.0677 (  9243 PWs)   bands (ev):

   -49.8377 -26.0552 -25.7868 -25.7470 -12.3641  -9.4288  -8.8417   0.8062
     2.2496   2.6627   2.9508   3.0591   3.1022   3.8005   3.9330   4.1205
     5.9233   7.1248   7.2950   8.7307   9.7665

     occupation numbers 
     1.0000   1.0000   1.0000   1.0000   1.0000   1.0000   1.0000   1.0000
     1.0000   1.0000   1.0000   1.0000   1.0000   1.0000   1.0000   1.0000
     1.0000  -0.0112  -0.0001  -0.0000  -0.0000

          k = 0.4991 0.2147 0.0677 (  9247 PWs)   bands (ev):

   -49.8320 -26.0765 -25.8224 -25.7723 -12.1452  -9.1891  -8.8602   1.2353
     1.9030   2.0824   2.2402   2.4849   2.8915   3.0649   3.8695   4.0701
     6.7587   7.3212   7.4391   9.1625  10.5516

     occupation numbers 
     1.0000   1.0000   1.0000   1.0000   1.0000   1.0000   1.0000   1.0000
     1.0000   1.0000   1.0000   1.0000   1.0000   1.0000   1.0000   1.0000
     0.7789  -0.0001  -0.0000  -0.0000  -0.0000

          k = 0.7487 0.4293 0.0677 (  9261 PWs)   bands (ev):

   -49.8257 -26.1348 -25.8951 -25.7563 -11.6479  -8.9106  -8.8639   1.0914
     1.2396   1.4421   1.6810   1.9121   2.2616   2.5425   3.7129   4.1140
     7.7186   8.0644   8.1708   9.6536  11.1258

     occupation numbers 
     1.0000   1.0000   1.0000   1.0000   1.0000   1.0000   1.0000   1.0000
     1.0000   1.0000   1.0000   1.0000   1.0000   1.0000   1.0000   1.0000
    -0.0000  -0.0000  -0.0000  -0.0000  -0.0000

          k = 0.9983 0.6440 0.0677 (  9270 PWs)   bands (ev):

   -49.8224 -26.1950 -25.9232 -25.7484 -11.1222  -8.9104  -8.7042  -0.0591
     0.7501   0.9306   1.5587   1.9412   2.2114   2.6028   3.3440   3.9450
     8.4546   8.7786   9.0179   9.7520  11.2805

     occupation numbers 
     1.0000   1.0000   1.0000   1.0000   1.0000   1.0000   1.0000   1.0000
     1.0000   1.0000   1.0000   1.0000   1.0000   1.0000   1.0000   1.0000
    -0.0000  -0.0000  -0.0000  -0.0000  -0.0000

          k =-0.7487-0.8586 0.0677 (  9270 PWs)   bands (ev):

   -49.8240 -26.2237 -25.8914 -25.7531 -10.9051  -8.9043  -8.7817  -0.5714
     0.7912   1.2450   1.4372   1.8052   2.3301   2.4022   3.4322   3.8228
     7.9189   9.2334   9.4227   9.4871  11.3410

     occupation numbers 
     1.0000   1.0000   1.0000   1.0000   1.0000   1.0000   1.0000   1.0000
     1.0000   1.0000   1.0000   1.0000   1.0000   1.0000   1.0000   1.0000
    -0.0000  -0.0000  -0.0000  -0.0000  -0.0000

          k =-0.4991-0.6440 0.0677 (  9268 PWs)   bands (ev):

   -49.8297 -26.2051 -25.8176 -25.7676 -11.1745  -9.0562  -8.8769  -0.1011
     1.3239   1.4611   1.5709   1.8786   2.1359   2.9311   3.7149   3.8065
     6.8865   8.9652   9.0520   9.2206  11.4241

     occupation numbers 
     1.0000   1.0000   1.0000   1.0000   1.0000   1.0000   1.0000   1.0000
     1.0000   1.0000   1.0000   1.0000   1.0000   1.0000   1.0000   1.0000
     0.1707  -0.0000  -0.0000  -0.0000  -0.0000

          k =-0.2496-0.4293 0.0677 (  9243 PWs)   bands (ev):

   -49.8360 -26.1482 -25.7834 -25.7439 -11.7265  -9.3412  -8.8500   0.9165
     1.1323   1.4946   2.2525   2.5199   3.1832   3.4088   3.7280   3.9157
     6.0034   8.3723   8.4034   8.7858  10.6489

     occupation numbers 
     1.0000   1.0000   1.0000   1.0000   1.0000   1.0000   1.0000   1.0000
     1.0000   1.0000   1.0000   1.0000   1.0000   1.0000   1.0000   1.0000
     1.0000  -0.0000  -0.0000  -0.0000  -0.0000

          k = 0.0000-0.2147 0.0677 (  9248 PWs)   bands (ev):

   -49.8393 -26.0853 -25.7914 -25.7141 -12.2031  -9.4878  -8.8375   0.6691
     2.0624   2.4317   2.4884   3.2939   3.3570   3.7537   3.9563   4.1601
     5.5336   7.6403   7.6650   8.6759   9.7241

     occupation numbers 
     1.0000   1.0000   1.0000   1.0000   1.0000   1.0000   1.0000   1.0000
     1.0000   1.0000   1.0000   1.0000   1.0000   1.0000   1.0000   1.0000
     1.0000  -0.0000  -0.0000  -0.0000  -0.0000

          k = 0.4991 0.0000 0.1354 (  9242 PWs)   bands (ev):

   -49.8325 -26.0491 -25.8234 -25.7732 -12.3224  -9.2060  -8.8679   1.1833
     1.9250   2.0242   2.4799   3.0496   3.3263   3.4624   3.7849   3.9089
     6.7879   6.9376   7.0955   9.1039  10.1133

     occupation numbers 
     1.0000   1.0000   1.0000   1.0000   1.0000   1.0000   1.0000   1.0000
     1.0000   1.0000   1.0000   1.0000   1.0000   1.0000   1.0000   1.0000
     0.6448   0.0260  -0.0181  -0.0000  -0.0000

          k = 0.7487 0.2147 0.1354 (  9242 PWs)   bands (ev):

   -49.8269 -26.0702 -25.8976 -25.7587 -12.1042  -8.9710  -8.8628   1.0788
     1.4581   1.8246   2.0170   2.6174   2.7651   3.1396   3.8329   4.0161
     7.0923   7.2278   7.8518   9.6435  10.4506

     occupation numbers 
     1.0000   1.0000   1.0000   1.0000   1.0000   1.0000   1.0000   1.0000
     1.0000   1.0000   1.0000   1.0000   1.0000   1.0000   1.0000   1.0000
    -0.0189  -0.0011  -0.0000  -0.0000  -0.0000

          k = 0.9983 0.4293 0.1354 (  9273 PWs)   bands (ev):

   -49.8236 -26.1320 -25.9259 -25.7507 -11.6314  -8.9392  -8.7360   0.7675
     1.2165   1.2401   1.4285   1.9512   2.6337   2.8137   3.5536   4.0446
     7.8513   8.1195   8.4572   9.7355  10.8999

     occupation numbers 
     1.0000   1.0000   1.0000   1.0000   1.0000   1.0000   1.0000   1.0000
     1.0000   1.0000   1.0000   1.0000   1.0000   1.0000   1.0000   1.0000
    -0.0000  -0.0000  -0.0000  -0.0000  -0.0000

          k = 1.2479 0.6440 0.1354 (  9253 PWs)   bands (ev):

   -49.8245 -26.1979 -25.8925 -25.7540 -11.1374  -8.9416  -8.7675  -0.0722
     0.9217   1.1569   1.3356   1.9080   2.5119   2.5797   3.5035   3.8061
     7.9356   8.8353   9.0643   9.4134  11.1837

     occupation numbers 
     1.0000   1.0000   1.0000   1.0000   1.0000   1.0000   1.0000   1.0000
     1.0000   1.0000   1.0000   1.0000   1.0000   1.0000   1.0000   1.0000
    -0.0000  -0.0000  -0.0000  -0.0000  -0.0000

          k =-0.4991-0.8586 0.1354 (  9269 PWs)   bands (ev):

   -49.8292 -26.2310 -25.8166 -25.7666 -10.9402  -8.9905  -8.9199  -0.5972
     1.1758   1.2213   1.7232   1.8015   2.1812   2.9628   3.5790   3.7467
     6.9405   8.9599   9.4193   9.5175  11.4688

     occupation numbers 
     1.0000   1.0000   1.0000   1.0000   1.0000   1.0000   1.0000   1.0000
     1.0000   1.0000   1.0000   1.0000   1.0000   1.0000   1.0000   1.0000
     0.0206  -0.0000  -0.0000  -0.0000  -0.0000

          k =-0.2496-0.6440 0.1354 (  9234 PWs)   bands (ev):

   -49.8348 -26.2122 -25.7811 -25.7417 -11.2107  -9.2514  -8.8897  -0.1293
     0.9538   1.2479   2.0108   2.2591   2.9736   3.3195   3.5278   3.9363
     6.0720   8.7653   9.2204   9.2531  11.0502

     occupation numbers 
     1.0000   1.0000   1.0000   1.0000   1.0000   1.0000   1.0000   1.0000
     1.0000   1.0000   1.0000   1.0000   1.0000   1.0000   1.0000   1.0000
     1.0000  -0.0000  -0.0000  -0.0000  -0.0000

          k = 0.0000-0.4293 0.1354 (  9238 PWs)   bands (ev):

   -49.8381 -26.1510 -25.7890 -25.7120 -11.7425  -9.4081  -8.8663   0.7806
     1.1088   1.4387   2.5449   2.9038   3.0141   3.5511   3.9518   4.0105
     5.5888   8.4237   8.5347   8.7479  10.3243

     occupation numbers 
     1.0000   1.0000   1.0000   1.0000   1.0000   1.0000   1.0000   1.0000
     1.0000   1.0000   1.0000   1.0000   1.0000   1.0000   1.0000   1.0000
     1.0000  -0.0000  -0.0000  -0.0000  -0.0000

          k = 0.2496-0.2147 0.1354 (  9240 PWs)   bands (ev):

   -49.8372 -26.0828 -25.7858 -25.7461 -12.1859  -9.3904  -8.8595   0.8843
     2.1372   2.2506   2.4544   2.9577   3.2049   3.4973   3.8605   4.0662
     5.9624   7.5188   7.6176   8.7328  10.1562

     occupation numbers 
     1.0000   1.0000   1.0000   1.0000   1.0000   1.0000   1.0000   1.0000
     1.0000   1.0000   1.0000   1.0000   1.0000   1.0000   1.0000   1.0000
     1.0000  -0.0000  -0.0000  -0.0000  -0.0000

          k = 0.7487 0.0000 0.2031 (  9263 PWs)   bands (ev):

   -49.8274 -26.0431 -25.8987 -25.7596 -12.2810  -9.0090  -8.8475   1.0096
     1.3336   1.9957   2.0961   3.1695   3.4408   3.5787   3.7291   3.7606
     6.7808   6.7956   7.8394   9.5465   9.9791

     occupation numbers 
     1.0000   1.0000   1.0000   1.0000   1.0000   1.0000   1.0000   1.0000
     1.0000   1.0000   1.0000   1.0000   1.0000   1.0000   1.0000   1.0000
     0.6790   0.6062  -0.0000  -0.0000  -0.0000

          k = 0.9983 0.2147 0.2031 (  9260 PWs)   bands (ev):

   -49.8247 -26.0676 -25.9285 -25.7530 -12.0872  -8.9676  -8.7672   0.6971
     1.3338   1.7680   1.9292   2.6863   2.9043   3.4018   3.8041   3.9306
     7.0317   7.1201   8.4338   9.6746  10.3113

     occupation numbers 
     1.0000   1.0000   1.0000   1.0000   1.0000   1.0000   1.0000   1.0000
     1.0000   1.0000   1.0000   1.0000   1.0000   1.0000   1.0000   1.0000
    -0.0342  -0.0122  -0.0000  -0.0000  -0.0000

          k = 1.2479 0.4293 0.2031 (  9260 PWs)   bands (ev):

   -49.8257 -26.1348 -25.8951 -25.7564 -11.6476  -8.9838  -8.7850   1.0043
     1.1818   1.2991   1.3941   2.0969   2.6505   2.8086   3.6919   3.9530
     7.8587   7.9904   8.1753   9.4055  10.8611

     occupation numbers 
     1.0000   1.0000   1.0000   1.0000   1.0000   1.0000   1.0000   1.0000
     1.0000   1.0000   1.0000   1.0000   1.0000   1.0000   1.0000   1.0000
    -0.0000  -0.0000  -0.0000  -0.0000  -0.0000

          k = 1.4974 0.6440 0.2031 (  9262 PWs)   bands (ev):

   -49.8297 -26.2051 -25.8176 -25.7676 -11.1740  -9.0213  -8.9126  -0.1023
     1.2548   1.3212   1.6930   1.8479   2.2864   3.0106   3.5552   3.8699
     6.9450   8.8554   9.1186   9.1540  11.3586

     occupation numbers 
     1.0000   1.0000   1.0000   1.0000   1.0000   1.0000   1.0000   1.0000
     1.0000   1.0000   1.0000   1.0000   1.0000   1.0000   1.0000   1.0000
     0.0130  -0.0000  -0.0000  -0.0000  -0.0000

          k =-0.2496-0.8586 0.2031 (  9240 PWs)   bands (ev):

   -49.8343 -26.2383 -25.7801 -25.7408 -10.9745  -9.1870  -8.9370  -0.6228
     0.8389   1.4198   1.7748   2.1692   2.8873   3.2248   3.4799   3.9637
     6.1089   8.7800   9.5695   9.5998  11.2112

     occupation numbers 
     1.0000   1.0000   1.0000   1.0000   1.0000   1.0000   1.0000   1.0000
     1.0000   1.0000   1.0000   1.0000   1.0000   1.0000   1.0000   1.0000
     1.0000  -0.0000  -0.0000  -0.0000  -0.0000

          k = 0.0000-0.6440 0.2031 (  9239 PWs)   bands (ev):

   -49.8369 -26.2152 -25.7866 -25.7099 -11.2255  -9.3134  -8.9138  -0.1413
     0.7861   1.2386   2.4068   2.5596   2.6079   3.4587   3.9248   3.9850
     5.6426   8.8189   9.2228   9.3603  10.7876

     occupation numbers 
     1.0000   1.0000   1.0000   1.0000   1.0000   1.0000   1.0000   1.0000
     1.0000   1.0000   1.0000   1.0000   1.0000   1.0000   1.0000   1.0000
     1.0000  -0.0000  -0.0000  -0.0000  -0.0000

          k = 0.2496-0.4293 0.2031 (  9231 PWs)   bands (ev):

   -49.8360 -26.1482 -25.7835 -25.7439 -11.7260  -9.3068  -8.8904   0.9617
     1.1570   1.5898   2.1769   2.5416   2.9608   3.4647   3.5774   4.0744
     6.0329   8.3922   8.4014   8.7612  10.7492

     occupation numbers 
     1.0000   1.0000   1.0000   1.0000   1.0000   1.0000   1.0000   1.0000
     1.0000   1.0000   1.0000   1.0000   1.0000   1.0000   1.0000   1.0000
     1.0000  -0.0000  -0.0000  -0.0000  -0.0000

          k = 0.4991-0.2147 0.2031 (  9248 PWs)   bands (ev):

   -49.8320 -26.0765 -25.8224 -25.7723 -12.1449  -9.1750  -8.8748   1.2085
     1.8872   1.9442   2.3076   2.5177   2.9326   3.1627   3.8417   4.0820
     6.8140   7.2868   7.4536   9.0316  10.4945

     occupation numbers 
     1.0000   1.0000   1.0000   1.0000   1.0000   1.0000   1.0000   1.0000
     1.0000   1.0000   1.0000   1.0000   1.0000   1.0000   1.0000   1.0000
     0.5117  -0.0002  -0.0000  -0.0000  -0.0000

          k =-0.9983 0.0000-0.2708 (  9252 PWs)   bands (ev):

   -49.8252 -26.0405 -25.9296 -25.7540 -12.2639  -8.9792  -8.7799   0.6632
     1.3137   1.8903   2.0428   3.3078   3.4077   3.5005   3.7823   3.9221
     6.6039   6.7451   8.4213   9.5364  10.0278

     occupation numbers 
     1.0000   1.0000   1.0000   1.0000   1.0000   1.0000   1.0000   1.0000
     1.0000   1.0000   1.0000   1.0000   1.0000   1.0000   1.0000   1.0000
     1.0347   0.8327  -0.0000  -0.0000  -0.0000

          k =-0.7487 0.2147-0.2708 (  9257 PWs)   bands (ev):

   -49.8269 -26.0702 -25.8976 -25.7587 -12.1040  -9.0118  -8.8181   0.9973
     1.2696   1.8238   2.1575   2.6355   2.8942   3.2509   3.8076   4.0103
     7.0813   7.2217   7.8819   9.4624  10.3178

     occupation numbers 
     1.0000   1.0000   1.0000   1.0000   1.0000   1.0000   1.0000   1.0000
     1.0000   1.0000   1.0000   1.0000   1.0000   1.0000   1.0000   1.0000
    -0.0220  -0.0012  -0.0000  -0.0000  -0.0000

          k =-0.4991 0.4293-0.2708 (  9244 PWs)   bands (ev):

   -49.8308 -26.1415 -25.8200 -25.7699 -11.6868  -9.1053  -8.8861   1.0918
     1.3093   1.6903   1.8856   1.9355   2.4025   3.0821   3.6929   4.0580
     6.8933   8.1340   8.2974   8.9874  11.0545

     occupation numbers 
     1.0000   1.0000   1.0000   1.0000   1.0000   1.0000   1.0000   1.0000
     1.0000   1.0000   1.0000   1.0000   1.0000   1.0000   1.0000   1.0000
     0.1456  -0.0000  -0.0000  -0.0000  -0.0000

          k =-0.2496 0.6440-0.2708 (  9235 PWs)   bands (ev):

   -49.8348 -26.2122 -25.7811 -25.7417 -11.2103  -9.2148  -8.9307  -0.1305
     0.9465   1.4636   1.8440   2.2681   2.8830   3.2750   3.5005   4.0197
     6.0939   8.7707   9.2089   9.2557  11.1180

     occupation numbers 
     1.0000   1.0000   1.0000   1.0000   1.0000   1.0000   1.0000   1.0000
     1.0000   1.0000   1.0000   1.0000   1.0000   1.0000   1.0000   1.0000
     1.0000  -0.0000  -0.0000  -0.0000  -0.0000

          k =-1.9966-0.8586-0.2708 (  9224 PWs)   bands (ev):

   -49.8364 -26.2413 -25.7856 -25.7090 -10.9886  -9.2654  -8.9445  -0.6333
     0.6863   1.3313   2.1200   2.4336   2.6325   3.4173   3.8950   3.9817
     5.6650   8.8490   9.5733   9.6980  10.9580

     occupation numbers 
     1.0000   1.0000   1.0000   1.0000   1.0000   1.0000   1.0000   1.0000
     1.0000   1.0000   1.0000   1.0000   1.0000   1.0000   1.0000   1.0000
     1.0000  -0.0000  -0.0000  -0.0000  -0.0000

          k = 0.4991 0.4293 0.1354 (  9247 PWs)   bands (ev):

   -49.8308 -26.1415 -25.8200 -25.7699 -11.6871  -9.1248  -8.8660   1.1041
     1.3659   1.7504   1.8351   2.0657   2.1921   2.9845   3.7941   4.0336
     6.8335   8.1498   8.2840   9.1099  11.1263

     occupation numbers 
     1.0000   1.0000   1.0000   1.0000   1.0000   1.0000   1.0000   1.0000
     1.0000   1.0000   1.0000   1.0000   1.0000   1.0000   1.0000   1.0000
     0.4114  -0.0000  -0.0000  -0.0000  -0.0000

          k = 0.7487 0.6440 0.1354 (  9258 PWs)   bands (ev):

   -49.8245 -26.1979 -25.8925 -25.7540 -11.1376  -8.9009  -8.8116  -0.0719
     0.9708   1.2298   1.6443   1.7353   2.2832   2.3588   3.5171   3.9483
     7.8796   8.8394   9.0591   9.5574  11.3624

     occupation numbers 
     1.0000   1.0000   1.0000   1.0000   1.0000   1.0000   1.0000   1.0000
     1.0000   1.0000   1.0000   1.0000   1.0000   1.0000   1.0000   1.0000
    -0.0000  -0.0000  -0.0000  -0.0000  -0.0000

          k = 0.9983 0.8586 0.1354 (  9270 PWs)   bands (ev):

   -49.8219 -26.2207 -25.9221 -25.7474 -10.8904  -8.8984  -8.6909  -0.5607
     0.6194   0.9259   1.7732   1.8620   1.9488   2.5843   3.2254   3.9081
     8.4685   9.1840   9.3838   9.7389  11.3866

     occupation numbers 
     1.0000   1.0000   1.0000   1.0000   1.0000   1.0000   1.0000   1.0000
     1.0000   1.0000   1.0000   1.0000   1.0000   1.0000   1.0000   1.0000
    -0.0000  -0.0000  -0.0000  -0.0000  -0.0000

          k = 0.0000 0.0000 0.1354 (  9253 PWs)   bands (ev):

   -49.8398 -26.0577 -25.7924 -25.7150 -12.3810  -9.4953  -8.8578   0.6949
     2.4900   2.7057   2.8460   3.0593   3.4456   3.8230   4.1548   4.2476
     5.5227   7.2154   7.3852   8.6982   9.4801

     occupation numbers 
     1.0000   1.0000   1.0000   1.0000   1.0000   1.0000   1.0000   1.0000
     1.0000   1.0000   1.0000   1.0000   1.0000   1.0000   1.0000   1.0000
     1.0000  -0.0015  -0.0000  -0.0000  -0.0000

          k = 0.7487 0.4293 0.2031 (  9260 PWs)   bands (ev):

   -49.8257 -26.1348 -25.8951 -25.7563 -11.6478  -8.9525  -8.8197   1.0534
     1.2093   1.4130   1.4965   1.9877   2.4686   2.6471   3.7006   4.0551
     7.7720   8.0331   8.1722   9.5534  11.0194

     occupation numbers 
     1.0000   1.0000   1.0000   1.0000   1.0000   1.0000   1.0000   1.0000
     1.0000   1.0000   1.0000   1.0000   1.0000   1.0000   1.0000   1.0000
    -0.0000  -0.0000  -0.0000  -0.0000  -0.0000

          k = 0.9983 0.6440 0.2031 (  9262 PWs)   bands (ev):

   -49.8224 -26.1950 -25.9232 -25.7484 -11.1222  -8.9104  -8.7043  -0.0591
     0.7826   0.8782   1.6399   1.8532   2.2245   2.6418   3.2904   3.9748
     8.4630   8.7742   9.0246   9.7202  11.2711

     occupation numbers 
     1.0000   1.0000   1.0000   1.0000   1.0000   1.0000   1.0000   1.0000
     1.0000   1.0000   1.0000   1.0000   1.0000   1.0000   1.0000   1.0000
    -0.0000  -0.0000  -0.0000  -0.0000  -0.0000

          k = 1.2479 0.8586 0.2031 (  9263 PWs)   bands (ev):

   -49.8240 -26.2237 -25.8914 -25.7531 -10.9051  -8.9043  -8.7817  -0.5714
     0.7947   1.2121   1.5382   1.6985   2.3644   2.4113   3.4286   3.8173
     7.9198   9.1956   9.4280   9.5185  11.3798

     occupation numbers 
     1.0000   1.0000   1.0000   1.0000   1.0000   1.0000   1.0000   1.0000
     1.0000   1.0000   1.0000   1.0000   1.0000   1.0000   1.0000   1.0000
    -0.0000  -0.0000  -0.0000  -0.0000  -0.0000

          k =-0.4991-0.6440 0.2031 (  9254 PWs)   bands (ev):

   -49.8297 -26.2051 -25.8176 -25.7676 -11.1743  -9.0437  -8.8897  -0.1016
     1.2914   1.3908   1.6101   1.9252   2.1588   2.9727   3.6272   3.8536
     6.9099   8.8928   9.1141   9.1862  11.4058

     occupation numbers 
     1.0000   1.0000   1.0000   1.0000   1.0000   1.0000   1.0000   1.0000
     1.0000   1.0000   1.0000   1.0000   1.0000   1.0000   1.0000   1.0000
     0.0921  -0.0000  -0.0000  -0.0000  -0.0000

          k = 0.0000-0.2147 0.2031 (  9257 PWs)   bands (ev):

   -49.8393 -26.0853 -25.7915 -25.7141 -12.2025  -9.4439  -8.8922   0.8132
     2.1025   2.4296   2.5320   3.1516   3.2798   3.5628   4.0587   4.0896
     5.5499   7.6399   7.6880   8.7643   9.9069

     occupation numbers 
     1.0000   1.0000   1.0000   1.0000   1.0000   1.0000   1.0000   1.0000
     1.0000   1.0000   1.0000   1.0000   1.0000   1.0000   1.0000   1.0000
     1.0000  -0.0000  -0.0000  -0.0000  -0.0000

          k = 0.2496 0.0000 0.2031 (  9235 PWs)   bands (ev):

   -49.8377 -26.0552 -25.7869 -25.7470 -12.3636  -9.3906  -8.8878   0.9247
     2.2548   2.5872   2.8859   3.0461   3.1761   3.6987   3.9598   4.0487
     5.9761   7.1048   7.3417   8.7029   9.8636

     occupation numbers 
     1.0000   1.0000   1.0000   1.0000   1.0000   1.0000   1.0000   1.0000
     1.0000   1.0000   1.0000   1.0000   1.0000   1.0000   1.0000   1.0000
     1.0000  -0.0157  -0.0000  -0.0000  -0.0000

          k = 0.9983 0.4293 0.2708 (  9256 PWs)   bands (ev):

   -49.8235 -26.1320 -25.9259 -25.7507 -11.6314  -8.9392  -8.7360   0.7545
     1.2161   1.2386   1.5063   1.8610   2.6210   2.8725   3.5268   4.0529
     7.8601   8.1211   8.4506   9.7126  10.9190

     occupation numbers 
     1.0000   1.0000   1.0000   1.0000   1.0000   1.0000   1.0000   1.0000
     1.0000   1.0000   1.0000   1.0000   1.0000   1.0000   1.0000   1.0000
    -0.0000  -0.0000  -0.0000  -0.0000  -0.0000

          k = 1.2479 0.6440 0.2708 (  9269 PWs)   bands (ev):

   -49.8245 -26.1979 -25.8925 -25.7540 -11.1375  -8.9245  -8.7863  -0.0721
     0.9505   1.1726   1.4835   1.8145   2.4239   2.4737   3.5063   3.8799
     7.9085   8.8244   9.0611   9.4972  11.2898

     occupation numbers 
     1.0000   1.0000   1.0000   1.0000   1.0000   1.0000   1.0000   1.0000
     1.0000   1.0000   1.0000   1.0000   1.0000   1.0000   1.0000   1.0000
    -0.0000  -0.0000  -0.0000  -0.0000  -0.0000

          k = 1.4974 0.8586 0.2708 (  9266 PWs)   bands (ev):

   -49.8292 -26.2310 -25.8166 -25.7666 -10.9402  -8.9906  -8.9199  -0.5972
     1.1914   1.2052   1.7095   1.8097   2.1960   2.9507   3.5707   3.7585
     6.9401   8.9501   9.4394   9.5086  11.4808

     occupation numbers 
     1.0000   1.0000   1.0000   1.0000   1.0000   1.0000   1.0000   1.0000
     1.0000   1.0000   1.0000   1.0000   1.0000   1.0000   1.0000   1.0000
     0.0213  -0.0000  -0.0000  -0.0000  -0.0000

          k = 0.0000-0.4293 0.2708 (  9237 PWs)   bands (ev):

   -49.8381 -26.1510 -25.7891 -25.7120 -11.7418  -9.3500  -8.9357   0.8939
     1.1420   1.5746   2.5925   2.6230   2.8996   3.3863   3.9273   4.1547
     5.6007   8.4147   8.5335   8.8367  10.5413

     occupation numbers 
     1.0000   1.0000   1.0000   1.0000   1.0000   1.0000   1.0000   1.0000
     1.0000   1.0000   1.0000   1.0000   1.0000   1.0000   1.0000   1.0000
     1.0000  -0.0000  -0.0000  -0.0000  -0.0000

          k = 0.2496-0.2147 0.2708 (  9245 PWs)   bands (ev):

   -49.8372 -26.0828 -25.7859 -25.7461 -12.1853  -9.3360  -8.9237   1.0453
     2.1079   2.2753   2.4696   2.8372   3.1156   3.4561   3.7850   4.1148
     6.0173   7.5106   7.6480   8.7234  10.2785

     occupation numbers 
     1.0000   1.0000   1.0000   1.0000   1.0000   1.0000   1.0000   1.0000
     1.0000   1.0000   1.0000   1.0000   1.0000   1.0000   1.0000   1.0000
     1.0000  -0.0000  -0.0000  -0.0000  -0.0000

          k = 0.4991 0.0000 0.2708 (  9262 PWs)   bands (ev):

   -49.8325 -26.0491 -25.8234 -25.7733 -12.3220  -9.1865  -8.8881   1.1662
     1.7849   2.0237   2.5638   2.9848   3.4469   3.5428   3.8485   3.8659
     6.8555   6.8874   7.1096   8.9219  10.0339

     occupation numbers 
     1.0000   1.0000   1.0000   1.0000   1.0000   1.0000   1.0000   1.0000
     1.0000   1.0000   1.0000   1.0000   1.0000   1.0000   1.0000   1.0000
     0.3027   0.1671  -0.0146  -0.0000  -0.0000

          k =-1.9966-0.6440-0.2031 (  9234 PWs)   bands (ev):

   -49.8369 -26.2152 -25.7866 -25.7099 -11.2250  -9.2630  -8.9711  -0.1428
     0.8486   1.3886   2.2003   2.5590   2.6378   3.2636   3.8725   4.1458
     5.6488   8.8709   9.2139   9.3596  10.9063

     occupation numbers 
     1.0000   1.0000   1.0000   1.0000   1.0000   1.0000   1.0000   1.0000
     1.0000   1.0000   1.0000   1.0000   1.0000   1.0000   1.0000   1.0000
     1.0000  -0.0000  -0.0000  -0.0000  -0.0000

          k =-1.7470-0.4293-0.2031 (  9235 PWs)   bands (ev):

   -49.8360 -26.1482 -25.7835 -25.7439 -11.7254  -9.2423  -8.9634   1.0111
     1.2510   1.7343   1.9986   2.5338   2.8801   3.3834   3.4235   4.2205
     6.0751   8.3784   8.4089   8.7782  10.8686

     occupation numbers 
     1.0000   1.0000   1.0000   1.0000   1.0000   1.0000   1.0000   1.0000
     1.0000   1.0000   1.0000   1.0000   1.0000   1.0000   1.0000   1.0000
     1.0000  -0.0000  -0.0000  -0.0000  -0.0000

          k =-1.4974-0.2147-0.2031 (  9252 PWs)   bands (ev):

   -49.8320 -26.0765 -25.8224 -25.7723 -12.1444  -9.1522  -8.8983   1.1978
     1.6783   1.9710   2.3803   2.5394   3.0342   3.2504   3.7849   4.1063
     6.9020   7.2534   7.4607   8.8565  10.3944

     occupation numbers 
     1.0000   1.0000   1.0000   1.0000   1.0000   1.0000   1.0000   1.0000
     1.0000   1.0000   1.0000   1.0000   1.0000   1.0000   1.0000   1.0000
     0.1164  -0.0005  -0.0000  -0.0000  -0.0000

          k =-1.2479 0.0000-0.2031 (  9256 PWs)   bands (ev):

   -49.8274 -26.0430 -25.8987 -25.7596 -12.2808  -9.0444  -8.8075   0.9334
     1.1533   2.0140   2.2750   3.1270   3.5568   3.5667   3.7909   3.8484
     6.7407   6.7712   7.8888   9.3426   9.8428

     occupation numbers 
     1.0000   1.0000   1.0000   1.0000   1.0000   1.0000   1.0000   1.0000
     1.0000   1.0000   1.0000   1.0000   1.0000   1.0000   1.0000   1.0000
     0.8489   0.7238  -0.0000  -0.0000  -0.0000

          k = 0.0000 0.8586-0.1354 (  9223 PWs)   bands (ev):

   -49.8364 -26.2413 -25.7856 -25.7090 -10.9886  -9.2653  -8.9446  -0.6333
     0.7405   1.1820   2.3376   2.4336   2.6324   3.1846   3.8950   4.0978
     5.6606   8.8489   9.5831   9.6979  10.9160

     occupation numbers 
     1.0000   1.0000   1.0000   1.0000   1.0000   1.0000   1.0000   1.0000
     1.0000   1.0000   1.0000   1.0000   1.0000   1.0000   1.0000   1.0000
     1.0000  -0.0000  -0.0000  -0.0000  -0.0000

          k =-1.7470-0.6440-0.1354 (  9237 PWs)   bands (ev):

   -49.8348 -26.2122 -25.7811 -25.7417 -11.2099  -9.1625  -8.9876  -0.1316
     1.0340   1.4553   1.8651   2.2193   2.9281   3.1787   3.3438   4.1496
     6.1123   8.7633   9.2265   9.2549  11.1730

     occupation numbers 
     1.0000   1.0000   1.0000   1.0000   1.0000   1.0000   1.0000   1.0000
     1.0000   1.0000   1.0000   1.0000   1.0000   1.0000   1.0000   1.0000
     1.0000  -0.0000  -0.0000  -0.0000  -0.0000

          k =-1.4974-0.4293-0.1354 (  9244 PWs)   bands (ev):

   -49.8308 -26.1415 -25.8200 -25.7700 -11.6864  -9.0813  -8.9108   1.0833
     1.2749   1.6242   1.7943   1.9880   2.6099   3.1229   3.6019   4.0704
     6.9578   8.1424   8.2949   8.8608  10.9637

     occupation numbers 
     1.0000   1.0000   1.0000   1.0000   1.0000   1.0000   1.0000   1.0000
     1.0000   1.0000   1.0000   1.0000   1.0000   1.0000   1.0000   1.0000
    -0.0052  -0.0000  -0.0000  -0.0000  -0.0000

          k =-1.2479-0.2147-0.1354 (  9273 PWs)   bands (ev):

   -49.8269 -26.0702 -25.8976 -25.7587 -12.1039  -9.0389  -8.7870   0.9415
     1.1184   1.7932   2.2953   2.6355   3.0115   3.3674   3.8070   3.9750
     7.0683   7.2170   7.9257   9.2870  10.1708

     occupation numbers 
     1.0000   1.0000   1.0000   1.0000   1.0000   1.0000   1.0000   1.0000
     1.0000   1.0000   1.0000   1.0000   1.0000   1.0000   1.0000   1.0000
    -0.0257  -0.0014  -0.0000  -0.0000  -0.0000

          k =-0.9983 0.0000-0.1354 (  9237 PWs)   bands (ev):

   -49.8252 -26.0405 -25.9296 -25.7540 -12.2639  -8.9792  -8.7799   0.6812
     1.2602   1.9092   2.0703   3.3075   3.4082   3.5150   3.7531   3.9217
     6.6106   6.7384   8.4248   9.6041   9.9515

     occupation numbers 
     1.0000   1.0000   1.0000   1.0000   1.0000   1.0000   1.0000   1.0000
     1.0000   1.0000   1.0000   1.0000   1.0000   1.0000   1.0000   1.0000
     1.0353   0.8570  -0.0000  -0.0000  -0.0000

          k = 0.0000 0.6440-0.0677 (  9240 PWs)   bands (ev):

   -49.8369 -26.2152 -25.7866 -25.7099 -11.2258  -9.3416  -8.8806  -0.1402
     0.8335   1.0138   2.5617   2.5861   2.8034   3.2231   3.9609   4.0276
     5.6334   8.7822   9.2437   9.3606  10.6652

     occupation numbers 
     1.0000   1.0000   1.0000   1.0000   1.0000   1.0000   1.0000   1.0000
     1.0000   1.0000   1.0000   1.0000   1.0000   1.0000   1.0000   1.0000
     1.0000  -0.0000  -0.0000  -0.0000  -0.0000

          k = 0.2496 0.8586-0.0677 (  9243 PWs)   bands (ev):

   -49.8343 -26.2383 -25.7801 -25.7408 -10.9745  -9.1870  -8.9371  -0.6228
     0.9108   1.2219   1.9461   2.1458   2.9892   3.1526   3.3574   4.0371
     6.1051   8.7788   9.5830   9.5959  11.2017

     occupation numbers 
     1.0000   1.0000   1.0000   1.0000   1.0000   1.0000   1.0000   1.0000
     1.0000   1.0000   1.0000   1.0000   1.0000   1.0000   1.0000   1.0000
     1.0000  -0.0000  -0.0000  -0.0000  -0.0000

          k =-1.4974-0.6440-0.0677 (  9253 PWs)   bands (ev):

   -49.8297 -26.2051 -25.8176 -25.7676 -11.1738  -8.9961  -8.9381  -0.1028
     1.2277   1.2946   1.7539   1.7807   2.3714   3.0332   3.5143   3.8696
     6.9711   8.8578   9.0512   9.1725  11.3098

     occupation numbers 
     1.0000   1.0000   1.0000   1.0000   1.0000   1.0000   1.0000   1.0000
     1.0000   1.0000   1.0000   1.0000   1.0000   1.0000   1.0000   1.0000
    -0.0189  -0.0000  -0.0000  -0.0000  -0.0000

          k =-1.2479-0.4293-0.0677 (  9264 PWs)   bands (ev):

   -49.8257 -26.1348 -25.8951 -25.7564 -11.6475  -9.0006  -8.7659   0.9812
     1.1519   1.1949   1.3830   2.1650   2.7655   2.9153   3.7139   3.8450
     7.9295   7.9622   8.1785   9.2942  10.7426

     occupation numbers 
     1.0000   1.0000   1.0000   1.0000   1.0000   1.0000   1.0000   1.0000
     1.0000   1.0000   1.0000   1.0000   1.0000   1.0000   1.0000   1.0000
    -0.0000  -0.0000  -0.0000  -0.0000  -0.0000

          k =-0.9983-0.2147-0.0677 (  9245 PWs)   bands (ev):

   -49.8247 -26.0676 -25.9285 -25.7530 -12.0872  -8.9676  -8.7672   0.7231
     1.2642   1.7153   2.0596   2.6828   2.8952   3.3624   3.8218   3.9294
     7.0280   7.1174   8.4396   9.7454  10.2299

     occupation numbers 
     1.0000   1.0000   1.0000   1.0000   1.0000   1.0000   1.0000   1.0000
     1.0000   1.0000   1.0000   1.0000   1.0000   1.0000   1.0000   1.0000
    -0.0347  -0.0128  -0.0000  -0.0000  -0.0000

          k =-0.7487 0.0000-0.0677 (  9243 PWs)   bands (ev):

   -49.8273 -26.0430 -25.8987 -25.7596 -12.2811  -8.9650  -8.8948   1.0807
     1.5398   1.8245   2.0376   3.2053   3.3554   3.6091   3.6715   3.6848
     6.7973   6.8240   7.8110   9.7122  10.0494

     occupation numbers 
     1.0000   1.0000   1.0000   1.0000   1.0000   1.0000   1.0000   1.0000
     1.0000   1.0000   1.0000   1.0000   1.0000   1.0000   1.0000   1.0000
     0.5975   0.4598  -0.0000  -0.0000  -0.0000

          k = 0.0000 0.4293 0.0000 (  9257 PWs)   bands (ev):

   -49.8381 -26.1510 -25.7890 -25.7120 -11.7428  -9.4282  -8.8415   0.7348
     1.1043   1.3855   2.5268   2.9050   3.3692   3.3980   3.8829   4.0442
     5.5835   8.4335   8.5357   8.7105  10.2286

     occupation numbers 
     1.0000   1.0000   1.0000   1.0000   1.0000   1.0000   1.0000   1.0000
     1.0000   1.0000   1.0000   1.0000   1.0000   1.0000   1.0000   1.0000
     1.0000  -0.0000  -0.0000  -0.0000  -0.0000

          k = 0.2496 0.6440 0.0000 (  9240 PWs)   bands (ev):

   -49.8348 -26.2122 -25.7810 -25.7417 -11.2109  -9.2643  -8.8749  -0.1288
     1.0530   1.0665   2.0958   2.2310   3.1506   3.2040   3.5038   3.9364
     6.0619   8.7592   9.2415   9.2439  11.0179

     occupation numbers 
     1.0000   1.0000   1.0000   1.0000   1.0000   1.0000   1.0000   1.0000
     1.0000   1.0000   1.0000   1.0000   1.0000   1.0000   1.0000   1.0000
     1.0000  -0.0000  -0.0000  -0.0000  -0.0000

          k = 0.4991 0.8586 0.0000 (  9252 PWs)   bands (ev):

   -49.8292 -26.2310 -25.8166 -25.7666 -10.9402  -8.9905  -8.9199  -0.5972
     1.1676   1.2298   1.7477   1.7823   2.1672   2.9743   3.5893   3.7331
     6.9409   8.9703   9.4011   9.5240  11.4569

     occupation numbers 
     1.0000   1.0000   1.0000   1.0000   1.0000   1.0000   1.0000   1.0000
     1.0000   1.0000   1.0000   1.0000   1.0000   1.0000   1.0000   1.0000
     0.0199  -0.0000  -0.0000  -0.0000  -0.0000

          k =-1.2479-0.6440 0.0000 (  9258 PWs)   bands (ev):

   -49.8245 -26.1979 -25.8925 -25.7540 -11.1374  -8.9476  -8.7608  -0.0722
     0.9070   1.1765   1.2606   1.9482   2.5476   2.6120   3.5071   3.7723
     7.9460   8.8512   9.0646   9.3701  11.1308

     occupation numbers 
     1.0000   1.0000   1.0000   1.0000   1.0000   1.0000   1.0000   1.0000
     1.0000   1.0000   1.0000   1.0000   1.0000   1.0000   1.0000   1.0000
    -0.0000  -0.0000  -0.0000  -0.0000  -0.0000

          k =-0.9983-0.4293 0.0000 (  9267 PWs)   bands (ev):

   -49.8236 -26.1320 -25.9259 -25.7507 -11.6314  -8.9392  -8.7360   0.7817
     1.2171   1.2425   1.3660   2.0270   2.6705   2.7295   3.5792   4.0358
     7.8426   8.1179   8.4636   9.7594  10.8795

     occupation numbers 
     1.0000   1.0000   1.0000   1.0000   1.0000   1.0000   1.0000   1.0000
     1.0000   1.0000   1.0000   1.0000   1.0000   1.0000   1.0000   1.0000
    -0.0000  -0.0000  -0.0000  -0.0000  -0.0000

          k =-0.7487-0.2147 0.0000 (  9237 PWs)   bands (ev):

   -49.8269 -26.0702 -25.8976 -25.7586 -12.1043  -8.9336  -8.9018   1.1204
     1.6352   1.6841   2.0112   2.5818   2.7196   3.0973   3.8486   4.0115
     7.0964   7.2306   7.8424   9.7220  10.5007

     occupation numbers 
     1.0000   1.0000   1.0000   1.0000   1.0000   1.0000   1.0000   1.0000
     1.0000   1.0000   1.0000   1.0000   1.0000   1.0000   1.0000   1.0000
    -0.0179  -0.0010  -0.0000  -0.0000  -0.0000

          k =-0.4991 0.0000 0.0000 (  9262 PWs)   bands (ev):

   -49.8325 -26.0491 -25.8234 -25.7732 -12.3226  -9.2134  -8.8602   1.1978
     1.8918   2.1512   2.4053   3.0965   3.2599   3.4293   3.7547   3.9230
     6.7630   6.9633   7.0848   9.1856  10.1397

     occupation numbers 
     1.0000   1.0000   1.0000   1.0000   1.0000   1.0000   1.0000   1.0000
     1.0000   1.0000   1.0000   1.0000   1.0000   1.0000   1.0000   1.0000
     0.7603  -0.0115  -0.0210  -0.0000  -0.0000

          k = 0.9983 0.8586 0.2708 (  9272 PWs)   bands (ev):

   -49.8219 -26.2207 -25.9221 -25.7474 -10.8904  -8.8984  -8.6909  -0.5607
     0.6362   0.8946   1.8101   1.8938   1.9015   2.5954   3.1836   3.9335
     8.4702   9.1858   9.3949   9.7094  11.3679

     occupation numbers 
     1.0000   1.0000   1.0000   1.0000   1.0000   1.0000   1.0000   1.0000
     1.0000   1.0000   1.0000   1.0000   1.0000   1.0000   1.0000   1.0000
    -0.0000  -0.0000  -0.0000  -0.0000  -0.0000

          k = 0.0000 0.0000 0.2708 (  9271 PWs)   bands (ev):

   -49.8399 -26.0577 -25.7925 -25.7150 -12.3803  -9.4297  -8.9384   0.9170
     2.5549   2.5794   2.8102   3.1744   3.4050   3.5771   4.0318   4.1656
     5.5476   7.2158   7.4568   8.8225   9.6873

     occupation numbers 
     1.0000   1.0000   1.0000   1.0000   1.0000   1.0000   1.0000   1.0000
     1.0000   1.0000   1.0000   1.0000   1.0000   1.0000   1.0000   1.0000
     1.0000  -0.0015  -0.0000  -0.0000  -0.0000

          k = 0.0000-0.2147 0.3385 (  9263 PWs)   bands (ev):

   -49.8393 -26.0853 -25.7915 -25.7141 -12.2017  -9.3614  -8.9899   1.0718
     2.1574   2.4253   2.6032   2.7757   3.2516   3.4533   3.9909   4.0857
     5.5669   7.6395   7.7303   8.8886  10.1490

     occupation numbers 
     1.0000   1.0000   1.0000   1.0000   1.0000   1.0000   1.0000   1.0000
     1.0000   1.0000   1.0000   1.0000   1.0000   1.0000   1.0000   1.0000
     1.0000  -0.0000  -0.0000  -0.0000  -0.0000

          k = 0.2496 0.0000 0.3385 (  9272 PWs)   bands (ev):

   -49.8377 -26.0552 -25.7869 -25.7470 -12.3628  -9.3205  -8.9690   1.1473
     2.1119   2.5778   2.8425   2.9607   3.3150   3.6517   3.9091   3.9260
     6.0384   7.0874   7.3964   8.7142   9.9439

     occupation numbers 
     1.0000   1.0000   1.0000   1.0000   1.0000   1.0000   1.0000   1.0000
     1.0000   1.0000   1.0000   1.0000   1.0000   1.0000   1.0000   1.0000
     1.0000  -0.0203  -0.0000  -0.0000  -0.0000

          k =-1.9966-0.4293-0.1354 (  9218 PWs)   bands (ev):

   -49.8381 -26.1510 -25.7891 -25.7120 -11.7411  -9.2607  -9.0362   0.9813
     1.2734   1.6897   2.3297   2.6477   2.8926   3.1214   3.8406   4.3098
     5.6116   8.4223   8.5331   8.9244  10.7400

     occupation numbers 
     1.0000   1.0000   1.0000   1.0000   1.0000   1.0000   1.0000   1.0000
     1.0000   1.0000   1.0000   1.0000   1.0000   1.0000   1.0000   1.0000
     1.0000  -0.0000  -0.0000  -0.0000  -0.0000

          k =-1.7470-0.2147-0.1354 (  9260 PWs)   bands (ev):

   -49.8372 -26.0828 -25.7859 -25.7461 -12.1846  -9.2557  -9.0136   1.2881
     1.9247   2.3502   2.4496   2.7758   3.0853   3.3916   3.6968   4.1386
     6.0686   7.5054   7.6685   8.7529  10.3589

     occupation numbers 
     1.0000   1.0000   1.0000   1.0000   1.0000   1.0000   1.0000   1.0000
     1.0000   1.0000   1.0000   1.0000   1.0000   1.0000   1.0000   1.0000
     1.0000  -0.0000  -0.0000  -0.0000  -0.0000

          k =-1.4974 0.0000-0.1354 (  9252 PWs)   bands (ev):

   -49.8325 -26.0491 -25.8234 -25.7733 -12.3216  -9.1638  -8.9114   1.1793
     1.5881   2.0927   2.6129   2.9415   3.5750   3.6315   3.7941   3.8933
     6.8449   6.9365   7.1160   8.7535   9.9371

     occupation numbers 
     1.0000   1.0000   1.0000   1.0000   1.0000   1.0000   1.0000   1.0000
     1.0000   1.0000   1.0000   1.0000   1.0000   1.0000   1.0000   1.0000
     0.3540   0.0281  -0.0131  -0.0000  -0.0000

          k = 0.0000 1.0733-0.0677 (  9231 PWs)   bands (ev):

   -49.8369 -26.2152 -25.7867 -25.7099 -11.2246  -9.2099  -9.0292  -0.1439
     1.0090   1.2560   2.3747   2.5591   2.6598   2.8991   3.8345   4.2939
     5.6489   8.9078   9.2201   9.3588  10.9451

     occupation numbers 
     1.0000   1.0000   1.0000   1.0000   1.0000   1.0000   1.0000   1.0000
     1.0000   1.0000   1.0000   1.0000   1.0000   1.0000   1.0000   1.0000
     1.0000  -0.0000  -0.0000  -0.0000  -0.0000

          k =-1.7470-0.4293-0.0677 (  9246 PWs)   bands (ev):

   -49.8360 -26.1482 -25.7835 -25.7439 -11.7249  -9.1566  -9.0550   1.0303
     1.4392   1.6984   1.9091   2.4782   2.9699   3.2266   3.3332   4.3021
     6.1050   8.3563   8.4102   8.8187  10.9388

     occupation numbers 
     1.0000   1.0000   1.0000   1.0000   1.0000   1.0000   1.0000   1.0000
     1.0000   1.0000   1.0000   1.0000   1.0000   1.0000   1.0000   1.0000
     1.0000  -0.0000  -0.0000  -0.0000  -0.0000

          k =-1.4974-0.2147-0.0677 (  9250 PWs)   bands (ev):

   -49.8320 -26.0765 -25.8224 -25.7723 -12.1441  -9.1331  -8.9180   1.2179
     1.5287   1.9766   2.4429   2.5416   3.1163   3.3105   3.7194   4.1288
     6.9700   7.2421   7.4574   8.7366  10.3122

     occupation numbers 
     1.0000   1.0000   1.0000   1.0000   1.0000   1.0000   1.0000   1.0000
     1.0000   1.0000   1.0000   1.0000   1.0000   1.0000   1.0000   1.0000
    -0.0180  -0.0007  -0.0000  -0.0000  -0.0000

          k =-1.2479 0.0000-0.0677 (  9266 PWs)   bands (ev):

   -49.8274 -26.0430 -25.8987 -25.7597 -12.2807  -9.0635  -8.7852   0.8988
     1.0390   2.0153   2.3842   3.1010   3.5627   3.6456   3.8260   3.9027
     6.7075   6.7582   7.9327   9.2088   9.7290

     occupation numbers 
     1.0000   1.0000   1.0000   1.0000   1.0000   1.0000   1.0000   1.0000
     1.0000   1.0000   1.0000   1.0000   1.0000   1.0000   1.0000   1.0000
     0.9475   0.7808  -0.0000  -0.0000  -0.0000

          k = 0.0000 0.8586 0.0000 (  9222 PWs)   bands (ev):

   -49.8364 -26.2413 -25.7856 -25.7090 -10.9886  -9.2653  -8.9446  -0.6333
     0.8424   1.0098   2.4337   2.6322   2.7291   2.7871   3.8951   4.1800
     5.6561   8.8489   9.5932   9.6978  10.8754

     occupation numbers 
     1.0000   1.0000   1.0000   1.0000   1.0000   1.0000   1.0000   1.0000
     1.0000   1.0000   1.0000   1.0000   1.0000   1.0000   1.0000   1.0000
     1.0000  -0.0000  -0.0000  -0.0000  -0.0000

          k = 0.2496 1.0733 0.0000 (  9238 PWs)   bands (ev):

   -49.8348 -26.2122 -25.7811 -25.7417 -11.2098  -9.1256  -9.0263  -0.1321
     1.1471   1.3068   2.0030   2.1435   3.0160   3.1075   3.2356   4.2037
     6.1189   8.7572   9.2427   9.2521  11.1923

     occupation numbers 
     1.0000   1.0000   1.0000   1.0000   1.0000   1.0000   1.0000   1.0000
     1.0000   1.0000   1.0000   1.0000   1.0000   1.0000   1.0000   1.0000
     1.0000  -0.0000  -0.0000  -0.0000  -0.0000

          k =-1.4974-0.4293 0.0000 (  9251 PWs)   bands (ev):

   -49.8309 -26.1415 -25.8200 -25.7700 -11.6862  -9.0690  -8.9233   1.0816
     1.2653   1.5910   1.7569   2.0207   2.7053   3.1185   3.5652   4.0742
     6.9858   8.1583   8.2840   8.8070  10.9211

     occupation numbers 
     1.0000   1.0000   1.0000   1.0000   1.0000   1.0000   1.0000   1.0000
     1.0000   1.0000   1.0000   1.0000   1.0000   1.0000   1.0000   1.0000
    -0.0287  -0.0000  -0.0000  -0.0000  -0.0000

          k =-1.2479-0.2147 0.0000 (  9269 PWs)   bands (ev):

   -49.8269 -26.0702 -25.8976 -25.7587 -12.1038  -9.0483  -8.7759   0.9291
     1.0544   1.7824   2.3461   2.6342   3.0587   3.4135   3.8262   3.9412
     7.0621   7.2155   7.9492   9.2144  10.1062

     occupation numbers 
     1.0000   1.0000   1.0000   1.0000   1.0000   1.0000   1.0000   1.0000
     1.0000   1.0000   1.0000   1.0000   1.0000   1.0000   1.0000   1.0000
    -0.0274  -0.0015  -0.0000  -0.0000  -0.0000

          k =-0.9983 0.0000 0.0000 (  9226 PWs)   bands (ev):

   -49.8252 -26.0405 -25.9296 -25.7540 -12.2639  -8.9792  -8.7800   0.7015
     1.2090   1.9209   2.1006   3.3072   3.4087   3.5346   3.7187   3.9214
     6.6179   6.7310   8.4281   9.7648   9.7825

     occupation numbers 
     1.0000   1.0000   1.0000   1.0000   1.0000   1.0000   1.0000   1.0000
     1.0000   1.0000   1.0000   1.0000   1.0000   1.0000   1.0000   1.0000
     1.0354   0.8821  -0.0000  -0.0000  -0.0000

          k = 0.0000 0.0000 0.4061 (  9279 PWs)   bands (ev):

   -49.8399 -26.0577 -25.7925 -25.7150 -12.3795  -9.3307  -9.0523   1.2349
     2.3122   2.6333   2.7882   3.3070   3.3476   3.4004   3.8796   4.0897
     5.5563   7.2162   7.5268   8.9465   9.8681

     occupation numbers 
     1.0000   1.0000   1.0000   1.0000   1.0000   1.0000   1.0000   1.0000
     1.0000   1.0000   1.0000   1.0000   1.0000   1.0000   1.0000   1.0000
     1.0000  -0.0014  -0.0000  -0.0000  -0.0000

          k =-1.9966-0.2147-0.0677 (  9260 PWs)   bands (ev):

   -49.8393 -26.0853 -25.7915 -25.7141 -12.2011  -9.2538  -9.1081   1.3483
     2.1534   2.4058   2.4883   2.6640   3.2218   3.3863   3.9220   4.0878
     5.5750   7.6393   7.7655   8.9765  10.3066

     occupation numbers 
     1.0000   1.0000   1.0000   1.0000   1.0000   1.0000   1.0000   1.0000
     1.0000   1.0000   1.0000   1.0000   1.0000   1.0000   1.0000   1.0000
     1.0000  -0.0000  -0.0000  -0.0000  -0.0000

          k =-1.7470 0.0000-0.0677 (  9262 PWs)   bands (ev):

   -49.8377 -26.0552 -25.7869 -25.7470 -12.3623  -9.2389  -9.0585   1.4423
     1.8089   2.6746   2.8212   2.8630   3.4421   3.6519   3.8014   3.8411
     6.0740   7.0789   7.4309   8.7513   9.9689

     occupation numbers 
     1.0000   1.0000   1.0000   1.0000   1.0000   1.0000   1.0000   1.0000
     1.0000   1.0000   1.0000   1.0000   1.0000   1.0000   1.0000   1.0000
     1.0000  -0.0227  -0.0000  -0.0000  -0.0000

          k = 0.0000 1.2879 0.0000 (  9224 PWs)   bands (ev):

   -49.8381 -26.1510 -25.7891 -25.7120 -11.7408  -9.1607  -9.1409   1.0011
     1.4269   1.6428   2.2656   2.6739   2.8881   2.9764   3.8033   4.3639
     5.6158   8.4297   8.5331   8.9607  10.8165

     occupation numbers 
     1.0000   1.0000   1.0000   1.0000   1.0000   1.0000   1.0000   1.0000
     1.0000   1.0000   1.0000   1.0000   1.0000   1.0000   1.0000   1.0000
     1.0000  -0.0000  -0.0000  -0.0000  -0.0000

          k =-1.7470-0.2147 0.0000 (  9262 PWs)   bands (ev):

   -49.8372 -26.0828 -25.7859 -25.7461 -12.1843  -9.1928  -9.0805   1.5046
     1.7149   2.4004   2.4206   2.7824   3.0767   3.3557   3.6575   4.1442
     6.0884   7.5036   7.6751   8.7749  10.3812

     occupation numbers 
     1.0000   1.0000   1.0000   1.0000   1.0000   1.0000   1.0000   1.0000
     1.0000   1.0000   1.0000   1.0000   1.0000   1.0000   1.0000   1.0000
     1.0000  -0.0000  -0.0000  -0.0000  -0.0000

          k =-1.4974 0.0000 0.0000 (  9254 PWs)   bands (ev):

   -49.8325 -26.0491 -25.8234 -25.7733 -12.3215  -9.1531  -8.9224   1.2014
     1.4984   2.1187   2.6294   2.9266   3.6742   3.6844   3.7050   3.9033
     6.8286   6.9747   7.1174   8.6859   9.8926

     occupation numbers 
     1.0000   1.0000   1.0000   1.0000   1.0000   1.0000   1.0000   1.0000
     1.0000   1.0000   1.0000   1.0000   1.0000   1.0000   1.0000   1.0000
     0.4363  -0.0218  -0.0128  -0.0000  -0.0000

          k =-1.9966-1.7173-0.5415 (  9304 PWs)   bands (ev):

   -49.8399 -26.0577 -25.7926 -25.7150 -12.3792  -9.2446  -9.1444   1.4564
     2.0956   2.6719   2.7810   3.3163   3.3486   3.3827   3.7943   4.0603
     5.5567   7.2163   7.5555   8.9979   9.9339

     occupation numbers 
     1.0000   1.0000   1.0000   1.0000   1.0000   1.0000   1.0000   1.0000
     1.0000   1.0000   1.0000   1.0000   1.0000   1.0000   1.0000   1.0000
     1.0000  -0.0014  -0.0000  -0.0000  -0.0000

     the Fermi energy is     6.8163 ev

!    total energy              =    -534.96619647 Ry

     total all-electron energy =     -9636.856439 Ry
     estimated scf accuracy    <          6.2E-11 Ry
     smearing contrib. (-TS)   =      -0.00023018 Ry
     internal energy E=F+TS    =    -534.96596629 Ry

     The total energy is F=E-TS. E is the sum of the following terms:
     one-electron contribution =     -93.95471125 Ry
     hartree contribution      =      61.22317336 Ry
     xc contribution           =     -39.53493629 Ry
     ewald contribution        =    -135.48921389 Ry
     one-center paw contrib.   =    -327.21027821 Ry
      -> PAW hartree energy AE =      29.07785737 Ry
      -> PAW hartree energy PS =     -29.04779533 Ry
      -> PAW xc energy AE      =     -17.03598994 Ry
      -> PAW xc energy PS      =       7.41184287 Ry
      -> total E_H with PAW    =      61.25323541 Ry
      -> total E_XC with PAW   =     -49.15908336 Ry

     convergence has been achieved in  12 iterations

     Forces acting on atoms (cartesian axes, Ry/au):

     atom    1 type  1   force =     0.00000000    0.00000000    0.00000000
     atom    2 type  2   force =     0.00000000    0.00000000    0.03665878
     atom    3 type  2   force =     0.00000000    0.00000000   -0.03665878
     atom    4 type  3   force =     0.00000000    0.00000000    0.00000000
     The non-local contrib.  to forces
     atom    1 type  1   force =     0.00000000    0.00000000    0.00000000
     atom    2 type  2   force =     0.00000000    0.00000000    0.06360006
     atom    3 type  2   force =     0.00000000    0.00000000   -0.06360006
     atom    4 type  3   force =     0.00000000    0.00000000    0.00000000
     The ionic contribution  to forces
     atom    1 type  1   force =    -0.00000000   -0.00000000    0.00000000
     atom    2 type  2   force =     0.00000001    0.00000000  -10.07462875
     atom    3 type  2   force =    -0.00000001   -0.00000000   10.07462875
     atom    4 type  3   force =    -0.00000000   -0.00000000    0.00000000
     The local contribution  to forces
     atom    1 type  1   force =    -0.00000000    0.00000000    0.00000000
     atom    2 type  2   force =     0.00000002   -0.00000003   10.04615618
     atom    3 type  2   force =    -0.00000002    0.00000003  -10.04615618
     atom    4 type  3   force =     0.00000000   -0.00000000    0.00000000
     The core correction contribution to forces
     atom    1 type  1   force =    -0.00000000    0.00000000   -0.00000000
     atom    2 type  2   force =    -0.00000000    0.00000000    0.00152969
     atom    3 type  2   force =     0.00000000   -0.00000000   -0.00152969
     atom    4 type  3   force =    -0.00000000   -0.00000000   -0.00000000
     The Hubbard contrib.    to forces
     atom    1 type  1   force =     0.00000000    0.00000000    0.00000000
     atom    2 type  2   force =     0.00000000    0.00000000    0.00000000
     atom    3 type  2   force =     0.00000000    0.00000000    0.00000000
     atom    4 type  3   force =     0.00000000    0.00000000    0.00000000
     The SCF correction term to forces
     atom    1 type  1   force =     0.00000000    0.00000000   -0.00000000
     atom    2 type  2   force =    -0.00000000    0.00000000    0.00000160
     atom    3 type  2   force =     0.00000000   -0.00000000   -0.00000160
     atom    4 type  3   force =     0.00000000    0.00000000   -0.00000000

     Total force =     0.051843     Total SCF correction =     0.000002


     Computing stress (Cartesian axis) and pressure

          total   stress  (Ry/bohr**3)                   (kbar)     P=      -39.66
  -0.00026606   0.00000000   0.00000000          -39.14        0.00        0.00
   0.00000000  -0.00026586   0.00000000            0.00      -39.11        0.00
   0.00000000   0.00000000  -0.00027690            0.00        0.00      -40.73

     kinetic stress (kbar)  14746.42     -0.00      0.00
                                0.00  14843.80      0.00
                                0.00      0.00  14760.05

     local   stress (kbar) -18881.80      0.00      0.00
                                0.00 -24245.31      0.00
                                0.00      0.00   4120.62

     nonloc. stress (kbar)   8010.61     -0.00      0.00
                                0.00   7930.51     -0.00
                                0.00     -0.00   8005.14

     hartree stress (kbar)   8371.11      0.00      0.00
                                0.00  10123.84      0.00
                                0.00      0.00  -2058.15

     exc-cor stress (kbar)  -1131.04     -0.00     -0.00
                               -0.00  -1121.18     -0.00
                               -0.00     -0.00  -1130.54

     corecor stress (kbar)  -2029.31      0.00      0.00
                                0.00  -2029.34      0.00
                                0.00      0.00  -2029.17

     ewald   stress (kbar)  -9125.13     -0.00     -0.00
                               -0.00  -5541.44     -0.00
                               -0.00     -0.00 -21708.70

     hubbard stress (kbar)      0.00      0.00      0.00
                                0.00      0.00      0.00
                                0.00      0.00      0.00

     DFT-D   stress (kbar)      0.00      0.00      0.00
                                0.00      0.00      0.00
                                0.00      0.00      0.00

     XDM     stress (kbar)      0.00      0.00      0.00
                                0.00      0.00      0.00
                                0.00      0.00      0.00

     dft-nl  stress (kbar)      0.00      0.00      0.00
                                0.00      0.00      0.00
                                0.00      0.00      0.00

     TS-vdW  stress (kbar)      0.00      0.00      0.00
                                0.00      0.00      0.00
                                0.00      0.00      0.00



     Writing output data file /zfs_data/gutierre/Scratch/Cl2NbO/convergence/cutoff/8x8x8/100/tmp/Cl2NbO.save/
 
     init_run     :      2.61s CPU      2.81s WALL (       1 calls)
     electrons    :     54.34s CPU     55.62s WALL (       1 calls)
     forces       :      0.59s CPU      0.60s WALL (       1 calls)
     stress       :      1.32s CPU      1.33s WALL (       1 calls)

     Called by init_run:
     wfcinit      :      1.70s CPU      1.76s WALL (       1 calls)
     wfcinit:atom :      0.01s CPU      0.01s WALL (      95 calls)
     wfcinit:wfcr :      1.65s CPU      1.70s WALL (      95 calls)
     potinit      :      0.31s CPU      0.40s WALL (       1 calls)
     hinit0       :      0.37s CPU      0.39s WALL (       1 calls)

     Called by electrons:
     c_bands      :     42.90s CPU     43.87s WALL (      12 calls)
     sum_band     :      9.20s CPU      9.44s WALL (      12 calls)
     v_of_rho     :      0.74s CPU      0.78s WALL (      13 calls)
     v_h          :      0.06s CPU      0.06s WALL (      13 calls)
     v_xc         :      0.79s CPU      0.83s WALL (      15 calls)
     newd         :      0.74s CPU      0.77s WALL (      13 calls)
     PAW_pot      :      0.68s CPU      0.69s WALL (      13 calls)
     mix_rho      :      0.11s CPU      0.12s WALL (      12 calls)

     Called by c_bands:
     init_us_2    :      0.48s CPU      0.50s WALL (    2565 calls)
     cegterg      :     41.81s CPU     42.71s WALL (    1140 calls)

     Called by sum_band:
     sum_band:wei :      0.04s CPU      0.06s WALL (      12 calls)
     sum_band:loo :      8.33s CPU      8.51s WALL (      12 calls)
     sum_band:buf :      0.05s CPU      0.06s WALL (    1140 calls)
     sum_band:ini :      0.22s CPU      0.23s WALL (    1140 calls)
     sum_band:cal :      0.21s CPU      0.21s WALL (    1140 calls)
     sum_band:bec :      0.03s CPU      0.03s WALL (    1140 calls)
     addusdens    :      0.75s CPU      0.78s WALL (      12 calls)
     addusd:skk   :      0.01s CPU      0.01s WALL (      36 calls)
     addusd:dgemm :      0.23s CPU      0.26s WALL (      36 calls)
     addusd:qvan2 :      0.48s CPU      0.48s WALL (      36 calls)

     Called by *egterg:
     cdiaghg      :      2.47s CPU      2.53s WALL (    4200 calls)
     cegterg:over :      0.67s CPU      0.69s WALL (    3060 calls)
     cegterg:upda :      0.20s CPU      0.21s WALL (    3060 calls)
     cegterg:last :      0.32s CPU      0.33s WALL (    2246 calls)
     h_psi        :     38.86s CPU     39.71s WALL (    4295 calls)
     s_psi        :      0.22s CPU      0.23s WALL (    4295 calls)
     g_psi        :      0.05s CPU      0.05s WALL (    3060 calls)

     Called by h_psi:
     h_psi:calbec :      0.76s CPU      0.78s WALL (    4295 calls)
     vloc_psi     :     37.63s CPU     38.44s WALL (    4295 calls)
     add_vuspsi   :      0.35s CPU      0.36s WALL (    4295 calls)

     General routines
     calbec       :      0.99s CPU      1.01s WALL (    5910 calls)
     fft          :      0.64s CPU      0.65s WALL (     192 calls)
     ffts         :      0.04s CPU      0.11s WALL (      25 calls)
     fftw         :     41.90s CPU     42.83s WALL (  146274 calls)
     interpolate  :      0.09s CPU      0.16s WALL (      13 calls)
 
     Parallel routines
     fft_scatt_xy :      4.56s CPU      4.63s WALL (  146491 calls)
     fft_scatt_yz :     17.04s CPU     17.41s WALL (  146491 calls)

     PAW routines
     PAW_pot      :      0.68s CPU      0.69s WALL (      13 calls)
     PAW_symme    :      0.02s CPU      0.02s WALL (      25 calls)
 
     PWSCF        :     59.74s CPU   1m 2.06s WALL

 
   This run was terminated on:  15:55: 8  18May2022            

=------------------------------------------------------------------------------=
   JOB DONE.
=------------------------------------------------------------------------------=
