MPI startup(): Warning: I_MPI_PMI_LIBRARY will be ignored since the hydra process manager was found
MPI startup(): Warning: I_MPI_PMI_LIBRARY will be ignored since the hydra process manager was found
MPI startup(): Warning: I_MPI_PMI_LIBRARY will be ignored since the hydra process manager was found
MPI startup(): Warning: I_MPI_PMI_LIBRARY will be ignored since the hydra process manager was found
MPI startup(): Warning: I_MPI_PMI_LIBRARY will be ignored since the hydra process manager was found
MPI startup(): Warning: I_MPI_PMI_LIBRARY will be ignored since the hydra process manager was found
MPI startup(): Warning: I_MPI_PMI_LIBRARY will be ignored since the hydra process manager was found
MPI startup(): Warning: I_MPI_PMI_LIBRARY will be ignored since the hydra process manager was found
MPI startup(): Warning: I_MPI_PMI_LIBRARY will be ignored since the hydra process manager was found
MPI startup(): Warning: I_MPI_PMI_LIBRARY will be ignored since the hydra process manager was found
MPI startup(): Warning: I_MPI_PMI_LIBRARY will be ignored since the hydra process manager was found
MPI startup(): Warning: I_MPI_PMI_LIBRARY will be ignored since the hydra process manager was found
MPI startup(): Warning: I_MPI_PMI_LIBRARY will be ignored since the hydra process manager was found
MPI startup(): Warning: I_MPI_PMI_LIBRARY will be ignored since the hydra process manager was found
MPI startup(): Warning: I_MPI_PMI_LIBRARY will be ignored since the hydra process manager was found
MPI startup(): Warning: I_MPI_PMI_LIBRARY will be ignored since the hydra process manager was found
MPI startup(): Warning: I_MPI_PMI_LIBRARY will be ignored since the hydra process manager was found
MPI startup(): Warning: I_MPI_PMI_LIBRARY will be ignored since the hydra process manager was found
MPI startup(): Warning: I_MPI_PMI_LIBRARY will be ignored since the hydra process manager was found
MPI startup(): Warning: I_MPI_PMI_LIBRARY will be ignored since the hydra process manager was found
MPI startup(): Warning: I_MPI_PMI_LIBRARY will be ignored since the hydra process manager was found
MPI startup(): Warning: I_MPI_PMI_LIBRARY will be ignored since the hydra process manager was found
MPI startup(): Warning: I_MPI_PMI_LIBRARY will be ignored since the hydra process manager was found
MPI startup(): Warning: I_MPI_PMI_LIBRARY will be ignored since the hydra process manager was found

     Program PWSCF v.6.7MaX starts on 30Jul2021 at 18:41:43 

     This program is part of the open-source Quantum ESPRESSO suite
     for quantum simulation of materials; please cite
         "P. Giannozzi et al., J. Phys.:Condens. Matter 21 395502 (2009);
         "P. Giannozzi et al., J. Phys.:Condens. Matter 29 465901 (2017);
          URL http://www.quantum-espresso.org", 
     in publications or presentations arising from this work. More details at
     http://www.quantum-espresso.org/quote

     Parallel version (MPI), running on    24 processors

     MPI processes distributed on     1 nodes
     R & G space division:  proc/nbgrp/npool/nimage =      24
     Waiting for input...
     Reading input from standard input

     Current dimensions of program PWSCF are:
     Max number of different atomic species (ntypx) = 10
     Max number of k-points (npk) =  40000
     Max angular momentum in pseudopotentials (lmaxx) =  3
     file Cr.rel-pbe-spn-kjpaw_psl.1.0.0.UPF: wavefunction(s)  3S 3P 3P 3D 3D renormalized
     file Si.rel-pbe-n-kjpaw_psl.1.0.0.UPF: wavefunction(s)  3S 3P 3P renormalized

     Subspace diagonalization in iterative solution of the eigenvalue problem:
     a serial algorithm will be used

     Message from routine setup:
     using ibrav=0 with symmetry is DISCOURAGED, use correct ibrav instead
 
     Parallelization info
     --------------------
     sticks:   dense  smooth     PW     G-vecs:    dense   smooth      PW
     Min         253     101     28                14897     3767     562
     Max         254     102     29                14902     3770     567
     Sum        6093    2433    681               357597    90447   13517
 


     bravais-lattice index     =            0
     lattice parameter (alat)  =       8.7475  a.u.
     unit-cell volume          =     669.3575 (a.u.)^3
     number of atoms/cell      =            8
     number of atomic types    =            2
     number of electrons       =        72.00
     number of Kohn-Sham states=           86
     kinetic-energy cutoff     =     100.0000  Ry
     charge density cutoff     =    1000.0000  Ry
     scf convergence threshold =      1.0E-06
     mixing beta               =       0.7000
     number of iterations used =            8  plain     mixing
     Exchange-correlation= SLA  PW   PBX  PBC
                           (   1   4   3   4   0   0   0)
     Non magnetic calculation with spin-orbit


     celldm(1)=   8.747542  celldm(2)=   0.000000  celldm(3)=   0.000000
     celldm(4)=   0.000000  celldm(5)=   0.000000  celldm(6)=   0.000000

     crystal axes: (cart. coord. in units of alat)
               a(1) = (   1.000000   0.000000   0.000000 )  
               a(2) = (   0.000000   1.000000   0.000000 )  
               a(3) = (   0.000000   0.000000   1.000000 )  

     reciprocal axes: (cart. coord. in units 2 pi/alat)
               b(1) = (  1.000000  0.000000  0.000000 )  
               b(2) = (  0.000000  1.000000  0.000000 )  
               b(3) = (  0.000000  0.000000  1.000000 )  


     PseudoPot. # 1 for Cr read from file:
     ../../../../pseudo/Cr.rel-pbe-spn-kjpaw_psl.1.0.0.UPF
     MD5 check sum: 1e24e2b5251376a8b945118fca0c7981
     Pseudo is Projector augmented-wave + core cor, Zval = 14.0
     Generated using &quot;atomic&quot; code by A. Dal Corso  v.6.3
     Shape of augmentation charge: PSQ
     Using radial grid of 1183 points, 10 beta functions with: 
                l(1) =   0
                l(2) =   0
                l(3) =   1
                l(4) =   1
                l(5) =   1
                l(6) =   1
                l(7) =   2
                l(8) =   2
                l(9) =   2
               l(10) =   2
     Q(r) pseudized with 0 coefficients 


     PseudoPot. # 2 for Si read from file:
     ../../../../pseudo/Si.rel-pbe-n-kjpaw_psl.1.0.0.UPF
     MD5 check sum: d74f6caf6830ea4c2076867160cab1b0
     Pseudo is Projector augmented-wave + core cor, Zval =  4.0
     Generated using &quot;atomic&quot; code by A. Dal Corso  v.6.3
     Shape of augmentation charge: PSQ
     Using radial grid of 1141 points, 10 beta functions with: 
                l(1) =   0
                l(2) =   0
                l(3) =   1
                l(4) =   1
                l(5) =   1
                l(6) =   1
                l(7) =   2
                l(8) =   2
                l(9) =   2
               l(10) =   2
     Q(r) pseudized with 0 coefficients 


     atomic species   valence    mass     pseudopotential
        Cr            14.00    51.99600     Cr( 1.00)
        Si             4.00    28.08500     Si( 1.00)

     12 Sym. Ops. (no inversion) found ( 9 have fractional translation)


                                    s                        frac. trans.

      isym =  1     identity                                     

 cryst.   s( 1) = (     1          0          0      )
                  (     0          1          0      )
                  (     0          0          1      )

 cart.    s( 1) = (  1.0000000  0.0000000  0.0000000 )
                  (  0.0000000  1.0000000  0.0000000 )
                  (  0.0000000  0.0000000  1.0000000 )


      isym =  2     180 deg rotation - cart. axis [0,0,1]        

 cryst.   s( 2) = (    -1          0          0      )    f =(  0.5000000 )
                  (     0         -1          0      )       (  0.0000000 )
                  (     0          0          1      )       ( -0.5000000 )

 cart.    s( 2) = ( -1.0000000  0.0000000  0.0000000 )    f =(  0.5000000 )
                  (  0.0000000 -1.0000000  0.0000000 )       (  0.0000000 )
                  (  0.0000000  0.0000000  1.0000000 )       ( -0.5000000 )


      isym =  3     180 deg rotation - cart. axis [0,1,0]        

 cryst.   s( 3) = (    -1          0          0      )    f =(  0.0000000 )
                  (     0          1          0      )       ( -0.5000000 )
                  (     0          0         -1      )       (  0.5000000 )

 cart.    s( 3) = ( -1.0000000  0.0000000  0.0000000 )    f =(  0.0000000 )
                  (  0.0000000  1.0000000  0.0000000 )       ( -0.5000000 )
                  (  0.0000000  0.0000000 -1.0000000 )       (  0.5000000 )


      isym =  4     180 deg rotation - cart. axis [1,0,0]        

 cryst.   s( 4) = (     1          0          0      )    f =(  0.5000000 )
                  (     0         -1          0      )       (  0.5000000 )
                  (     0          0         -1      )       (  0.0000000 )

 cart.    s( 4) = (  1.0000000  0.0000000  0.0000000 )    f =(  0.5000000 )
                  (  0.0000000 -1.0000000  0.0000000 )       (  0.5000000 )
                  (  0.0000000  0.0000000 -1.0000000 )       (  0.0000000 )


      isym =  5     120 deg rotation - cart. axis [-1,-1,-1]     

 cryst.   s( 5) = (     0          0          1      )
                  (     1          0          0      )
                  (     0          1          0      )

 cart.    s( 5) = (  0.0000000  1.0000000  0.0000000 )
                  (  0.0000000  0.0000000  1.0000000 )
                  (  1.0000000  0.0000000  0.0000000 )


      isym =  6     120 deg rotation - cart. axis [-1,1,1]       

 cryst.   s( 6) = (     0          0         -1      )    f =(  0.0000000 )
                  (    -1          0          0      )       ( -0.5000000 )
                  (     0          1          0      )       (  0.5000000 )

 cart.    s( 6) = (  0.0000000 -1.0000000  0.0000000 )    f =(  0.0000000 )
                  (  0.0000000  0.0000000  1.0000000 )       ( -0.5000000 )
                  ( -1.0000000  0.0000000  0.0000000 )       (  0.5000000 )


      isym =  7     120 deg rotation - cart. axis [1,1,-1]       

 cryst.   s( 7) = (     0          0         -1      )    f =(  0.5000000 )
                  (     1          0          0      )       (  0.5000000 )
                  (     0         -1          0      )       (  0.0000000 )

 cart.    s( 7) = (  0.0000000  1.0000000  0.0000000 )    f =(  0.5000000 )
                  (  0.0000000  0.0000000 -1.0000000 )       (  0.5000000 )
                  ( -1.0000000  0.0000000  0.0000000 )       (  0.0000000 )


      isym =  8     120 deg rotation - cart. axis [1,-1,1]       

 cryst.   s( 8) = (     0          0          1      )    f =(  0.5000000 )
                  (    -1          0          0      )       (  0.0000000 )
                  (     0         -1          0      )       ( -0.5000000 )

 cart.    s( 8) = (  0.0000000 -1.0000000  0.0000000 )    f =(  0.5000000 )
                  (  0.0000000  0.0000000 -1.0000000 )       (  0.0000000 )
                  (  1.0000000  0.0000000  0.0000000 )       ( -0.5000000 )


      isym =  9     120 deg rotation - cart. axis [1,1,1]        

 cryst.   s( 9) = (     0          1          0      )
                  (     0          0          1      )
                  (     1          0          0      )

 cart.    s( 9) = (  0.0000000  0.0000000  1.0000000 )
                  (  1.0000000  0.0000000  0.0000000 )
                  (  0.0000000  1.0000000  0.0000000 )


      isym = 10     120 deg rotation - cart. axis [-1,1,-1]      

 cryst.   s(10) = (     0         -1          0      )    f =(  0.5000000 )
                  (     0          0         -1      )       (  0.5000000 )
                  (     1          0          0      )       (  0.0000000 )

 cart.    s(10) = (  0.0000000  0.0000000  1.0000000 )    f =(  0.5000000 )
                  ( -1.0000000  0.0000000  0.0000000 )       (  0.5000000 )
                  (  0.0000000 -1.0000000  0.0000000 )       (  0.0000000 )


      isym = 11     120 deg rotation - cart. axis [1,-1,-1]      

 cryst.   s(11) = (     0         -1          0      )    f =(  0.5000000 )
                  (     0          0          1      )       (  0.0000000 )
                  (    -1          0          0      )       ( -0.5000000 )

 cart.    s(11) = (  0.0000000  0.0000000 -1.0000000 )    f =(  0.5000000 )
                  ( -1.0000000  0.0000000  0.0000000 )       (  0.0000000 )
                  (  0.0000000  1.0000000  0.0000000 )       ( -0.5000000 )


      isym = 12     120 deg rotation - cart. axis [-1,-1,1]      

 cryst.   s(12) = (     0          1          0      )    f =(  0.0000000 )
                  (     0          0         -1      )       ( -0.5000000 )
                  (    -1          0          0      )       (  0.5000000 )

 cart.    s(12) = (  0.0000000  0.0000000 -1.0000000 )    f =(  0.0000000 )
                  (  1.0000000  0.0000000  0.0000000 )       ( -0.5000000 )
                  (  0.0000000 -1.0000000  0.0000000 )       (  0.5000000 )


   Cartesian axes

     site n.     atom                  positions (alat units)
         1           Cr  tau(   1) = (   0.8640000   0.3640000   0.1360000  )
         2           Cr  tau(   2) = (   0.3640000   0.1360000   0.8640000  )
         3           Cr  tau(   3) = (   0.1360000   0.8640000   0.3640000  )
         4           Cr  tau(   4) = (   0.6360000   0.6360000   0.6360000  )
         5           Si  tau(   5) = (   0.1540000   0.6540000   0.8460000  )
         6           Si  tau(   6) = (   0.6540000   0.8460000   0.1540000  )
         7           Si  tau(   7) = (   0.8460000   0.1540000   0.6540000  )
         8           Si  tau(   8) = (   0.3460000   0.3460000   0.3460000  )

   Crystallographic axes

     site n.     atom                  positions (cryst. coord.)
         1           Cr  tau(   1) = (  0.8640000  0.3640000  0.1360000  )
         2           Cr  tau(   2) = (  0.3640000  0.1360000  0.8640000  )
         3           Cr  tau(   3) = (  0.1360000  0.8640000  0.3640000  )
         4           Cr  tau(   4) = (  0.6360000  0.6360000  0.6360000  )
         5           Si  tau(   5) = (  0.1540000  0.6540000  0.8460000  )
         6           Si  tau(   6) = (  0.6540000  0.8460000  0.1540000  )
         7           Si  tau(   7) = (  0.8460000  0.1540000  0.6540000  )
         8           Si  tau(   8) = (  0.3460000  0.3460000  0.3460000  )

     number of k points=    45  Methfessel-Paxton smearing, width (Ry)=  0.0200
                       cart. coord. in units 2pi/alat
        k(    1) = (   0.0000000   0.0000000   0.0000000), wk =   0.0019531
        k(    2) = (   0.0000000   0.0000000   0.1250000), wk =   0.0117188
        k(    3) = (   0.0000000   0.0000000   0.2500000), wk =   0.0117188
        k(    4) = (   0.0000000   0.0000000   0.3750000), wk =   0.0117188
        k(    5) = (   0.0000000   0.0000000  -0.5000000), wk =   0.0058594
        k(    6) = (   0.0000000   0.1250000   0.1250000), wk =   0.0234375
        k(    7) = (   0.0000000   0.1250000   0.2500000), wk =   0.0234375
        k(    8) = (   0.0000000   0.1250000   0.3750000), wk =   0.0234375
        k(    9) = (   0.0000000   0.1250000  -0.5000000), wk =   0.0117188
        k(   10) = (   0.0000000   0.2500000   0.2500000), wk =   0.0234375
        k(   11) = (   0.0000000   0.2500000   0.3750000), wk =   0.0234375
        k(   12) = (   0.0000000   0.2500000  -0.5000000), wk =   0.0117188
        k(   13) = (   0.0000000   0.3750000   0.3750000), wk =   0.0234375
        k(   14) = (   0.0000000   0.3750000  -0.5000000), wk =   0.0117188
        k(   15) = (   0.0000000  -0.5000000  -0.5000000), wk =   0.0058594
        k(   16) = (   0.1250000   0.1250000   0.1250000), wk =   0.0156250
        k(   17) = (   0.1250000   0.1250000   0.2500000), wk =   0.0468750
        k(   18) = (   0.1250000   0.1250000   0.3750000), wk =   0.0468750
        k(   19) = (   0.1250000   0.1250000  -0.5000000), wk =   0.0234375
        k(   20) = (   0.1250000   0.2500000   0.2500000), wk =   0.0468750
        k(   21) = (   0.1250000   0.2500000   0.3750000), wk =   0.0468750
        k(   22) = (   0.1250000   0.2500000  -0.5000000), wk =   0.0234375
        k(   23) = (   0.1250000   0.3750000   0.3750000), wk =   0.0468750
        k(   24) = (   0.1250000   0.3750000  -0.5000000), wk =   0.0234375
        k(   25) = (   0.1250000  -0.5000000  -0.5000000), wk =   0.0117188
        k(   26) = (   0.2500000   0.2500000   0.2500000), wk =   0.0156250
        k(   27) = (   0.2500000   0.2500000   0.3750000), wk =   0.0468750
        k(   28) = (   0.2500000   0.2500000  -0.5000000), wk =   0.0234375
        k(   29) = (   0.2500000   0.3750000   0.3750000), wk =   0.0468750
        k(   30) = (   0.2500000   0.3750000  -0.5000000), wk =   0.0234375
        k(   31) = (   0.2500000  -0.5000000  -0.5000000), wk =   0.0117188
        k(   32) = (   0.3750000   0.3750000   0.3750000), wk =   0.0156250
        k(   33) = (   0.3750000   0.3750000  -0.5000000), wk =   0.0234375
        k(   34) = (   0.3750000  -0.5000000  -0.5000000), wk =   0.0117188
        k(   35) = (  -0.5000000  -0.5000000  -0.5000000), wk =   0.0019531
        k(   36) = (   0.0000000   0.2500000   0.1250000), wk =   0.0234375
        k(   37) = (   0.0000000   0.3750000   0.1250000), wk =   0.0234375
        k(   38) = (   0.0000000  -0.5000000   0.1250000), wk =   0.0117188
        k(   39) = (   0.0000000   0.3750000   0.2500000), wk =   0.0234375
        k(   40) = (   0.0000000  -0.5000000   0.2500000), wk =   0.0117188
        k(   41) = (   0.0000000  -0.5000000   0.3750000), wk =   0.0117188
        k(   42) = (  -0.1250000   0.3750000   0.2500000), wk =   0.0468750
        k(   43) = (  -0.1250000  -0.5000000   0.2500000), wk =   0.0234375
        k(   44) = (  -0.1250000  -0.5000000   0.3750000), wk =   0.0234375
        k(   45) = (  -0.2500000  -0.5000000   0.3750000), wk =   0.0234375

                       cryst. coord.
        k(    1) = (   0.0000000   0.0000000   0.0000000), wk =   0.0019531
        k(    2) = (   0.0000000   0.0000000   0.1250000), wk =   0.0117188
        k(    3) = (   0.0000000   0.0000000   0.2500000), wk =   0.0117188
        k(    4) = (   0.0000000   0.0000000   0.3750000), wk =   0.0117188
        k(    5) = (   0.0000000   0.0000000  -0.5000000), wk =   0.0058594
        k(    6) = (   0.0000000   0.1250000   0.1250000), wk =   0.0234375
        k(    7) = (   0.0000000   0.1250000   0.2500000), wk =   0.0234375
        k(    8) = (   0.0000000   0.1250000   0.3750000), wk =   0.0234375
        k(    9) = (   0.0000000   0.1250000  -0.5000000), wk =   0.0117188
        k(   10) = (   0.0000000   0.2500000   0.2500000), wk =   0.0234375
        k(   11) = (   0.0000000   0.2500000   0.3750000), wk =   0.0234375
        k(   12) = (   0.0000000   0.2500000  -0.5000000), wk =   0.0117188
        k(   13) = (   0.0000000   0.3750000   0.3750000), wk =   0.0234375
        k(   14) = (   0.0000000   0.3750000  -0.5000000), wk =   0.0117188
        k(   15) = (   0.0000000  -0.5000000  -0.5000000), wk =   0.0058594
        k(   16) = (   0.1250000   0.1250000   0.1250000), wk =   0.0156250
        k(   17) = (   0.1250000   0.1250000   0.2500000), wk =   0.0468750
        k(   18) = (   0.1250000   0.1250000   0.3750000), wk =   0.0468750
        k(   19) = (   0.1250000   0.1250000  -0.5000000), wk =   0.0234375
        k(   20) = (   0.1250000   0.2500000   0.2500000), wk =   0.0468750
        k(   21) = (   0.1250000   0.2500000   0.3750000), wk =   0.0468750
        k(   22) = (   0.1250000   0.2500000  -0.5000000), wk =   0.0234375
        k(   23) = (   0.1250000   0.3750000   0.3750000), wk =   0.0468750
        k(   24) = (   0.1250000   0.3750000  -0.5000000), wk =   0.0234375
        k(   25) = (   0.1250000  -0.5000000  -0.5000000), wk =   0.0117188
        k(   26) = (   0.2500000   0.2500000   0.2500000), wk =   0.0156250
        k(   27) = (   0.2500000   0.2500000   0.3750000), wk =   0.0468750
        k(   28) = (   0.2500000   0.2500000  -0.5000000), wk =   0.0234375
        k(   29) = (   0.2500000   0.3750000   0.3750000), wk =   0.0468750
        k(   30) = (   0.2500000   0.3750000  -0.5000000), wk =   0.0234375
        k(   31) = (   0.2500000  -0.5000000  -0.5000000), wk =   0.0117188
        k(   32) = (   0.3750000   0.3750000   0.3750000), wk =   0.0156250
        k(   33) = (   0.3750000   0.3750000  -0.5000000), wk =   0.0234375
        k(   34) = (   0.3750000  -0.5000000  -0.5000000), wk =   0.0117188
        k(   35) = (  -0.5000000  -0.5000000  -0.5000000), wk =   0.0019531
        k(   36) = (   0.0000000   0.2500000   0.1250000), wk =   0.0234375
        k(   37) = (   0.0000000   0.3750000   0.1250000), wk =   0.0234375
        k(   38) = (   0.0000000  -0.5000000   0.1250000), wk =   0.0117188
        k(   39) = (   0.0000000   0.3750000   0.2500000), wk =   0.0234375
        k(   40) = (   0.0000000  -0.5000000   0.2500000), wk =   0.0117188
        k(   41) = (   0.0000000  -0.5000000   0.3750000), wk =   0.0117188
        k(   42) = (  -0.1250000   0.3750000   0.2500000), wk =   0.0468750
        k(   43) = (  -0.1250000  -0.5000000   0.2500000), wk =   0.0234375
        k(   44) = (  -0.1250000  -0.5000000   0.3750000), wk =   0.0234375
        k(   45) = (  -0.2500000  -0.5000000   0.3750000), wk =   0.0234375

     Dense  grid:   357597 G-vectors     FFT dimensions: (  90,  90,  90)

     Smooth grid:    90447 G-vectors     FFT dimensions: (  60,  60,  60)

     Dynamical RAM for                 wfc:       1.23 MB

     Dynamical RAM for     wfc (w. buffer):      56.74 MB

     Dynamical RAM for           str. fact:       0.45 MB

     Dynamical RAM for           local pot:       0.00 MB

     Dynamical RAM for          nlocal pot:       1.95 MB

     Dynamical RAM for                qrad:      13.29 MB

     Dynamical RAM for          rho,v,vnew:       5.69 MB

     Dynamical RAM for               rhoin:       1.90 MB

     Dynamical RAM for            rho*nmix:      14.55 MB

     Dynamical RAM for           G-vectors:       0.88 MB

     Dynamical RAM for          h,s,v(r/c):       1.35 MB

     Dynamical RAM for          <psi|beta>:       0.71 MB

     Dynamical RAM for                 psi:       2.47 MB

     Dynamical RAM for                hpsi:       2.47 MB

     Dynamical RAM for                spsi:       2.47 MB

     Dynamical RAM for      wfcinit/wfcrot:       2.70 MB

     Dynamical RAM for           addusdens:     139.59 MB

     Estimated static dynamical RAM per process >      98.12 MB

     Estimated max dynamical RAM per process >     237.70 MB

     Estimated total dynamical RAM >       5.57 GB

     Initial potential from superposition of free atoms

     starting charge   71.99469, renormalised to   72.00000
     Starting wfcs are  112 randomized atomic wfcs
     Checking if some PAW data can be deallocated... 
       PAW data deallocated on   12 nodes for type:  1
       PAW data deallocated on   12 nodes for type:  2

     total cpu time spent up to now is       10.2 secs

     Self-consistent Calculation

     iteration #  1     ecut=   100.00 Ry     beta= 0.70
     Davidson diagonalization with overlap
     ethr =  1.00E-02,  avg # of iterations =  2.0

     Threshold (ethr) on eigenvalues was too large:
     Diagonalizing with lowered threshold

     Davidson diagonalization with overlap
     ethr =  2.09E-04,  avg # of iterations =  4.3

     total cpu time spent up to now is       52.4 secs

     total energy              =   -1180.31034257 Ry
     estimated scf accuracy    <       0.18921712 Ry

     iteration #  2     ecut=   100.00 Ry     beta= 0.70
     Davidson diagonalization with overlap
     ethr =  2.63E-04,  avg # of iterations =  3.2

     total cpu time spent up to now is       74.2 secs

     total energy              =   -1180.31521158 Ry
     estimated scf accuracy    <       0.08176563 Ry

     iteration #  3     ecut=   100.00 Ry     beta= 0.70
     Davidson diagonalization with overlap
     ethr =  1.14E-04,  avg # of iterations =  5.0

     total cpu time spent up to now is      100.5 secs

     total energy              =   -1180.32653333 Ry
     estimated scf accuracy    <       0.16218094 Ry

     iteration #  4     ecut=   100.00 Ry     beta= 0.70
     Davidson diagonalization with overlap
     ethr =  1.14E-04,  avg # of iterations =  4.1

     total cpu time spent up to now is      121.8 secs

     total energy              =   -1180.35046348 Ry
     estimated scf accuracy    <       0.00035697 Ry

     iteration #  5     ecut=   100.00 Ry     beta= 0.70
     Davidson diagonalization with overlap
     ethr =  4.96E-07,  avg # of iterations =  8.0

     total cpu time spent up to now is      154.2 secs

     total energy              =   -1180.35106863 Ry
     estimated scf accuracy    <       0.00029887 Ry

     iteration #  6     ecut=   100.00 Ry     beta= 0.70
     Davidson diagonalization with overlap
     ethr =  4.15E-07,  avg # of iterations =  3.0

     total cpu time spent up to now is      173.1 secs

     total energy              =   -1180.35112073 Ry
     estimated scf accuracy    <       0.00000210 Ry

     iteration #  7     ecut=   100.00 Ry     beta= 0.70
     Davidson diagonalization with overlap
     ethr =  2.91E-09,  avg # of iterations =  8.2

     total cpu time spent up to now is      207.8 secs

     total energy              =   -1180.35112212 Ry
     estimated scf accuracy    <       0.00003206 Ry

     iteration #  8     ecut=   100.00 Ry     beta= 0.70
     Davidson diagonalization with overlap
     ethr =  2.91E-09,  avg # of iterations =  5.3

     total cpu time spent up to now is      235.9 secs

     End of self-consistent calculation

          k = 0.0000 0.0000 0.0000 ( 11123 PWs)   bands (ev):

   -56.5151 -56.5151 -56.4804 -56.4804 -56.4804 -56.4804 -56.4804 -56.4804
   -28.5807 -28.5807 -28.5732 -28.5732 -28.5732 -28.5732 -28.4839 -28.4839
   -27.6151 -27.6151 -27.6151 -27.6151 -27.5385 -27.5385 -27.5385 -27.5385
   -27.5336 -27.5336 -27.4511 -27.4511 -27.4509 -27.4509 -27.4509 -27.4509
     2.6985   2.6985   7.4568   7.4568   7.4568   7.4568   7.4659   7.4659
    10.5369  10.5369  10.5448  10.5448  10.5448  10.5448  11.9111  11.9111
    11.9111  11.9111  11.9222  11.9222  12.6021  12.6021  12.7719  12.7719
    12.7719  12.7719  13.1438  13.1438  13.1438  13.1438  13.1449  13.1449
    13.6719  13.6719  13.6719  13.6719  13.6757  13.6757  15.5516  15.5516
    15.5829  15.5829  15.5829  15.5829  15.7662  15.7662  15.7662  15.7662
    16.6650  16.6650  16.6953  16.6953  16.6953  16.6953

     occupation numbers 
     1.0000   1.0000   1.0000   1.0000   1.0000   1.0000   1.0000   1.0000
     1.0000   1.0000   1.0000   1.0000   1.0000   1.0000   1.0000   1.0000
     1.0000   1.0000   1.0000   1.0000   1.0000   1.0000   1.0000   1.0000
     1.0000   1.0000   1.0000   1.0000   1.0000   1.0000   1.0000   1.0000
     1.0000   1.0000   1.0000   1.0000   1.0000   1.0000   1.0000   1.0000
     1.0000   1.0000   1.0000   1.0000   1.0000   1.0000   1.0000   1.0000
     1.0000   1.0000   1.0000   1.0000   1.0000   1.0000   1.0000   1.0000
     1.0000   1.0000   1.0000   1.0000   1.0000   1.0000   1.0000   1.0000
     1.0000   1.0000   1.0000   1.0000   1.0000   1.0000  -0.0040  -0.0040
    -0.0026  -0.0026  -0.0026  -0.0026  -0.0001  -0.0001  -0.0001  -0.0001
    -0.0000  -0.0000  -0.0000  -0.0000  -0.0000  -0.0000

          k = 0.0000 0.0000 0.1250 ( 11268 PWs)   bands (ev):

   -56.5141 -56.5141 -56.4845 -56.4845 -56.4801 -56.4801 -56.4777 -56.4777
   -28.5869 -28.5799 -28.5768 -28.5763 -28.5665 -28.5633 -28.4867 -28.4867
   -27.6284 -27.6218 -27.6058 -27.5993 -27.5477 -27.5441 -27.5407 -27.5330
   -27.5313 -27.5212 -27.4589 -27.4569 -27.4547 -27.4496 -27.4487 -27.4447
     2.8069   2.8069   6.7951   6.7984   7.5179   7.5193   7.9726   7.9813
    10.0751  10.0802  10.6133  10.6150  11.0391  11.0409  11.3199  11.3200
    11.6500  11.6539  12.5292  12.5358  12.5608  12.5790  12.7792  12.7864
    12.9229  12.9241  13.1142  13.1162  13.1786  13.1790  13.2094  13.2098
    13.5221  13.5297  13.6534  13.6549  13.8999  13.9001  15.3978  15.4160
    15.4449  15.4545  15.7230  15.7263  15.7396  15.7539  15.7660  15.7714
    16.4735  16.4905  16.6334  16.6382  16.8955  16.9160

     occupation numbers 
     1.0000   1.0000   1.0000   1.0000   1.0000   1.0000   1.0000   1.0000
     1.0000   1.0000   1.0000   1.0000   1.0000   1.0000   1.0000   1.0000
     1.0000   1.0000   1.0000   1.0000   1.0000   1.0000   1.0000   1.0000
     1.0000   1.0000   1.0000   1.0000   1.0000   1.0000   1.0000   1.0000
     1.0000   1.0000   1.0000   1.0000   1.0000   1.0000   1.0000   1.0000
     1.0000   1.0000   1.0000   1.0000   1.0000   1.0000   1.0000   1.0000
     1.0000   1.0000   1.0000   1.0000   1.0000   1.0000   1.0000   1.0000
     1.0000   1.0000   1.0000   1.0000   1.0000   1.0000   1.0000   1.0000
     1.0000   1.0000   1.0000   1.0000   1.0000   1.0000  -0.0217  -0.0187
    -0.0143  -0.0130  -0.0002  -0.0002  -0.0002  -0.0001  -0.0001  -0.0001
    -0.0000  -0.0000  -0.0000  -0.0000  -0.0000  -0.0000

          k = 0.0000 0.0000 0.2500 ( 11288 PWs)   bands (ev):

   -56.5112 -56.5112 -56.4896 -56.4896 -56.4792 -56.4792 -56.4764 -56.4764
   -28.5904 -28.5835 -28.5802 -28.5777 -28.5538 -28.5508 -28.4949 -28.4947
   -27.6369 -27.6278 -27.5931 -27.5857 -27.5575 -27.5458 -27.5379 -27.5333
   -27.5277 -27.5069 -27.4691 -27.4629 -27.4607 -27.4505 -27.4483 -27.4417
     3.1270   3.1270   5.9917   5.9932   7.6894   7.6924   8.3701   8.3801
     9.7440   9.7453  10.7559  10.7611  10.8656  10.8743  11.1950  11.2023
    11.5682  11.5689  12.2652  12.2801  12.8659  12.8725  12.9121  12.9340
    13.1209  13.1248  13.1293  13.1344  13.2513  13.2519  13.2820  13.2860
    13.5440  13.5473  13.6977  13.7052  14.0464  14.0470  15.0726  15.1013
    15.3803  15.3808  15.6173  15.6326  15.7398  15.7640  15.8514  15.8753
    16.2850  16.2997  16.4930  16.5045  17.1868  17.2072

     occupation numbers 
     1.0000   1.0000   1.0000   1.0000   1.0000   1.0000   1.0000   1.0000
     1.0000   1.0000   1.0000   1.0000   1.0000   1.0000   1.0000   1.0000
     1.0000   1.0000   1.0000   1.0000   1.0000   1.0000   1.0000   1.0000
     1.0000   1.0000   1.0000   1.0000   1.0000   1.0000   1.0000   1.0000
     1.0000   1.0000   1.0000   1.0000   1.0000   1.0000   1.0000   1.0000
     1.0000   1.0000   1.0000   1.0000   1.0000   1.0000   1.0000   1.0000
     1.0000   1.0000   1.0000   1.0000   1.0000   1.0000   1.0000   1.0000
     1.0000   1.0000   1.0000   1.0000   1.0000   1.0000   1.0000   1.0000
     1.0000   1.0000   1.0000   1.0000   1.0000   1.0000   0.1675   0.1085
    -0.0247  -0.0246  -0.0015  -0.0012  -0.0002  -0.0001  -0.0000  -0.0000
    -0.0000  -0.0000  -0.0000  -0.0000  -0.0000  -0.0000

          k = 0.0000 0.0000 0.3750 ( 11304 PWs)   bands (ev):

   -56.5068 -56.5068 -56.4954 -56.4954 -56.4780 -56.4780 -56.4762 -56.4762
   -28.5908 -28.5846 -28.5842 -28.5803 -28.5386 -28.5363 -28.5074 -28.5067
   -27.6401 -27.6337 -27.5799 -27.5750 -27.5661 -27.5427 -27.5422 -27.5294
   -27.5239 -27.4926 -27.4851 -27.4690 -27.4623 -27.4535 -27.4470 -27.4419
     3.6436   3.6436   5.1355   5.1361   7.9591   7.9637   8.5101   8.5190
     9.6767   9.6795  10.5119  10.5125  10.7722  10.7853  11.0297  11.0315
    12.0049  12.0071  12.1206  12.1353  12.7683  12.7837  12.9433  12.9561
    13.0795  13.0870  13.1860  13.1900  13.2456  13.2488  13.3253  13.3288
    13.5399  13.5404  13.9315  13.9359  14.2195  14.2329  14.8120  14.8469
    15.3573  15.3689  15.4971  15.5162  15.7540  15.7835  15.8463  15.8715
    16.1646  16.1805  16.3077  16.3216  17.3495  17.3608

     occupation numbers 
     1.0000   1.0000   1.0000   1.0000   1.0000   1.0000   1.0000   1.0000
     1.0000   1.0000   1.0000   1.0000   1.0000   1.0000   1.0000   1.0000
     1.0000   1.0000   1.0000   1.0000   1.0000   1.0000   1.0000   1.0000
     1.0000   1.0000   1.0000   1.0000   1.0000   1.0000   1.0000   1.0000
     1.0000   1.0000   1.0000   1.0000   1.0000   1.0000   1.0000   1.0000
     1.0000   1.0000   1.0000   1.0000   1.0000   1.0000   1.0000   1.0000
     1.0000   1.0000   1.0000   1.0000   1.0000   1.0000   1.0000   1.0000
     1.0000   1.0000   1.0000   1.0000   1.0000   1.0000   1.0000   1.0000
     1.0000   1.0000   1.0000   1.0000   1.0005   1.0006   0.8823   0.8067
    -0.0285  -0.0266  -0.0081  -0.0064  -0.0001  -0.0001  -0.0000  -0.0000
    -0.0000  -0.0000  -0.0000  -0.0000  -0.0000  -0.0000

          k = 0.0000 0.0000-0.5000 ( 11316 PWs)   bands (ev):

   -56.5013 -56.5013 -56.5013 -56.5013 -56.4769 -56.4769 -56.4769 -56.4769
   -28.5885 -28.5885 -28.5828 -28.5828 -28.5225 -28.5225 -28.5211 -28.5211
   -27.6385 -27.6385 -27.5732 -27.5732 -27.5583 -27.5583 -27.5354 -27.5354
   -27.5044 -27.5044 -27.4797 -27.4797 -27.4580 -27.4580 -27.4444 -27.4444
     4.3285   4.3285   4.3287   4.3287   8.2825   8.2825   8.2889   8.2889
    10.0167  10.0167  10.0207  10.0207  10.8980  10.8980  10.9092  10.9092
    12.2471  12.2471  12.2536  12.2536  12.6854  12.6854  12.6979  12.6979
    13.1419  13.1419  13.1423  13.1423  13.2373  13.2373  13.2409  13.2409
    13.7825  13.7825  13.7856  13.7856  14.5649  14.5649  14.5934  14.5934
    15.4015  15.4015  15.4193  15.4193  15.8061  15.8061  15.8358  15.8358
    16.1655  16.1655  16.1792  16.1792  17.5429  17.5437

     occupation numbers 
     1.0000   1.0000   1.0000   1.0000   1.0000   1.0000   1.0000   1.0000
     1.0000   1.0000   1.0000   1.0000   1.0000   1.0000   1.0000   1.0000
     1.0000   1.0000   1.0000   1.0000   1.0000   1.0000   1.0000   1.0000
     1.0000   1.0000   1.0000   1.0000   1.0000   1.0000   1.0000   1.0000
     1.0000   1.0000   1.0000   1.0000   1.0000   1.0000   1.0000   1.0000
     1.0000   1.0000   1.0000   1.0000   1.0000   1.0000   1.0000   1.0000
     1.0000   1.0000   1.0000   1.0000   1.0000   1.0000   1.0000   1.0000
     1.0000   1.0000   1.0000   1.0000   1.0000   1.0000   1.0000   1.0000
     1.0000   1.0000   1.0000   1.0000   1.0306   1.0306   1.0341   1.0341
    -0.0211  -0.0211  -0.0182  -0.0182  -0.0000  -0.0000  -0.0000  -0.0000
    -0.0000  -0.0000  -0.0000  -0.0000  -0.0000  -0.0000

          k = 0.0000 0.1250 0.1250 ( 11301 PWs)   bands (ev):

   -56.5132 -56.5132 -56.4859 -56.4859 -56.4804 -56.4804 -56.4769 -56.4769
   -28.5889 -28.5827 -28.5755 -28.5749 -28.5636 -28.5597 -28.4895 -28.4895
   -27.6302 -27.6264 -27.5988 -27.5948 -27.5501 -27.5458 -27.5430 -27.5372
   -27.5247 -27.5147 -27.4638 -27.4624 -27.4562 -27.4504 -27.4458 -27.4422
     2.9144   2.9145   6.6452   6.6501   7.3152   7.3191   8.2192   8.2251
     9.9475   9.9524  10.6667  10.6727  10.8538  10.8584  11.2388  11.2420
    11.8043  11.8054  12.4434  12.4545  12.5939  12.6017  12.9023  12.9085
    13.0099  13.0192  13.1608  13.1618  13.1659  13.1707  13.2675  13.2693
    13.4645  13.4708  13.6780  13.6894  13.9947  14.0001  15.3451  15.3575
    15.3929  15.4022  15.6247  15.6341  15.7245  15.7408  15.7936  15.8150
    16.3733  16.3916  16.6459  16.6533  16.9378  16.9671

     occupation numbers 
     1.0000   1.0000   1.0000   1.0000   1.0000   1.0000   1.0000   1.0000
     1.0000   1.0000   1.0000   1.0000   1.0000   1.0000   1.0000   1.0000
     1.0000   1.0000   1.0000   1.0000   1.0000   1.0000   1.0000   1.0000
     1.0000   1.0000   1.0000   1.0000   1.0000   1.0000   1.0000   1.0000
     1.0000   1.0000   1.0000   1.0000   1.0000   1.0000   1.0000   1.0000
     1.0000   1.0000   1.0000   1.0000   1.0000   1.0000   1.0000   1.0000
     1.0000   1.0000   1.0000   1.0000   1.0000   1.0000   1.0000   1.0000
     1.0000   1.0000   1.0000   1.0000   1.0000   1.0000   1.0000   1.0000
     1.0000   1.0000   1.0000   1.0000   1.0000   1.0000  -0.0304  -0.0285
    -0.0225  -0.0209  -0.0014  -0.0012  -0.0002  -0.0002  -0.0001  -0.0000
    -0.0000  -0.0000  -0.0000  -0.0000  -0.0000  -0.0000

          k = 0.0000 0.1250 0.2500 ( 11300 PWs)   bands (ev):

   -56.5104 -56.5104 -56.4900 -56.4900 -56.4799 -56.4799 -56.4762 -56.4762
   -28.5907 -28.5848 -28.5775 -28.5761 -28.5533 -28.5501 -28.4974 -28.4973
   -27.6356 -27.6290 -27.5893 -27.5839 -27.5569 -27.5479 -27.5418 -27.5372
   -27.5222 -27.5024 -27.4756 -27.4673 -27.4608 -27.4528 -27.4435 -27.4388
     3.2322   3.2323   6.0264   6.0289   7.3760   7.3787   8.4794   8.4845
     9.7444   9.7459  10.4120  10.4157  10.8571  10.8580  11.4944  11.4997
    11.5880  11.5895  12.3107  12.3205  12.6383  12.6409  13.0347  13.0422
    13.0737  13.0851  13.2034  13.2094  13.2811  13.2824  13.3807  13.3848
    13.5204  13.5268  13.8046  13.8199  14.1006  14.1078  15.0887  15.1157
    15.2980  15.3130  15.5080  15.5226  15.6900  15.7120  15.8390  15.8646
    16.2233  16.2385  16.5269  16.5392  17.1514  17.1851

     occupation numbers 
     1.0000   1.0000   1.0000   1.0000   1.0000   1.0000   1.0000   1.0000
     1.0000   1.0000   1.0000   1.0000   1.0000   1.0000   1.0000   1.0000
     1.0000   1.0000   1.0000   1.0000   1.0000   1.0000   1.0000   1.0000
     1.0000   1.0000   1.0000   1.0000   1.0000   1.0000   1.0000   1.0000
     1.0000   1.0000   1.0000   1.0000   1.0000   1.0000   1.0000   1.0000
     1.0000   1.0000   1.0000   1.0000   1.0000   1.0000   1.0000   1.0000
     1.0000   1.0000   1.0000   1.0000   1.0000   1.0000   1.0000   1.0000
     1.0000   1.0000   1.0000   1.0000   1.0000   1.0000   1.0000   1.0000
     1.0000   1.0000   1.0000   1.0000   1.0000   1.0000   0.1332   0.0830
    -0.0352  -0.0343  -0.0071  -0.0059  -0.0004  -0.0003  -0.0000  -0.0000
    -0.0000  -0.0000  -0.0000  -0.0000  -0.0000  -0.0000

          k = 0.0000 0.1250 0.3750 ( 11279 PWs)   bands (ev):

   -56.5061 -56.5061 -56.4952 -56.4952 -56.4787 -56.4787 -56.4764 -56.4764
   -28.5900 -28.5850 -28.5815 -28.5787 -28.5393 -28.5371 -28.5095 -28.5089
   -27.6377 -27.6324 -27.5795 -27.5733 -27.5654 -27.5475 -27.5417 -27.5296
   -27.5247 -27.4928 -27.4879 -27.4705 -27.4640 -27.4571 -27.4414 -27.4381
     3.7444   3.7446   5.2135   5.2145   7.6677   7.6696   8.4241   8.4279
     9.7358   9.7391  10.2157  10.2198  11.0144  11.0204  11.1796  11.1935
    11.8664  11.8717  12.1813  12.1909  12.6389  12.6455  12.8669  12.8768
    13.0656  13.0719  13.2714  13.2761  13.3349  13.3368  13.4474  13.4503
    13.6018  13.6087  13.9677  13.9745  14.2901  14.3073  14.8243  14.8579
    15.2797  15.2956  15.3802  15.3927  15.6939  15.7201  15.8261  15.8555
    16.1469  16.1555  16.3585  16.3720  17.3035  17.3271

     occupation numbers 
     1.0000   1.0000   1.0000   1.0000   1.0000   1.0000   1.0000   1.0000
     1.0000   1.0000   1.0000   1.0000   1.0000   1.0000   1.0000   1.0000
     1.0000   1.0000   1.0000   1.0000   1.0000   1.0000   1.0000   1.0000
     1.0000   1.0000   1.0000   1.0000   1.0000   1.0000   1.0000   1.0000
     1.0000   1.0000   1.0000   1.0000   1.0000   1.0000   1.0000   1.0000
     1.0000   1.0000   1.0000   1.0000   1.0000   1.0000   1.0000   1.0000
     1.0000   1.0000   1.0000   1.0000   1.0000   1.0000   1.0000   1.0000
     1.0000   1.0000   1.0000   1.0000   1.0000   1.0000   1.0000   1.0000
     1.0000   1.0000   1.0000   1.0000   1.0015   1.0020   0.8575   0.7797
    -0.0353  -0.0353  -0.0247  -0.0225  -0.0004  -0.0003  -0.0000  -0.0000
    -0.0000  -0.0000  -0.0000  -0.0000  -0.0000  -0.0000

          k = 0.0000 0.1250-0.5000 ( 11312 PWs)   bands (ev):

   -56.5009 -56.5009 -56.5009 -56.5009 -56.4773 -56.4773 -56.4773 -56.4773
   -28.5872 -28.5872 -28.5816 -28.5816 -28.5245 -28.5245 -28.5223 -28.5223
   -27.6361 -27.6361 -27.5729 -27.5729 -27.5590 -27.5590 -27.5351 -27.5351
   -27.5095 -27.5095 -27.4781 -27.4781 -27.4616 -27.4616 -27.4394 -27.4394
     4.4217   4.4217   4.4222   4.4222   8.0585   8.0585   8.0654   8.0654
     9.9958   9.9958  10.0001  10.0001  11.0364  11.0364  11.0505  11.0505
    12.1471  12.1471  12.1525  12.1525  12.5979  12.5979  12.6142  12.6142
    13.2271  13.2271  13.2296  13.2296  13.3327  13.3327  13.3340  13.3340
    13.8293  13.8293  13.8329  13.8329  14.5982  14.5982  14.6286  14.6286
    15.3028  15.3028  15.3187  15.3187  15.7572  15.7572  15.7869  15.7869
    16.2048  16.2048  16.2158  16.2158  17.5192  17.5286

     occupation numbers 
     1.0000   1.0000   1.0000   1.0000   1.0000   1.0000   1.0000   1.0000
     1.0000   1.0000   1.0000   1.0000   1.0000   1.0000   1.0000   1.0000
     1.0000   1.0000   1.0000   1.0000   1.0000   1.0000   1.0000   1.0000
     1.0000   1.0000   1.0000   1.0000   1.0000   1.0000   1.0000   1.0000
     1.0000   1.0000   1.0000   1.0000   1.0000   1.0000   1.0000   1.0000
     1.0000   1.0000   1.0000   1.0000   1.0000   1.0000   1.0000   1.0000
     1.0000   1.0000   1.0000   1.0000   1.0000   1.0000   1.0000   1.0000
     1.0000   1.0000   1.0000   1.0000   1.0000   1.0000   1.0000   1.0000
     1.0000   1.0000   1.0000   1.0000   1.0345   1.0345   1.0353   1.0353
    -0.0350  -0.0350  -0.0337  -0.0337  -0.0001  -0.0001  -0.0001  -0.0001
    -0.0000  -0.0000  -0.0000  -0.0000  -0.0000  -0.0000

          k = 0.0000 0.2500 0.2500 ( 11318 PWs)   bands (ev):

   -56.5079 -56.5079 -56.4917 -56.4917 -56.4805 -56.4805 -56.4763 -56.4763
   -28.5900 -28.5850 -28.5753 -28.5745 -28.5498 -28.5465 -28.5047 -28.5043
   -27.6330 -27.6298 -27.5822 -27.5799 -27.5563 -27.5532 -27.5438 -27.5389
   -27.5189 -27.4967 -27.4856 -27.4753 -27.4662 -27.4491 -27.4395 -27.4354
     3.5425   3.5427   5.9650   5.9683   6.9410   6.9450   8.4363   8.4413
     9.7514   9.7546  10.1862  10.1913  10.9261  10.9286  11.3504  11.3515
    11.8596  11.8634  12.2861  12.2896  12.5056  12.5148  12.9041  12.9117
    13.1481  13.1574  13.2703  13.2798  13.4420  13.4434  13.5198  13.5291
    13.5705  13.5811  13.9844  13.9967  14.2195  14.2251  15.0458  15.0662
    15.1398  15.1645  15.2946  15.3061  15.6161  15.6412  15.7630  15.7918
    16.1592  16.1702  16.5118  16.5225  17.1849  17.2278

     occupation numbers 
     1.0000   1.0000   1.0000   1.0000   1.0000   1.0000   1.0000   1.0000
     1.0000   1.0000   1.0000   1.0000   1.0000   1.0000   1.0000   1.0000
     1.0000   1.0000   1.0000   1.0000   1.0000   1.0000   1.0000   1.0000
     1.0000   1.0000   1.0000   1.0000   1.0000   1.0000   1.0000   1.0000
     1.0000   1.0000   1.0000   1.0000   1.0000   1.0000   1.0000   1.0000
     1.0000   1.0000   1.0000   1.0000   1.0000   1.0000   1.0000   1.0000
     1.0000   1.0000   1.0000   1.0000   1.0000   1.0000   1.0000   1.0000
     1.0000   1.0000   1.0000   1.0000   1.0000   1.0000   1.0000   1.0000
     1.0000   1.0000   1.0000   1.0000   1.0005   1.0005   0.2322   0.1822
     0.0466   0.0172  -0.0354  -0.0348  -0.0016  -0.0010  -0.0001  -0.0001
    -0.0000  -0.0000  -0.0000  -0.0000  -0.0000  -0.0000

          k = 0.0000 0.2500 0.3750 ( 11295 PWs)   bands (ev):

   -56.5041 -56.5041 -56.4952 -56.4952 -56.4799 -56.4799 -56.4772 -56.4772
   -28.5874 -28.5832 -28.5775 -28.5756 -28.5405 -28.5385 -28.5153 -28.5149
   -27.6312 -27.6284 -27.5810 -27.5738 -27.5616 -27.5512 -27.5411 -27.5329
   -27.5232 -27.5008 -27.4928 -27.4823 -27.4622 -27.4496 -27.4365 -27.4338
     4.0406   4.0411   5.4170   5.4189   7.0447   7.0478   8.0208   8.0242
     9.9167   9.9201  10.1869  10.1902  11.0283  11.0322  11.3804  11.3879
    11.8893  11.8913  12.0248  12.0291  12.4329  12.4439  12.6524  12.6624
    13.2351  13.2445  13.3298  13.3351  13.4393  13.4431  13.6537  13.6566
    13.7893  13.7928  14.0661  14.0757  14.4533  14.4786  14.8299  14.8568
    15.0718  15.0932  15.1480  15.1533  15.5771  15.6016  15.6799  15.7120
    16.2001  16.2070  16.4538  16.4642  17.1906  17.2196

     occupation numbers 
     1.0000   1.0000   1.0000   1.0000   1.0000   1.0000   1.0000   1.0000
     1.0000   1.0000   1.0000   1.0000   1.0000   1.0000   1.0000   1.0000
     1.0000   1.0000   1.0000   1.0000   1.0000   1.0000   1.0000   1.0000
     1.0000   1.0000   1.0000   1.0000   1.0000   1.0000   1.0000   1.0000
     1.0000   1.0000   1.0000   1.0000   1.0000   1.0000   1.0000   1.0000
     1.0000   1.0000   1.0000   1.0000   1.0000   1.0000   1.0000   1.0000
     1.0000   1.0000   1.0000   1.0000   1.0000   1.0000   1.0000   1.0000
     1.0000   1.0000   1.0000   1.0000   1.0000   1.0000   1.0000   1.0000
     1.0000   1.0000   1.0000   1.0000   1.0129   1.0165   0.8455   0.7825
     0.1694   0.1242   0.0360   0.0296  -0.0028  -0.0020  -0.0005  -0.0003
    -0.0000  -0.0000  -0.0000  -0.0000  -0.0000  -0.0000

          k = 0.0000 0.2500-0.5000 ( 11338 PWs)   bands (ev):

   -56.4997 -56.4997 -56.4997 -56.4997 -56.4785 -56.4785 -56.4785 -56.4785
   -28.5836 -28.5836 -28.5784 -28.5784 -28.5291 -28.5291 -28.5260 -28.5260
   -27.6291 -27.6291 -27.5775 -27.5775 -27.5561 -27.5561 -27.5338 -27.5338
   -27.5169 -27.5169 -27.4885 -27.4885 -27.4547 -27.4547 -27.4344 -27.4344
     4.6914   4.6914   4.6925   4.6925   7.4835   7.4835   7.4896   7.4896
    10.1293  10.1293  10.1323  10.1323  11.1999  11.1999  11.2116  11.2116
    11.9551  11.9551  11.9570  11.9570  12.4185  12.4185  12.4310  12.4310
    13.3474  13.3474  13.3538  13.3538  13.5158  13.5158  13.5219  13.5219
    13.9868  13.9868  13.9924  13.9924  14.6537  14.6537  14.6842  14.6842
    15.0852  15.0852  15.0969  15.0969  15.6035  15.6035  15.6323  15.6323
    16.3323  16.3323  16.3433  16.3433  17.3592  17.3661

     occupation numbers 
     1.0000   1.0000   1.0000   1.0000   1.0000   1.0000   1.0000   1.0000
     1.0000   1.0000   1.0000   1.0000   1.0000   1.0000   1.0000   1.0000
     1.0000   1.0000   1.0000   1.0000   1.0000   1.0000   1.0000   1.0000
     1.0000   1.0000   1.0000   1.0000   1.0000   1.0000   1.0000   1.0000
     1.0000   1.0000   1.0000   1.0000   1.0000   1.0000   1.0000   1.0000
     1.0000   1.0000   1.0000   1.0000   1.0000   1.0000   1.0000   1.0000
     1.0000   1.0000   1.0000   1.0000   1.0000   1.0000   1.0000   1.0000
     1.0000   1.0000   1.0000   1.0000   1.0000   1.0000   1.0000   1.0000
     1.0000   1.0000   1.0000   1.0000   1.0328   1.0328   1.0243   1.0243
     0.1402   0.1402   0.1168   0.1168  -0.0019  -0.0019  -0.0012  -0.0012
    -0.0000  -0.0000  -0.0000  -0.0000  -0.0000  -0.0000

          k = 0.0000 0.3750 0.3750 ( 11312 PWs)   bands (ev):

   -56.5013 -56.5013 -56.4961 -56.4961 -56.4805 -56.4805 -56.4785 -56.4785
   -28.5831 -28.5799 -28.5750 -28.5742 -28.5391 -28.5374 -28.5239 -28.5230
   -27.6228 -27.6224 -27.5865 -27.5823 -27.5535 -27.5479 -27.5364 -27.5341
   -27.5246 -27.5072 -27.5051 -27.4954 -27.4526 -27.4431 -27.4351 -27.4323
     4.5096   4.5102   5.5231   5.5247   6.5727   6.5748   7.4025   7.4055
    10.2463  10.2475  10.4516  10.4528  10.9115  10.9123  11.2394  11.2425
    11.7866  11.7895  12.0557  12.0596  12.2633  12.2658  12.4682  12.4759
    13.2336  13.2412  13.3897  13.3912  13.6729  13.6734  13.8198  13.8248
    14.0548  14.0671  14.1494  14.1604  14.5563  14.5764  14.7405  14.7523
    14.8528  14.8719  14.9554  14.9786  15.4778  15.4973  15.5177  15.5449
    16.3214  16.3319  16.5102  16.5157  17.0900  17.1123

     occupation numbers 
     1.0000   1.0000   1.0000   1.0000   1.0000   1.0000   1.0000   1.0000
     1.0000   1.0000   1.0000   1.0000   1.0000   1.0000   1.0000   1.0000
     1.0000   1.0000   1.0000   1.0000   1.0000   1.0000   1.0000   1.0000
     1.0000   1.0000   1.0000   1.0000   1.0000   1.0000   1.0000   1.0000
     1.0000   1.0000   1.0000   1.0000   1.0000   1.0000   1.0000   1.0000
     1.0000   1.0000   1.0000   1.0000   1.0000   1.0000   1.0000   1.0000
     1.0000   1.0000   1.0000   1.0000   1.0000   1.0000   1.0000   1.0000
     1.0000   1.0000   1.0000   1.0000   1.0000   1.0000   1.0000   1.0000
     1.0000   1.0000   1.0001   1.0001   1.0293   1.0322   0.9863   0.9737
     0.7925   0.7435   0.4963   0.4245  -0.0101  -0.0081  -0.0063  -0.0044
    -0.0000  -0.0000  -0.0000  -0.0000  -0.0000  -0.0000

          k = 0.0000 0.3750-0.5000 ( 11296 PWs)   bands (ev):

   -56.4983 -56.4983 -56.4983 -56.4983 -56.4799 -56.4799 -56.4799 -56.4799
   -28.5787 -28.5787 -28.5752 -28.5752 -28.5335 -28.5335 -28.5310 -28.5310
   -27.6181 -27.6181 -27.5897 -27.5897 -27.5469 -27.5469 -27.5326 -27.5326
   -27.5210 -27.5210 -27.5040 -27.5040 -27.4446 -27.4446 -27.4334 -27.4334
     5.0897   5.0897   5.0911   5.0911   6.8114   6.8114   6.8155   6.8155
    10.4497  10.4497  10.4511  10.4511  11.2416  11.2416  11.2497  11.2497
    11.6406  11.6406  11.6484  11.6484  12.3095  12.3095  12.3145  12.3145
    13.3653  13.3653  13.3710  13.3710  13.7685  13.7685  13.7776  13.7776
    14.2716  14.2716  14.2744  14.2744  14.5438  14.5438  14.5547  14.5547
    14.8846  14.8846  14.9036  14.9036  15.4585  15.4585  15.4782  15.4782
    16.4917  16.4917  16.5018  16.5018  17.1152  17.1195

     occupation numbers 
     1.0000   1.0000   1.0000   1.0000   1.0000   1.0000   1.0000   1.0000
     1.0000   1.0000   1.0000   1.0000   1.0000   1.0000   1.0000   1.0000
     1.0000   1.0000   1.0000   1.0000   1.0000   1.0000   1.0000   1.0000
     1.0000   1.0000   1.0000   1.0000   1.0000   1.0000   1.0000   1.0000
     1.0000   1.0000   1.0000   1.0000   1.0000   1.0000   1.0000   1.0000
     1.0000   1.0000   1.0000   1.0000   1.0000   1.0000   1.0000   1.0000
     1.0000   1.0000   1.0000   1.0000   1.0000   1.0000   1.0000   1.0000
     1.0000   1.0000   1.0000   1.0000   1.0000   1.0000   1.0000   1.0000
     1.0011   1.0011   1.0012   1.0012   1.0273   1.0273   1.0290   1.0290
     0.7088   0.7088   0.6545   0.6545  -0.0125  -0.0125  -0.0101  -0.0101
    -0.0000  -0.0000  -0.0000  -0.0000  -0.0000  -0.0000

          k = 0.0000-0.5000-0.5000 ( 11360 PWs)   bands (ev):

   -56.4977 -56.4977 -56.4977 -56.4977 -56.4805 -56.4805 -56.4805 -56.4805
   -28.5751 -28.5751 -28.5751 -28.5751 -28.5344 -28.5344 -28.5344 -28.5344
   -27.6043 -27.6043 -27.6043 -27.6043 -27.5370 -27.5370 -27.5370 -27.5370
   -27.5167 -27.5167 -27.5167 -27.5167 -27.4370 -27.4370 -27.4370 -27.4370
     5.3713   5.3713   5.3713   5.3713   6.4277   6.4277   6.4277   6.4277
    10.7056  10.7056  10.7056  10.7056  11.2425  11.2425  11.2425  11.2425
    11.3850  11.3850  11.3850  11.3850  12.2841  12.2841  12.2841  12.2841
    13.3619  13.3619  13.3619  13.3619  14.0067  14.0067  14.0067  14.0067
    14.2936  14.2936  14.2936  14.2936  14.5247  14.5247  14.5247  14.5247
    14.7571  14.7571  14.7571  14.7571  15.4170  15.4170  15.4170  15.4170
    16.5868  16.5868  16.5868  16.5868  16.9840  16.9840

     occupation numbers 
     1.0000   1.0000   1.0000   1.0000   1.0000   1.0000   1.0000   1.0000
     1.0000   1.0000   1.0000   1.0000   1.0000   1.0000   1.0000   1.0000
     1.0000   1.0000   1.0000   1.0000   1.0000   1.0000   1.0000   1.0000
     1.0000   1.0000   1.0000   1.0000   1.0000   1.0000   1.0000   1.0000
     1.0000   1.0000   1.0000   1.0000   1.0000   1.0000   1.0000   1.0000
     1.0000   1.0000   1.0000   1.0000   1.0000   1.0000   1.0000   1.0000
     1.0000   1.0000   1.0000   1.0000   1.0000   1.0000   1.0000   1.0000
     1.0000   1.0000   1.0000   1.0000   1.0000   1.0000   1.0000   1.0000
     1.0016   1.0016   1.0016   1.0016   1.0241   1.0241   1.0241   1.0241
     0.9681   0.9681   0.9681   0.9681  -0.0185  -0.0185  -0.0185  -0.0185
    -0.0000  -0.0000  -0.0000  -0.0000  -0.0000  -0.0000

          k = 0.1250 0.1250 0.1250 ( 11293 PWs)   bands (ev):

   -56.5122 -56.5122 -56.4870 -56.4870 -56.4808 -56.4808 -56.4764 -56.4764
   -28.5899 -28.5840 -28.5744 -28.5738 -28.5616 -28.5574 -28.4922 -28.4921
   -27.6305 -27.6289 -27.5954 -27.5899 -27.5517 -27.5455 -27.5447 -27.5417
   -27.5205 -27.5096 -27.4712 -27.4626 -27.4554 -27.4552 -27.4425 -27.4407
     3.0213   3.0213   6.5634   6.5700   7.1836   7.1909   8.2853   8.2895
     9.9223   9.9271  10.6114  10.6116  10.6509  10.6510  11.2991  11.3046
    11.9439  11.9449  12.3496  12.3608  12.7357  12.7377  12.8156  12.8245
    13.0616  13.0651  13.1642  13.1647  13.2424  13.2482  13.3416  13.3503
    13.4555  13.4635  13.7036  13.7080  14.0635  14.0710  15.3203  15.3245
    15.3553  15.3566  15.5747  15.5758  15.6381  15.6525  15.8125  15.8244
    16.3129  16.3325  16.6472  16.6557  16.9603  16.9956

     occupation numbers 
     1.0000   1.0000   1.0000   1.0000   1.0000   1.0000   1.0000   1.0000
     1.0000   1.0000   1.0000   1.0000   1.0000   1.0000   1.0000   1.0000
     1.0000   1.0000   1.0000   1.0000   1.0000   1.0000   1.0000   1.0000
     1.0000   1.0000   1.0000   1.0000   1.0000   1.0000   1.0000   1.0000
     1.0000   1.0000   1.0000   1.0000   1.0000   1.0000   1.0000   1.0000
     1.0000   1.0000   1.0000   1.0000   1.0000   1.0000   1.0000   1.0000
     1.0000   1.0000   1.0000   1.0000   1.0000   1.0000   1.0000   1.0000
     1.0000   1.0000   1.0000   1.0000   1.0000   1.0000   1.0000   1.0000
     1.0000   1.0000   1.0000   1.0000   1.0000   1.0000  -0.0336  -0.0331
    -0.0288  -0.0286  -0.0029  -0.0029  -0.0011  -0.0009  -0.0000  -0.0000
    -0.0000  -0.0000  -0.0000  -0.0000  -0.0000  -0.0000

          k = 0.1250 0.1250 0.2500 ( 11298 PWs)   bands (ev):

   -56.5095 -56.5095 -56.4903 -56.4903 -56.4805 -56.4805 -56.4762 -56.4762
   -28.5906 -28.5851 -28.5756 -28.5746 -28.5532 -28.5497 -28.5000 -28.4996
   -27.6343 -27.6293 -27.5879 -27.5806 -27.5559 -27.5489 -27.5443 -27.5417
   -27.5181 -27.5001 -27.4807 -27.4671 -27.4623 -27.4558 -27.4398 -27.4378
     3.3366   3.3367   6.0623   6.0655   7.2201   7.2245   8.4042   8.4083
     9.6713   9.6734  10.4338  10.4377  10.6893  10.6932  11.4161  11.4201
    11.8412  11.8461  12.2991  12.3025  12.7365  12.7418  13.0065  13.0116
    13.0822  13.0890  13.1142  13.1219  13.2809  13.2855  13.4384  13.4478
    13.6242  13.6327  13.8381  13.8468  14.1514  14.1575  15.0811  15.1063
    15.2829  15.2981  15.4453  15.4589  15.5889  15.6061  15.8101  15.8291
    16.2006  16.2163  16.5421  16.5559  17.1162  17.1520

     occupation numbers 
     1.0000   1.0000   1.0000   1.0000   1.0000   1.0000   1.0000   1.0000
     1.0000   1.0000   1.0000   1.0000   1.0000   1.0000   1.0000   1.0000
     1.0000   1.0000   1.0000   1.0000   1.0000   1.0000   1.0000   1.0000
     1.0000   1.0000   1.0000   1.0000   1.0000   1.0000   1.0000   1.0000
     1.0000   1.0000   1.0000   1.0000   1.0000   1.0000   1.0000   1.0000
     1.0000   1.0000   1.0000   1.0000   1.0000   1.0000   1.0000   1.0000
     1.0000   1.0000   1.0000   1.0000   1.0000   1.0000   1.0000   1.0000
     1.0000   1.0000   1.0000   1.0000   1.0000   1.0000   1.0000   1.0000
     1.0000   1.0000   1.0000   1.0000   1.0001   1.0001   0.1490   0.0993
    -0.0354  -0.0352  -0.0143  -0.0124  -0.0024  -0.0018  -0.0000  -0.0000
    -0.0000  -0.0000  -0.0000  -0.0000  -0.0000  -0.0000

          k = 0.1250 0.1250 0.3750 ( 11286 PWs)   bands (ev):

   -56.5054 -56.5054 -56.4951 -56.4951 -56.4793 -56.4793 -56.4767 -56.4767
   -28.5891 -28.5846 -28.5796 -28.5773 -28.5403 -28.5379 -28.5117 -28.5109
   -27.6355 -27.6310 -27.5786 -27.5726 -27.5643 -27.5505 -27.5425 -27.5330
   -27.5220 -27.4999 -27.4826 -27.4701 -27.4665 -27.4594 -27.4381 -27.4365
     3.8444   3.8446   5.2901   5.2912   7.5132   7.5155   8.3089   8.3132
     9.5580   9.5590  10.2040  10.2072  10.9208  10.9251  11.4066  11.4125
    11.7849  11.7883  12.2116  12.2153  12.7418  12.7476  12.9490  12.9566
    13.0583  13.0665  13.2275  13.2347  13.3256  13.3291  13.4305  13.4370
    13.6942  13.6972  13.9770  13.9843  14.3490  14.3689  14.8295  14.8622
    15.2451  15.2614  15.3176  15.3309  15.6097  15.6296  15.7674  15.7907
    16.1532  16.1625  16.3766  16.3910  17.3091  17.3326

     occupation numbers 
     1.0000   1.0000   1.0000   1.0000   1.0000   1.0000   1.0000   1.0000
     1.0000   1.0000   1.0000   1.0000   1.0000   1.0000   1.0000   1.0000
     1.0000   1.0000   1.0000   1.0000   1.0000   1.0000   1.0000   1.0000
     1.0000   1.0000   1.0000   1.0000   1.0000   1.0000   1.0000   1.0000
     1.0000   1.0000   1.0000   1.0000   1.0000   1.0000   1.0000   1.0000
     1.0000   1.0000   1.0000   1.0000   1.0000   1.0000   1.0000   1.0000
     1.0000   1.0000   1.0000   1.0000   1.0000   1.0000   1.0000   1.0000
     1.0000   1.0000   1.0000   1.0000   1.0000   1.0000   1.0000   1.0000
     1.0000   1.0000   1.0000   1.0000   1.0036   1.0048   0.8464   0.7688
    -0.0309  -0.0339  -0.0338  -0.0323  -0.0017  -0.0013  -0.0001  -0.0001
    -0.0000  -0.0000  -0.0000  -0.0000  -0.0000  -0.0000

          k = 0.1250 0.1250-0.5000 ( 11310 PWs)   bands (ev):

   -56.5004 -56.5004 -56.5004 -56.5004 -56.4778 -56.4778 -56.4778 -56.4778
   -28.5859 -28.5859 -28.5803 -28.5803 -28.5264 -28.5264 -28.5236 -28.5236
   -27.6338 -27.6338 -27.5717 -27.5717 -27.5610 -27.5610 -27.5344 -27.5344
   -27.5138 -27.5138 -27.4755 -27.4755 -27.4642 -27.4642 -27.4369 -27.4369
     4.5138   4.5138   4.5144   4.5144   7.9200   7.9200   7.9263   7.9263
     9.8402   9.8402   9.8416   9.8416  11.1807  11.1807  11.1904  11.1904
    12.0266  12.0266  12.0303  12.0303  12.7781  12.7781  12.7909  12.7909
    13.1758  13.1758  13.1840  13.1840  13.3656  13.3656  13.3685  13.3685
    13.8482  13.8482  13.8542  13.8542  14.6276  14.6276  14.6597  14.6597
    15.2463  15.2463  15.2655  15.2655  15.6842  15.6842  15.7102  15.7102
    16.2233  16.2233  16.2335  16.2335  17.6139  17.6185

     occupation numbers 
     1.0000   1.0000   1.0000   1.0000   1.0000   1.0000   1.0000   1.0000
     1.0000   1.0000   1.0000   1.0000   1.0000   1.0000   1.0000   1.0000
     1.0000   1.0000   1.0000   1.0000   1.0000   1.0000   1.0000   1.0000
     1.0000   1.0000   1.0000   1.0000   1.0000   1.0000   1.0000   1.0000
     1.0000   1.0000   1.0000   1.0000   1.0000   1.0000   1.0000   1.0000
     1.0000   1.0000   1.0000   1.0000   1.0000   1.0000   1.0000   1.0000
     1.0000   1.0000   1.0000   1.0000   1.0000   1.0000   1.0000   1.0000
     1.0000   1.0000   1.0000   1.0000   1.0000   1.0000   1.0000   1.0000
     1.0000   1.0000   1.0000   1.0000   1.0354   1.0354   1.0317   1.0317
    -0.0312  -0.0312  -0.0343  -0.0343  -0.0005  -0.0005  -0.0003  -0.0003
    -0.0000  -0.0000  -0.0000  -0.0000  -0.0000  -0.0000

          k = 0.1250 0.2500 0.2500 ( 11297 PWs)   bands (ev):

   -56.5071 -56.5071 -56.4917 -56.4917 -56.4811 -56.4811 -56.4765 -56.4765
   -28.5894 -28.5845 -28.5736 -28.5730 -28.5502 -28.5469 -28.5071 -28.5065
   -27.6318 -27.6285 -27.5840 -27.5754 -27.5564 -27.5522 -27.5457 -27.5438
   -27.5146 -27.5020 -27.4833 -27.4708 -27.4694 -27.4533 -27.4372 -27.4348
     3.6444   3.6445   6.0131   6.0176   6.9142   6.9206   8.2970   8.3007
     9.4082   9.4110  10.4284  10.4301  10.6902  10.6927  11.4592  11.4641
    11.9037  11.9063  12.3020  12.3040  12.6209  12.6273  12.9563  12.9627
    13.1173  13.1223  13.1936  13.2043  13.2828  13.2883  13.5794  13.5863
    13.7498  13.7574  13.9707  13.9798  14.2862  14.2932  15.0247  15.0419
    15.1590  15.1796  15.2853  15.2979  15.4994  15.5114  15.7206  15.7411
    16.1684  16.1793  16.5167  16.5292  17.1460  17.1867

     occupation numbers 
     1.0000   1.0000   1.0000   1.0000   1.0000   1.0000   1.0000   1.0000
     1.0000   1.0000   1.0000   1.0000   1.0000   1.0000   1.0000   1.0000
     1.0000   1.0000   1.0000   1.0000   1.0000   1.0000   1.0000   1.0000
     1.0000   1.0000   1.0000   1.0000   1.0000   1.0000   1.0000   1.0000
     1.0000   1.0000   1.0000   1.0000   1.0000   1.0000   1.0000   1.0000
     1.0000   1.0000   1.0000   1.0000   1.0000   1.0000   1.0000   1.0000
     1.0000   1.0000   1.0000   1.0000   1.0000   1.0000   1.0000   1.0000
     1.0000   1.0000   1.0000   1.0000   1.0000   1.0000   1.0000   1.0000
     1.0000   1.0000   1.0000   1.0000   1.0014   1.0016   0.2888   0.2423
     0.0231   0.0031  -0.0354  -0.0352  -0.0079  -0.0068  -0.0003  -0.0002
    -0.0000  -0.0000  -0.0000  -0.0000  -0.0000  -0.0000

          k = 0.1250 0.2500 0.3750 ( 11298 PWs)   bands (ev):

   -56.5034 -56.5034 -56.4949 -56.4949 -56.4805 -56.4805 -56.4776 -56.4776
   -28.5864 -28.5823 -28.5759 -28.5742 -28.5417 -28.5395 -28.5175 -28.5167
   -27.6295 -27.6265 -27.5803 -27.5724 -27.5633 -27.5533 -27.5412 -27.5363
   -27.5196 -27.5092 -27.4852 -27.4783 -27.4648 -27.4531 -27.4355 -27.4333
     4.1378   4.1382   5.4906   5.4927   7.0389   7.0428   7.9713   7.9745
     9.4101   9.4125  10.1454  10.1478  11.0640  11.0672  11.5737  11.5797
    11.8038  11.8113  12.0653  12.0670  12.5153  12.5254  12.7881  12.7958
    13.2088  13.2141  13.2904  13.3028  13.3529  13.3585  13.5994  13.6087
    13.8630  13.8745  14.0964  14.1079  14.5018  14.5299  14.8369  14.8637
    15.0707  15.0804  15.1471  15.1606  15.5085  15.5212  15.6333  15.6561
    16.2020  16.2089  16.4434  16.4542  17.1767  17.2033

     occupation numbers 
     1.0000   1.0000   1.0000   1.0000   1.0000   1.0000   1.0000   1.0000
     1.0000   1.0000   1.0000   1.0000   1.0000   1.0000   1.0000   1.0000
     1.0000   1.0000   1.0000   1.0000   1.0000   1.0000   1.0000   1.0000
     1.0000   1.0000   1.0000   1.0000   1.0000   1.0000   1.0000   1.0000
     1.0000   1.0000   1.0000   1.0000   1.0000   1.0000   1.0000   1.0000
     1.0000   1.0000   1.0000   1.0000   1.0000   1.0000   1.0000   1.0000
     1.0000   1.0000   1.0000   1.0000   1.0000   1.0000   1.0000   1.0000
     1.0000   1.0000   1.0000   1.0000   1.0000   1.0000   1.0000   1.0000
     1.0000   1.0000   1.0000   1.0000   1.0202   1.0250   0.8299   0.7650
     0.1720   0.1505   0.0371   0.0214  -0.0071  -0.0060  -0.0012  -0.0008
    -0.0000  -0.0000  -0.0000  -0.0000  -0.0000  -0.0000

          k = 0.1250 0.2500-0.5000 ( 11288 PWs)   bands (ev):

   -56.4991 -56.4991 -56.4991 -56.4991 -56.4791 -56.4791 -56.4791 -56.4791
   -28.5822 -28.5822 -28.5771 -28.5771 -28.5308 -28.5308 -28.5274 -28.5274
   -27.6270 -27.6270 -27.5762 -27.5762 -27.5596 -27.5596 -27.5326 -27.5326
   -27.5202 -27.5202 -27.4836 -27.4836 -27.4575 -27.4575 -27.4339 -27.4339
     4.7804   4.7804   4.7814   4.7814   7.4685   7.4685   7.4748   7.4748
     9.7441   9.7441   9.7465   9.7465  11.5277  11.5277  11.5354  11.5354
    11.7438  11.7438  11.7476  11.7476  12.6000  12.6000  12.6114  12.6114
    13.2926  13.2926  13.2990  13.2990  13.4704  13.4704  13.4819  13.4819
    14.0237  14.0237  14.0318  14.0318  14.6928  14.6928  14.7253  14.7253
    15.0670  15.0670  15.0834  15.0834  15.5564  15.5564  15.5800  15.5800
    16.3194  16.3194  16.3283  16.3283  17.3784  17.3823

     occupation numbers 
     1.0000   1.0000   1.0000   1.0000   1.0000   1.0000   1.0000   1.0000
     1.0000   1.0000   1.0000   1.0000   1.0000   1.0000   1.0000   1.0000
     1.0000   1.0000   1.0000   1.0000   1.0000   1.0000   1.0000   1.0000
     1.0000   1.0000   1.0000   1.0000   1.0000   1.0000   1.0000   1.0000
     1.0000   1.0000   1.0000   1.0000   1.0000   1.0000   1.0000   1.0000
     1.0000   1.0000   1.0000   1.0000   1.0000   1.0000   1.0000   1.0000
     1.0000   1.0000   1.0000   1.0000   1.0000   1.0000   1.0000   1.0000
     1.0000   1.0000   1.0000   1.0000   1.0000   1.0000   1.0000   1.0000
     1.0000   1.0000   1.0000   1.0000   1.0205   1.0205   0.9999   0.9999
     0.1805   0.1805   0.1441   0.1441  -0.0038  -0.0038  -0.0027  -0.0027
    -0.0000  -0.0000  -0.0000  -0.0000  -0.0000  -0.0000

          k = 0.1250 0.3750 0.3750 ( 11307 PWs)   bands (ev):

   -56.5006 -56.5006 -56.4956 -56.4956 -56.4811 -56.4811 -56.4790 -56.4790
   -28.5819 -28.5787 -28.5736 -28.5727 -28.5406 -28.5388 -28.5258 -28.5248
   -27.6217 -27.6200 -27.5854 -27.5810 -27.5586 -27.5510 -27.5396 -27.5320
   -27.5233 -27.5144 -27.4946 -27.4893 -27.4551 -27.4466 -27.4354 -27.4324
     4.6016   4.6022   5.5957   5.5979   6.6176   6.6211   7.4188   7.4220
     9.5842   9.5867  10.2020  10.2054  10.9491  10.9511  11.5403  11.5428
    11.7638  11.7683  12.1096  12.1114  12.3538  12.3583  12.6179  12.6245
    13.1922  13.1978  13.3135  13.3186  13.5607  13.5694  13.7644  13.7805
    14.0190  14.0325  14.2992  14.3083  14.5619  14.5805  14.7911  14.8057
    14.8767  14.8818  14.9914  15.0212  15.4332  15.4339  15.5037  15.5155
    16.3018  16.3112  16.4771  16.4835  17.0646  17.0859

     occupation numbers 
     1.0000   1.0000   1.0000   1.0000   1.0000   1.0000   1.0000   1.0000
     1.0000   1.0000   1.0000   1.0000   1.0000   1.0000   1.0000   1.0000
     1.0000   1.0000   1.0000   1.0000   1.0000   1.0000   1.0000   1.0000
     1.0000   1.0000   1.0000   1.0000   1.0000   1.0000   1.0000   1.0000
     1.0000   1.0000   1.0000   1.0000   1.0000   1.0000   1.0000   1.0000
     1.0000   1.0000   1.0000   1.0000   1.0000   1.0000   1.0000   1.0000
     1.0000   1.0000   1.0000   1.0000   1.0000   1.0000   1.0000   1.0000
     1.0000   1.0000   1.0000   1.0000   1.0000   1.0000   1.0000   1.0000
     1.0000   1.0000   1.0017   1.0020   1.0301   1.0327   0.9198   0.8943
     0.7305   0.7167   0.3856   0.2985  -0.0160  -0.0159  -0.0075  -0.0065
    -0.0000  -0.0000  -0.0000  -0.0000  -0.0000  -0.0000

          k = 0.1250 0.3750-0.5000 ( 11296 PWs)   bands (ev):

   -56.4977 -56.4977 -56.4977 -56.4977 -56.4805 -56.4805 -56.4805 -56.4805
   -28.5774 -28.5774 -28.5739 -28.5739 -28.5352 -28.5352 -28.5326 -28.5326
   -27.6165 -27.6165 -27.5882 -27.5882 -27.5530 -27.5530 -27.5332 -27.5332
   -27.5210 -27.5210 -27.4965 -27.4965 -27.4474 -27.4474 -27.4341 -27.4341
     5.1728   5.1728   5.1743   5.1743   6.8549   6.8549   6.8593   6.8593
     9.9259   9.9259   9.9291   9.9291  11.2680  11.2680  11.2700  11.2700
    11.8654  11.8654  11.8729  11.8729  12.4201  12.4201  12.4278  12.4278
    13.2924  13.2924  13.2962  13.2962  13.6810  13.6810  13.6952  13.6952
    14.2863  14.2863  14.2930  14.2930  14.6332  14.6332  14.6458  14.6458
    14.9014  14.9014  14.9204  14.9204  15.4308  15.4308  15.4466  15.4466
    16.4456  16.4456  16.4533  16.4533  17.0942  17.0967

     occupation numbers 
     1.0000   1.0000   1.0000   1.0000   1.0000   1.0000   1.0000   1.0000
     1.0000   1.0000   1.0000   1.0000   1.0000   1.0000   1.0000   1.0000
     1.0000   1.0000   1.0000   1.0000   1.0000   1.0000   1.0000   1.0000
     1.0000   1.0000   1.0000   1.0000   1.0000   1.0000   1.0000   1.0000
     1.0000   1.0000   1.0000   1.0000   1.0000   1.0000   1.0000   1.0000
     1.0000   1.0000   1.0000   1.0000   1.0000   1.0000   1.0000   1.0000
     1.0000   1.0000   1.0000   1.0000   1.0000   1.0000   1.0000   1.0000
     1.0000   1.0000   1.0000   1.0000   1.0000   1.0000   1.0000   1.0000
     1.0014   1.0014   1.0016   1.0016   1.0351   1.0351   1.0340   1.0340
     0.6608   0.6608   0.6042   0.6042  -0.0164  -0.0164  -0.0141  -0.0141
    -0.0000  -0.0000  -0.0000  -0.0000  -0.0000  -0.0000

          k = 0.1250-0.5000-0.5000 ( 11312 PWs)   bands (ev):

   -56.4970 -56.4970 -56.4970 -56.4970 -56.4812 -56.4812 -56.4812 -56.4812
   -28.5738 -28.5738 -28.5736 -28.5736 -28.5362 -28.5362 -28.5360 -28.5360
   -27.6055 -27.6055 -27.6001 -27.6001 -27.5486 -27.5486 -27.5355 -27.5355
   -27.5178 -27.5178 -27.5042 -27.5042 -27.4413 -27.4413 -27.4366 -27.4366
     5.4484   5.4484   5.4495   5.4495   6.4884   6.4884   6.4903   6.4903
    10.0927  10.0927  10.0963  10.0963  11.0431  11.0431  11.0448  11.0448
    11.9594  11.9594  11.9618  11.9618  12.3350  12.3350  12.3375  12.3375
    13.2746  13.2746  13.2754  13.2754  13.8461  13.8461  13.8594  13.8594
    14.3457  14.3457  14.3511  14.3511  14.6304  14.6304  14.6469  14.6469
    14.8005  14.8005  14.8026  14.8026  15.3851  15.3851  15.3854  15.3854
    16.5200  16.5200  16.5215  16.5216  16.9701  16.9708

     occupation numbers 
     1.0000   1.0000   1.0000   1.0000   1.0000   1.0000   1.0000   1.0000
     1.0000   1.0000   1.0000   1.0000   1.0000   1.0000   1.0000   1.0000
     1.0000   1.0000   1.0000   1.0000   1.0000   1.0000   1.0000   1.0000
     1.0000   1.0000   1.0000   1.0000   1.0000   1.0000   1.0000   1.0000
     1.0000   1.0000   1.0000   1.0000   1.0000   1.0000   1.0000   1.0000
     1.0000   1.0000   1.0000   1.0000   1.0000   1.0000   1.0000   1.0000
     1.0000   1.0000   1.0000   1.0000   1.0000   1.0000   1.0000   1.0000
     1.0000   1.0000   1.0000   1.0000   1.0000   1.0000   1.0000   1.0000
     1.0035   1.0035   1.0037   1.0037   1.0353   1.0353   1.0339   1.0339
     0.9036   0.9036   0.9000   0.9000  -0.0238  -0.0238  -0.0238  -0.0238
    -0.0000  -0.0000  -0.0000  -0.0000  -0.0000  -0.0000

          k = 0.2500 0.2500 0.2500 ( 11317 PWs)   bands (ev):

   -56.5049 -56.5049 -56.4922 -56.4922 -56.4820 -56.4820 -56.4773 -56.4773
   -28.5872 -28.5828 -28.5710 -28.5707 -28.5496 -28.5465 -28.5137 -28.5128
   -27.6286 -27.6249 -27.5830 -27.5711 -27.5589 -27.5560 -27.5465 -27.5439
   -27.5129 -27.5091 -27.4778 -27.4755 -27.4646 -27.4598 -27.4358 -27.4333
     3.9442   3.9443   6.0540   6.0607   6.7948   6.8050   8.0512   8.0521
     9.0663   9.0690  10.0625  10.0660  11.1542  11.1585  11.1984  11.1988
    11.9200  11.9213  12.3555  12.3571  12.8098  12.8164  12.8817  12.8825
    13.1330  13.1407  13.1417  13.1533  13.1849  13.1898  13.7580  13.7667
    13.7741  13.7864  14.0636  14.0710  14.4482  14.4654  14.9856  15.0018
    15.1294  15.1326  15.2658  15.2664  15.3055  15.3111  15.6141  15.6332
    16.1818  16.1900  16.4811  16.4924  17.1250  17.1548

     occupation numbers 
     1.0000   1.0000   1.0000   1.0000   1.0000   1.0000   1.0000   1.0000
     1.0000   1.0000   1.0000   1.0000   1.0000   1.0000   1.0000   1.0000
     1.0000   1.0000   1.0000   1.0000   1.0000   1.0000   1.0000   1.0000
     1.0000   1.0000   1.0000   1.0000   1.0000   1.0000   1.0000   1.0000
     1.0000   1.0000   1.0000   1.0000   1.0000   1.0000   1.0000   1.0000
     1.0000   1.0000   1.0000   1.0000   1.0000   1.0000   1.0000   1.0000
     1.0000   1.0000   1.0000   1.0000   1.0000   1.0000   1.0000   1.0000
     1.0000   1.0000   1.0000   1.0000   1.0000   1.0000   1.0000   1.0000
     1.0000   1.0000   1.0000   1.0000   1.0122   1.0146   0.4030   0.3546
     0.0613   0.0567  -0.0344  -0.0344  -0.0348  -0.0344  -0.0016  -0.0012
    -0.0000  -0.0000  -0.0000  -0.0000  -0.0000  -0.0000

          k = 0.2500 0.2500 0.3750 ( 11322 PWs)   bands (ev):

   -56.5015 -56.5015 -56.4942 -56.4942 -56.4819 -56.4819 -56.4787 -56.4787
   -28.5832 -28.5796 -28.5722 -28.5709 -28.5441 -28.5418 -28.5232 -28.5220
   -27.6245 -27.6213 -27.5796 -27.5712 -27.5659 -27.5611 -27.5430 -27.5334
   -27.5236 -27.5103 -27.4817 -27.4717 -27.4668 -27.4580 -27.4356 -27.4329
     4.4224   4.4228   5.6836   5.6866   6.9122   6.9181   7.7713   7.7741
     8.9807   8.9845   9.7546   9.7585  11.0332  11.0363  11.5966  11.5994
    11.6772  11.6804  12.2577  12.2624  12.7413  12.7509  12.8769  12.8842
    13.1096  13.1216  13.2125  13.2238  13.2933  13.2974  13.6218  13.6296
    13.9378  13.9478  14.2613  14.2726  14.6143  14.6467  14.8442  14.8635
    15.0202  15.0305  15.1809  15.2072  15.3266  15.3415  15.5257  15.5425
    16.2215  16.2282  16.4117  16.4199  17.1195  17.1346

     occupation numbers 
     1.0000   1.0000   1.0000   1.0000   1.0000   1.0000   1.0000   1.0000
     1.0000   1.0000   1.0000   1.0000   1.0000   1.0000   1.0000   1.0000
     1.0000   1.0000   1.0000   1.0000   1.0000   1.0000   1.0000   1.0000
     1.0000   1.0000   1.0000   1.0000   1.0000   1.0000   1.0000   1.0000
     1.0000   1.0000   1.0000   1.0000   1.0000   1.0000   1.0000   1.0000
     1.0000   1.0000   1.0000   1.0000   1.0000   1.0000   1.0000   1.0000
     1.0000   1.0000   1.0000   1.0000   1.0000   1.0000   1.0000   1.0000
     1.0000   1.0000   1.0000   1.0000   1.0000   1.0000   1.0000   1.0000
     1.0000   1.0000   1.0009   1.0011   1.0354   1.0339   0.8132   0.7654
     0.3014   0.2728   0.0019  -0.0162  -0.0329  -0.0309  -0.0057  -0.0046
    -0.0000  -0.0000  -0.0000  -0.0000  -0.0000  -0.0000

          k = 0.2500 0.2500-0.5000 ( 11294 PWs)   bands (ev):

   -56.4977 -56.4977 -56.4977 -56.4977 -56.4805 -56.4805 -56.4805 -56.4805
   -28.5786 -28.5786 -28.5738 -28.5738 -28.5352 -28.5352 -28.5315 -28.5315
   -27.6210 -27.6210 -27.5751 -27.5751 -27.5661 -27.5661 -27.5350 -27.5350
   -27.5196 -27.5196 -27.4786 -27.4786 -27.4601 -27.4601 -27.4342 -27.4342
     5.0367   5.0367   5.0379   5.0379   7.3193   7.3193   7.3254   7.3254
     9.3111   9.3111   9.3153   9.3153  11.2766  11.2766  11.2790  11.2790
    11.9763  11.9763  11.9845  11.9845  12.8033  12.8033  12.8135  12.8135
    13.1736  13.1736  13.1863  13.1863  13.4386  13.4386  13.4458  13.4458
    14.1678  14.1678  14.1774  14.1774  14.7496  14.7496  14.7769  14.7769
    15.0554  15.0554  15.0743  15.0743  15.4321  15.4321  15.4483  15.4483
    16.3108  16.3108  16.3204  16.3204  17.2567  17.2577

     occupation numbers 
     1.0000   1.0000   1.0000   1.0000   1.0000   1.0000   1.0000   1.0000
     1.0000   1.0000   1.0000   1.0000   1.0000   1.0000   1.0000   1.0000
     1.0000   1.0000   1.0000   1.0000   1.0000   1.0000   1.0000   1.0000
     1.0000   1.0000   1.0000   1.0000   1.0000   1.0000   1.0000   1.0000
     1.0000   1.0000   1.0000   1.0000   1.0000   1.0000   1.0000   1.0000
     1.0000   1.0000   1.0000   1.0000   1.0000   1.0000   1.0000   1.0000
     1.0000   1.0000   1.0000   1.0000   1.0000   1.0000   1.0000   1.0000
     1.0000   1.0000   1.0000   1.0000   1.0000   1.0000   1.0000   1.0000
     1.0002   1.0002   1.0002   1.0002   0.9768   0.9768   0.9418   0.9418
     0.2082   0.2082   0.1638   0.1638  -0.0162  -0.0162  -0.0138  -0.0138
    -0.0000  -0.0000  -0.0000  -0.0000  -0.0000  -0.0000

          k = 0.2500 0.3750 0.3750 ( 11309 PWs)   bands (ev):

   -56.4988 -56.4988 -56.4943 -56.4943 -56.4828 -56.4828 -56.4805 -56.4805
   -28.5784 -28.5754 -28.5697 -28.5689 -28.5442 -28.5425 -28.5311 -28.5297
   -27.6172 -27.6144 -27.5828 -27.5777 -27.5669 -27.5624 -27.5444 -27.5332
   -27.5234 -27.5074 -27.4861 -27.4765 -27.4601 -27.4548 -27.4373 -27.4343
     4.8697   4.8702   5.7965   5.8005   6.6822   6.6890   7.3945   7.3977
     8.9589   8.9634   9.5731   9.5785  10.6885  10.6923  11.2071  11.2089
    12.0017  12.0045  12.4203  12.4244  12.6319  12.6374  12.8198  12.8256
    13.1284  13.1367  13.1821  13.1906  13.3825  13.3920  13.5837  13.5956
    14.1422  14.1508  14.4964  14.5135  14.6839  14.7075  14.8375  14.8565
    14.9333  14.9374  15.1306  15.1630  15.2749  15.2866  15.4309  15.4444
    16.2770  16.2845  16.4041  16.4086  16.9735  16.9838

     occupation numbers 
     1.0000   1.0000   1.0000   1.0000   1.0000   1.0000   1.0000   1.0000
     1.0000   1.0000   1.0000   1.0000   1.0000   1.0000   1.0000   1.0000
     1.0000   1.0000   1.0000   1.0000   1.0000   1.0000   1.0000   1.0000
     1.0000   1.0000   1.0000   1.0000   1.0000   1.0000   1.0000   1.0000
     1.0000   1.0000   1.0000   1.0000   1.0000   1.0000   1.0000   1.0000
     1.0000   1.0000   1.0000   1.0000   1.0000   1.0000   1.0000   1.0000
     1.0000   1.0000   1.0000   1.0000   1.0000   1.0000   1.0000   1.0000
     1.0000   1.0000   1.0000   1.0000   1.0000   1.0000   1.0000   1.0000
     1.0001   1.0001   1.0193   1.0222   1.0244   1.0125   0.8285   0.7832
     0.5649   0.5523   0.0595   0.0188  -0.0351  -0.0355  -0.0163  -0.0144
    -0.0000  -0.0000  -0.0000  -0.0000  -0.0000  -0.0000

          k = 0.2500 0.3750-0.5000 ( 11312 PWs)   bands (ev):

   -56.4960 -56.4960 -56.4960 -56.4960 -56.4822 -56.4822 -56.4822 -56.4822
   -28.5736 -28.5736 -28.5701 -28.5701 -28.5399 -28.5399 -28.5370 -28.5370
   -27.6116 -27.6116 -27.5848 -27.5848 -27.5640 -27.5640 -27.5406 -27.5406
   -27.5129 -27.5129 -27.4842 -27.4842 -27.4540 -27.4540 -27.4371 -27.4371
     5.4121   5.4121   5.4139   5.4139   6.9217   6.9217   6.9270   6.9270
     9.2727   9.2727   9.2778   9.2778  10.7883  10.7883  10.7909  10.7909
    12.2807  12.2807  12.2893  12.2893  12.6861  12.6861  12.6934  12.6934
    13.1720  13.1720  13.1798  13.1798  13.4760  13.4760  13.4890  13.4890
    14.4063  14.4063  14.4151  14.4151  14.7921  14.7921  14.8096  14.8096
    14.9884  14.9884  15.0103  15.0103  15.3484  15.3484  15.3589  15.3589
    16.3657  16.3657  16.3729  16.3729  16.9855  16.9879

     occupation numbers 
     1.0000   1.0000   1.0000   1.0000   1.0000   1.0000   1.0000   1.0000
     1.0000   1.0000   1.0000   1.0000   1.0000   1.0000   1.0000   1.0000
     1.0000   1.0000   1.0000   1.0000   1.0000   1.0000   1.0000   1.0000
     1.0000   1.0000   1.0000   1.0000   1.0000   1.0000   1.0000   1.0000
     1.0000   1.0000   1.0000   1.0000   1.0000   1.0000   1.0000   1.0000
     1.0000   1.0000   1.0000   1.0000   1.0000   1.0000   1.0000   1.0000
     1.0000   1.0000   1.0000   1.0000   1.0000   1.0000   1.0000   1.0000
     1.0000   1.0000   1.0000   1.0000   1.0000   1.0000   1.0000   1.0000
     1.0077   1.0077   1.0085   1.0085   0.9181   0.9181   0.8869   0.8869
     0.3947   0.3947   0.3295   0.3295  -0.0299  -0.0299  -0.0282  -0.0282
    -0.0000  -0.0000  -0.0000  -0.0000  -0.0000  -0.0000

          k = 0.2500-0.5000-0.5000 ( 11316 PWs)   bands (ev):

   -56.4952 -56.4952 -56.4952 -56.4952 -56.4830 -56.4830 -56.4830 -56.4830
   -28.5698 -28.5698 -28.5695 -28.5695 -28.5411 -28.5411 -28.5407 -28.5407
   -27.6029 -27.6029 -27.5943 -27.5943 -27.5619 -27.5619 -27.5432 -27.5432
   -27.5083 -27.5083 -27.4893 -27.4893 -27.4484 -27.4484 -27.4406 -27.4406
     5.6731   5.6731   5.6753   5.6753   6.6209   6.6209   6.6251   6.6251
     9.3818   9.3818   9.3872   9.3872  10.5093  10.5093  10.5126  10.5126
    12.4774  12.4774  12.4806  12.4806  12.5637  12.5637  12.5658  12.5658
    13.1154  13.1154  13.1158  13.1158  13.5546  13.5546  13.5674  13.5674
    14.5094  14.5094  14.5181  14.5181  14.8355  14.8355  14.8502  14.8502
    14.9370  14.9370  14.9380  14.9380  15.3104  15.3104  15.3133  15.3133
    16.4145  16.4146  16.4153  16.4153  16.8626  16.8642

     occupation numbers 
     1.0000   1.0000   1.0000   1.0000   1.0000   1.0000   1.0000   1.0000
     1.0000   1.0000   1.0000   1.0000   1.0000   1.0000   1.0000   1.0000
     1.0000   1.0000   1.0000   1.0000   1.0000   1.0000   1.0000   1.0000
     1.0000   1.0000   1.0000   1.0000   1.0000   1.0000   1.0000   1.0000
     1.0000   1.0000   1.0000   1.0000   1.0000   1.0000   1.0000   1.0000
     1.0000   1.0000   1.0000   1.0000   1.0000   1.0000   1.0000   1.0000
     1.0000   1.0000   1.0000   1.0000   1.0000   1.0000   1.0000   1.0000
     1.0000   1.0000   1.0000   1.0000   1.0000   1.0000   1.0000   1.0000
     1.0215   1.0215   1.0229   1.0229   0.8332   0.8332   0.7989   0.7989
     0.5535   0.5535   0.5503   0.5503  -0.0345  -0.0345  -0.0342  -0.0342
    -0.0000  -0.0000  -0.0000  -0.0000  -0.0000  -0.0000

          k = 0.3750 0.3750 0.3750 ( 11323 PWs)   bands (ev):

   -56.4962 -56.4962 -56.4931 -56.4931 -56.4845 -56.4845 -56.4826 -56.4826
   -28.5732 -28.5706 -28.5655 -28.5653 -28.5475 -28.5460 -28.5382 -28.5366
   -27.6100 -27.6071 -27.5818 -27.5756 -27.5748 -27.5727 -27.5478 -27.5416
   -27.5130 -27.5013 -27.4805 -27.4661 -27.4637 -27.4614 -27.4412 -27.4387
     5.2846   5.2854   5.9999   6.0061   6.6313   6.6412   7.1889   7.1924
     8.7561   8.7618   9.2626   9.2700  10.1956  10.2006  10.6465  10.6488
    12.3230  12.3260  12.5913  12.5956  12.7690  12.7724  12.8673  12.8692
    13.1092  13.1195  13.1691  13.1743  13.2709  13.2712  13.3952  13.3999
    14.3618  14.3645  14.7227  14.7432  14.7840  14.7921  14.9227  14.9575
    15.0667  15.0732  15.0976  15.1030  15.2534  15.2839  15.3081  15.3296
    16.2848  16.2924  16.3586  16.3604  16.8104  16.8147

     occupation numbers 
     1.0000   1.0000   1.0000   1.0000   1.0000   1.0000   1.0000   1.0000
     1.0000   1.0000   1.0000   1.0000   1.0000   1.0000   1.0000   1.0000
     1.0000   1.0000   1.0000   1.0000   1.0000   1.0000   1.0000   1.0000
     1.0000   1.0000   1.0000   1.0000   1.0000   1.0000   1.0000   1.0000
[...]
   -28.5900 -28.5851 -28.5813 -28.5788 -28.5394 -28.5370 -28.5096 -28.5087
   -27.6378 -27.6325 -27.5780 -27.5751 -27.5644 -27.5476 -27.5423 -27.5303
   -27.5239 -27.4945 -27.4856 -27.4721 -27.4631 -27.4570 -27.4413 -27.4384
     3.7444   3.7445   5.2133   5.2139   7.6681   7.6705   8.4236   8.4305
     9.7494   9.7522  10.2952  10.3013  10.9489  10.9560  10.9938  10.9970
    11.9113  11.9150  12.2298  12.2346  12.8379  12.8460  13.0349  13.0378
    13.0606  13.0627  13.1347  13.1398  13.2981  13.3026  13.3904  13.3961
    13.5796  13.5797  13.9422  13.9491  14.2813  14.2977  14.8139  14.8480
    15.3084  15.3243  15.3842  15.4029  15.6832  15.7112  15.8021  15.8268
    16.1473  16.1605  16.3423  16.3571  17.3379  17.3571

     occupation numbers 
     1.0000   1.0000   1.0000   1.0000   1.0000   1.0000   1.0000   1.0000
     1.0000   1.0000   1.0000   1.0000   1.0000   1.0000   1.0000   1.0000
     1.0000   1.0000   1.0000   1.0000   1.0000   1.0000   1.0000   1.0000
     1.0000   1.0000   1.0000   1.0000   1.0000   1.0000   1.0000   1.0000
     1.0000   1.0000   1.0000   1.0000   1.0000   1.0000   1.0000   1.0000
     1.0000   1.0000   1.0000   1.0000   1.0000   1.0000   1.0000   1.0000
     1.0000   1.0000   1.0000   1.0000   1.0000   1.0000   1.0000   1.0000
     1.0000   1.0000   1.0000   1.0000   1.0000   1.0000   1.0000   1.0000
     1.0000   1.0000   1.0000   1.0000   1.0013   1.0017   0.8785   0.8042
    -0.0346  -0.0331  -0.0240  -0.0208  -0.0005  -0.0003  -0.0000  -0.0000
    -0.0000  -0.0000  -0.0000  -0.0000  -0.0000  -0.0000

          k = 0.0000-0.5000 0.1250 ( 11312 PWs)   bands (ev):

   -56.5009 -56.5009 -56.5009 -56.5009 -56.4773 -56.4773 -56.4773 -56.4773
   -28.5872 -28.5872 -28.5816 -28.5816 -28.5246 -28.5246 -28.5222 -28.5222
   -27.6362 -27.6362 -27.5723 -27.5723 -27.5595 -27.5595 -27.5352 -27.5352
   -27.5095 -27.5095 -27.4781 -27.4781 -27.4613 -27.4613 -27.4396 -27.4396
     4.4216   4.4216   4.4220   4.4220   8.0595   8.0595   8.0648   8.0648
    10.0561  10.0561  10.0610  10.0610  10.8858  10.8858  10.8945  10.8945
    12.1685  12.1685  12.1734  12.1734  12.8614  12.8614  12.8687  12.8687
    13.1012  13.1012  13.1067  13.1067  13.3088  13.3088  13.3161  13.3161
    13.7927  13.7927  13.7973  13.7973  14.5899  14.5899  14.6200  14.6200
    15.3198  15.3198  15.3406  15.3406  15.7320  15.7320  15.7611  15.7611
    16.1909  16.1909  16.2031  16.2031  17.6027  17.6037

     occupation numbers 
     1.0000   1.0000   1.0000   1.0000   1.0000   1.0000   1.0000   1.0000
     1.0000   1.0000   1.0000   1.0000   1.0000   1.0000   1.0000   1.0000
     1.0000   1.0000   1.0000   1.0000   1.0000   1.0000   1.0000   1.0000
     1.0000   1.0000   1.0000   1.0000   1.0000   1.0000   1.0000   1.0000
     1.0000   1.0000   1.0000   1.0000   1.0000   1.0000   1.0000   1.0000
     1.0000   1.0000   1.0000   1.0000   1.0000   1.0000   1.0000   1.0000
     1.0000   1.0000   1.0000   1.0000   1.0000   1.0000   1.0000   1.0000
     1.0000   1.0000   1.0000   1.0000   1.0000   1.0000   1.0000   1.0000
     1.0000   1.0000   1.0000   1.0000   1.0338   1.0338   1.0355   1.0355
    -0.0336  -0.0336  -0.0310  -0.0310  -0.0002  -0.0002  -0.0001  -0.0001
    -0.0000  -0.0000  -0.0000  -0.0000  -0.0000  -0.0000

          k = 0.0000 0.3750 0.2500 ( 11295 PWs)   bands (ev):

   -56.5041 -56.5041 -56.4952 -56.4952 -56.4799 -56.4799 -56.4772 -56.4772
   -28.5874 -28.5833 -28.5772 -28.5757 -28.5408 -28.5382 -28.5156 -28.5146
   -27.6313 -27.6286 -27.5792 -27.5751 -27.5605 -27.5520 -27.5418 -27.5333
   -27.5224 -27.5026 -27.4907 -27.4829 -27.4622 -27.4494 -27.4366 -27.4340
     4.0405   4.0408   5.4165   5.4173   7.0480   7.0490   8.0210   8.0256
     9.9593   9.9627  10.2694  10.2748  10.9113  10.9151  11.0723  11.0744
    11.9251  11.9296  12.2411  12.2448  12.5543  12.5585  12.7984  12.8034
    13.1003  13.1068  13.3331  13.3380  13.5321  13.5371  13.6279  13.6343
    13.7279  13.7390  13.9982  14.0094  14.4330  14.4572  14.8071  14.8382
    15.1049  15.1234  15.1489  15.1668  15.5608  15.5876  15.6539  15.6821
    16.1874  16.1970  16.4134  16.4246  17.2844  17.3154

     occupation numbers 
     1.0000   1.0000   1.0000   1.0000   1.0000   1.0000   1.0000   1.0000
     1.0000   1.0000   1.0000   1.0000   1.0000   1.0000   1.0000   1.0000
     1.0000   1.0000   1.0000   1.0000   1.0000   1.0000   1.0000   1.0000
     1.0000   1.0000   1.0000   1.0000   1.0000   1.0000   1.0000   1.0000
     1.0000   1.0000   1.0000   1.0000   1.0000   1.0000   1.0000   1.0000
     1.0000   1.0000   1.0000   1.0000   1.0000   1.0000   1.0000   1.0000
     1.0000   1.0000   1.0000   1.0000   1.0000   1.0000   1.0000   1.0000
     1.0000   1.0000   1.0000   1.0000   1.0000   1.0000   1.0000   1.0000
     1.0000   1.0000   1.0000   1.0000   1.0104   1.0134   0.8917   0.8269
     0.1019   0.0704   0.0348   0.0149  -0.0036  -0.0024  -0.0008  -0.0005
    -0.0000  -0.0000  -0.0000  -0.0000  -0.0000  -0.0000

          k = 0.0000-0.5000 0.2500 ( 11338 PWs)   bands (ev):

   -56.4997 -56.4997 -56.4997 -56.4997 -56.4785 -56.4785 -56.4785 -56.4785
   -28.5836 -28.5836 -28.5784 -28.5784 -28.5292 -28.5292 -28.5259 -28.5259
   -27.6293 -27.6293 -27.5764 -27.5764 -27.5570 -27.5570 -27.5336 -27.5336
   -27.5174 -27.5174 -27.4882 -27.4882 -27.4545 -27.4545 -27.4345 -27.4345
     4.6910   4.6910   4.6917   4.6917   7.4869   7.4869   7.4904   7.4904
    10.2657  10.2657  10.2704  10.2704  10.8445  10.8445  10.8490  10.8490
    12.0951  12.0951  12.1008  12.1008  12.6607  12.6607  12.6712  12.6712
    13.1881  13.1881  13.1953  13.1953  13.6624  13.6624  13.6722  13.6722
    13.8547  13.8547  13.8619  13.8619  14.6374  14.6374  14.6706  14.6706
    15.0906  15.0906  15.1172  15.1172  15.5697  15.5697  15.5968  15.5968
    16.2845  16.2845  16.2957  16.2957  17.4769  17.4772

     occupation numbers 
     1.0000   1.0000   1.0000   1.0000   1.0000   1.0000   1.0000   1.0000
     1.0000   1.0000   1.0000   1.0000   1.0000   1.0000   1.0000   1.0000
     1.0000   1.0000   1.0000   1.0000   1.0000   1.0000   1.0000   1.0000
     1.0000   1.0000   1.0000   1.0000   1.0000   1.0000   1.0000   1.0000
     1.0000   1.0000   1.0000   1.0000   1.0000   1.0000   1.0000   1.0000
     1.0000   1.0000   1.0000   1.0000   1.0000   1.0000   1.0000   1.0000
     1.0000   1.0000   1.0000   1.0000   1.0000   1.0000   1.0000   1.0000
     1.0000   1.0000   1.0000   1.0000   1.0000   1.0000   1.0000   1.0000
     1.0000   1.0000   1.0000   1.0000   1.0349   1.0349   1.0290   1.0290
     0.1292   0.1292   0.0804   0.0804  -0.0031  -0.0031  -0.0021  -0.0021
    -0.0000  -0.0000  -0.0000  -0.0000  -0.0000  -0.0000

          k = 0.0000-0.5000 0.3750 ( 11296 PWs)   bands (ev):

   -56.4983 -56.4983 -56.4983 -56.4983 -56.4799 -56.4799 -56.4799 -56.4799
   -28.5787 -28.5787 -28.5752 -28.5752 -28.5336 -28.5336 -28.5309 -28.5309
   -27.6183 -27.6183 -27.5892 -27.5892 -27.5474 -27.5474 -27.5316 -27.5316
   -27.5222 -27.5222 -27.5035 -27.5035 -27.4445 -27.4445 -27.4335 -27.4335
     5.0893   5.0893   5.0902   5.0902   6.8138   6.8138   6.8159   6.8159
    10.6240  10.6240  10.6262  10.6262  10.8527  10.8527  10.8562  10.8562
    11.8730  11.8730  11.8763  11.8763  12.3349  12.3349  12.3427  12.3427
    13.3020  13.3020  13.3074  13.3074  13.9490  13.9490  13.9555  13.9555
    14.0785  14.0785  14.0865  14.0865  14.6212  14.6212  14.6531  14.6531
    14.8218  14.8218  14.8621  14.8621  15.4466  15.4466  15.4657  15.4657
    16.4436  16.4436  16.4558  16.4558  17.1887  17.1911

     occupation numbers 
     1.0000   1.0000   1.0000   1.0000   1.0000   1.0000   1.0000   1.0000
     1.0000   1.0000   1.0000   1.0000   1.0000   1.0000   1.0000   1.0000
     1.0000   1.0000   1.0000   1.0000   1.0000   1.0000   1.0000   1.0000
     1.0000   1.0000   1.0000   1.0000   1.0000   1.0000   1.0000   1.0000
     1.0000   1.0000   1.0000   1.0000   1.0000   1.0000   1.0000   1.0000
     1.0000   1.0000   1.0000   1.0000   1.0000   1.0000   1.0000   1.0000
     1.0000   1.0000   1.0000   1.0000   1.0000   1.0000   1.0000   1.0000
     1.0000   1.0000   1.0000   1.0000   1.0000   1.0000   1.0000   1.0000
     1.0000   1.0000   1.0000   1.0000   1.0355   1.0355   1.0329   1.0329
     0.8627   0.8627   0.7692   0.7692  -0.0141  -0.0141  -0.0116  -0.0116
    -0.0000  -0.0000  -0.0000  -0.0000  -0.0000  -0.0000

          k =-0.1250 0.3750 0.2500 ( 11298 PWs)   bands (ev):

   -56.5034 -56.5034 -56.4949 -56.4949 -56.4805 -56.4805 -56.4776 -56.4776
   -28.5863 -28.5824 -28.5757 -28.5742 -28.5418 -28.5394 -28.5176 -28.5165
   -27.6295 -27.6266 -27.5793 -27.5734 -27.5621 -27.5543 -27.5414 -27.5363
   -27.5191 -27.5099 -27.4847 -27.4784 -27.4649 -27.4529 -27.4356 -27.4333
     4.1378   4.1380   5.4902   5.4916   7.0410   7.0438   7.9713   7.9756
     9.4172   9.4198  10.2014  10.2028  10.9145  10.9160  11.5447  11.5483
    11.7464  11.7486  12.1890  12.1927  12.6582  12.6627  12.8604  12.8659
    13.0833  13.0879  13.2584  13.2702  13.4133  13.4164  13.6454  13.6568
    13.7953  13.8042  14.0770  14.0860  14.4873  14.5143  14.8187  14.8466
    15.0848  15.1040  15.1639  15.1815  15.4844  15.4965  15.6239  15.6423
    16.1951  16.2034  16.4160  16.4275  17.2537  17.2832

     occupation numbers 
     1.0000   1.0000   1.0000   1.0000   1.0000   1.0000   1.0000   1.0000
     1.0000   1.0000   1.0000   1.0000   1.0000   1.0000   1.0000   1.0000
     1.0000   1.0000   1.0000   1.0000   1.0000   1.0000   1.0000   1.0000
     1.0000   1.0000   1.0000   1.0000   1.0000   1.0000   1.0000   1.0000
     1.0000   1.0000   1.0000   1.0000   1.0000   1.0000   1.0000   1.0000
     1.0000   1.0000   1.0000   1.0000   1.0000   1.0000   1.0000   1.0000
     1.0000   1.0000   1.0000   1.0000   1.0000   1.0000   1.0000   1.0000
     1.0000   1.0000   1.0000   1.0000   1.0000   1.0000   1.0000   1.0000
     1.0000   1.0000   1.0000   1.0000   1.0179   1.0223   0.8690   0.8074
     0.1412   0.1035   0.0179   0.0015  -0.0094  -0.0082  -0.0014  -0.0010
    -0.0000  -0.0000  -0.0000  -0.0000  -0.0000  -0.0000

          k =-0.1250-0.5000 0.2500 ( 11288 PWs)   bands (ev):

   -56.4991 -56.4991 -56.4991 -56.4991 -56.4791 -56.4791 -56.4791 -56.4791
   -28.5822 -28.5822 -28.5771 -28.5771 -28.5309 -28.5309 -28.5274 -28.5274
   -27.6272 -27.6272 -27.5753 -27.5753 -27.5604 -27.5604 -27.5324 -27.5324
   -27.5205 -27.5205 -27.4834 -27.4834 -27.4574 -27.4574 -27.4339 -27.4339
     4.7801   4.7801   4.7809   4.7809   7.4708   7.4708   7.4753   7.4753
     9.7730   9.7730   9.7741   9.7741  11.2718  11.2718  11.2769  11.2769
    11.9368  11.9368  11.9419  11.9419  12.7539  12.7539  12.7639  12.7639
    13.1582  13.1582  13.1669  13.1669  13.5593  13.5593  13.5676  13.5676
    13.9627  13.9627  13.9721  13.9721  14.6786  14.6786  14.7121  14.7121
    15.0787  15.0787  15.1037  15.1037  15.5316  15.5316  15.5534  15.5534
    16.2885  16.2885  16.2991  16.2991  17.4683  17.4777

     occupation numbers 
     1.0000   1.0000   1.0000   1.0000   1.0000   1.0000   1.0000   1.0000
     1.0000   1.0000   1.0000   1.0000   1.0000   1.0000   1.0000   1.0000
     1.0000   1.0000   1.0000   1.0000   1.0000   1.0000   1.0000   1.0000
     1.0000   1.0000   1.0000   1.0000   1.0000   1.0000   1.0000   1.0000
     1.0000   1.0000   1.0000   1.0000   1.0000   1.0000   1.0000   1.0000
     1.0000   1.0000   1.0000   1.0000   1.0000   1.0000   1.0000   1.0000
     1.0000   1.0000   1.0000   1.0000   1.0000   1.0000   1.0000   1.0000
     1.0000   1.0000   1.0000   1.0000   1.0000   1.0000   1.0000   1.0000
     1.0000   1.0000   1.0000   1.0000   1.0264   1.0264   1.0096   1.0096
     0.1541   0.1541   0.1040   0.1040  -0.0053  -0.0053  -0.0039  -0.0039
    -0.0000  -0.0000  -0.0000  -0.0000  -0.0000  -0.0000

          k =-0.1250-0.5000 0.3750 ( 11296 PWs)   bands (ev):

   -56.4977 -56.4977 -56.4977 -56.4977 -56.4805 -56.4805 -56.4805 -56.4805
   -28.5774 -28.5774 -28.5739 -28.5739 -28.5353 -28.5353 -28.5325 -28.5325
   -27.6167 -27.6167 -27.5878 -27.5878 -27.5534 -27.5534 -27.5327 -27.5327
   -27.5216 -27.5216 -27.4963 -27.4963 -27.4474 -27.4474 -27.4342 -27.4342
     5.1725   5.1725   5.1736   5.1736   6.8568   6.8568   6.8597   6.8597
     9.9473   9.9473   9.9499   9.9499  11.1547  11.1547  11.1579  11.1579
    11.9548  11.9548  11.9602  11.9602  12.4569  12.4569  12.4662  12.4662
    13.2322  13.2322  13.2381  13.2381  13.7794  13.7794  13.7924  13.7924
    14.1912  14.1912  14.1997  14.1997  14.6770  14.6770  14.7039  14.7039
    14.8666  14.8666  14.9054  14.9054  15.4173  15.4173  15.4336  15.4336
    16.4122  16.4122  16.4235  16.4235  17.1495  17.1556

     occupation numbers 
     1.0000   1.0000   1.0000   1.0000   1.0000   1.0000   1.0000   1.0000
     1.0000   1.0000   1.0000   1.0000   1.0000   1.0000   1.0000   1.0000
     1.0000   1.0000   1.0000   1.0000   1.0000   1.0000   1.0000   1.0000
     1.0000   1.0000   1.0000   1.0000   1.0000   1.0000   1.0000   1.0000
     1.0000   1.0000   1.0000   1.0000   1.0000   1.0000   1.0000   1.0000
     1.0000   1.0000   1.0000   1.0000   1.0000   1.0000   1.0000   1.0000
     1.0000   1.0000   1.0000   1.0000   1.0000   1.0000   1.0000   1.0000
     1.0000   1.0000   1.0000   1.0000   1.0000   1.0000   1.0000   1.0000
     1.0003   1.0003   1.0003   1.0003   1.0270   1.0270   1.0147   1.0147
     0.7574   0.7574   0.6492   0.6492  -0.0185  -0.0185  -0.0159  -0.0159
    -0.0000  -0.0000  -0.0000  -0.0000  -0.0000  -0.0000

          k =-0.2500-0.5000 0.3750 ( 11312 PWs)   bands (ev):

   -56.4960 -56.4960 -56.4960 -56.4960 -56.4822 -56.4822 -56.4822 -56.4822
   -28.5736 -28.5736 -28.5701 -28.5701 -28.5399 -28.5399 -28.5369 -28.5369
   -27.6117 -27.6117 -27.5846 -27.5846 -27.5642 -27.5642 -27.5405 -27.5405
   -27.5130 -27.5130 -27.4841 -27.4841 -27.4540 -27.4540 -27.4371 -27.4371
     5.4120   5.4120   5.4136   5.4136   6.9225   6.9225   6.9272   6.9272
     9.2751   9.2751   9.2799   9.2799  10.7784  10.7784  10.7811  10.7811
    12.2798  12.2798  12.2880  12.2880  12.7220  12.7220  12.7320  12.7320
    13.1097  13.1097  13.1187  13.1187  13.5275  13.5275  13.5392  13.5392
    14.3810  14.3810  14.3882  14.3882  14.7980  14.7980  14.8163  14.8163
    14.9946  14.9946  15.0262  15.0262  15.3342  15.3342  15.3483  15.3483
    16.3548  16.3548  16.3647  16.3647  17.0025  17.0035

     occupation numbers 
     1.0000   1.0000   1.0000   1.0000   1.0000   1.0000   1.0000   1.0000
     1.0000   1.0000   1.0000   1.0000   1.0000   1.0000   1.0000   1.0000
     1.0000   1.0000   1.0000   1.0000   1.0000   1.0000   1.0000   1.0000
     1.0000   1.0000   1.0000   1.0000   1.0000   1.0000   1.0000   1.0000
     1.0000   1.0000   1.0000   1.0000   1.0000   1.0000   1.0000   1.0000
     1.0000   1.0000   1.0000   1.0000   1.0000   1.0000   1.0000   1.0000
     1.0000   1.0000   1.0000   1.0000   1.0000   1.0000   1.0000   1.0000
     1.0000   1.0000   1.0000   1.0000   1.0000   1.0000   1.0000   1.0000
     1.0056   1.0056   1.0061   1.0061   0.9081   0.9081   0.8738   0.8738
     0.3758   0.3758   0.2845   0.2845  -0.0319  -0.0319  -0.0299  -0.0299
    -0.0000  -0.0000  -0.0000  -0.0000  -0.0000  -0.0000

     the Fermi energy is    14.9542 ev

!    total energy              =   -1180.35112700 Ry

     total all-electron energy =    -10727.811963 Ry
     estimated scf accuracy    <       0.00000068 Ry
     smearing contrib. (-TS)   =      -0.00080995 Ry
     internal energy E=F+TS    =   -1180.35031704 Ry

     The total energy is F=E-TS. E is the sum of the following terms:
     one-electron contribution =    -336.80543772 Ry
     hartree contribution      =     207.05037155 Ry
     xc contribution           =    -114.36269272 Ry
     ewald contribution        =    -496.51183961 Ry
     one-center paw contrib.   =    -439.72071855 Ry
      -> PAW hartree energy AE =     126.73081465 Ry
      -> PAW hartree energy PS =    -125.76345048 Ry
      -> PAW xc energy AE      =     -96.24090501 Ry
      -> PAW xc energy PS      =      20.93355084 Ry
      -> total E_H with PAW    =     208.01773572 Ry
      -> total E_XC with PAW   =    -189.67004688 Ry

     convergence has been achieved in   8 iterations

     Writing output data file /zfs_data/vergnior/martin/Scratch/OAL/CrSi/convergence/cutoff/8x8x8/100/tmp/CrSi.save/
 
     init_run     :      7.32s CPU      7.62s WALL (       1 calls)
     electrons    :    220.65s CPU    225.77s WALL (       1 calls)

     Called by init_run:
     wfcinit      :      5.94s CPU      6.13s WALL (       1 calls)
     wfcinit:atom :      0.07s CPU      0.07s WALL (      45 calls)
     wfcinit:wfcr :      5.60s CPU      5.77s WALL (      45 calls)
     potinit      :      0.18s CPU      0.20s WALL (       1 calls)
     hinit0       :      0.21s CPU      0.22s WALL (       1 calls)

     Called by electrons:
     c_bands      :    181.72s CPU    184.77s WALL (       9 calls)
     sum_band     :     33.23s CPU     34.61s WALL (       9 calls)
     v_of_rho     :      0.21s CPU      0.22s WALL (       9 calls)
     v_h          :      0.02s CPU      0.02s WALL (       9 calls)
     v_xc         :      0.20s CPU      0.20s WALL (       9 calls)
     newd         :      4.80s CPU      5.50s WALL (       9 calls)
     PAW_pot      :      1.12s CPU      1.14s WALL (       9 calls)
     mix_rho      :      0.13s CPU      0.14s WALL (       9 calls)

     Called by c_bands:
     init_us_2    :      1.07s CPU      1.08s WALL (     855 calls)
     cegterg      :    163.63s CPU    166.52s WALL (     405 calls)

     Called by sum_band:
     sum_band:wei :      0.06s CPU      0.06s WALL (       9 calls)
     sum_band:loo :     29.43s CPU     29.88s WALL (       9 calls)
     sum_band:buf :      0.33s CPU      0.34s WALL (     405 calls)
     sum_band:ini :      0.51s CPU      0.51s WALL (     405 calls)
     sum_band:cal :      2.44s CPU      2.45s WALL (     405 calls)
     sum_band:bec :      5.16s CPU      5.18s WALL (     405 calls)
     addusdens    :      3.63s CPU      4.56s WALL (       9 calls)
     addusd:skk   :      0.01s CPU      0.01s WALL (      18 calls)
     addusd:dgemm :      1.41s CPU      2.31s WALL (      18 calls)
     addusd:qvan2 :      2.17s CPU      2.17s WALL (      18 calls)

     Called by *egterg:
     cdiaghg      :     16.02s CPU     16.13s WALL (    2296 calls)
     cegterg:over :     10.04s CPU     10.09s WALL (    1936 calls)
     cegterg:upda :      5.58s CPU      5.61s WALL (    1936 calls)
     cegterg:last :     10.10s CPU     10.13s WALL (    1245 calls)
     h_psi        :    104.05s CPU    106.80s WALL (    2386 calls)
     s_psi        :     18.04s CPU     18.11s WALL (    2386 calls)
     g_psi        :      0.38s CPU      0.38s WALL (    1936 calls)

     Called by h_psi:
     h_psi:calbec :      9.28s CPU      9.35s WALL (    2386 calls)
     vloc_psi     :     77.30s CPU     79.89s WALL (    2386 calls)
     add_vuspsi   :     16.79s CPU     16.89s WALL (    2386 calls)

     General routines
     calbec       :     11.70s CPU     11.79s WALL (    2791 calls)
     fft          :      0.19s CPU      0.20s WALL (     188 calls)
     ffts         :      0.02s CPU      0.02s WALL (      72 calls)
     fftw         :     64.56s CPU     66.54s WALL (  576376 calls)
     interpolate  :      0.05s CPU      0.05s WALL (      36 calls)
 
     Parallel routines
     fft_scatt_xy :      8.55s CPU      8.83s WALL (  576636 calls)
     fft_scatt_yz :     33.26s CPU     34.28s WALL (  576636 calls)

     PAW routines
     PAW_pot      :      1.12s CPU      1.14s WALL (       9 calls)
     PAW_symme    :      0.02s CPU      0.02s WALL (      18 calls)
 
     PWSCF        :   3m51.45s CPU   3m58.86s WALL

 
   This run was terminated on:  18:45:42  30Jul2021            

=------------------------------------------------------------------------------=
   JOB DONE.
=------------------------------------------------------------------------------=
