MPI startup(): Warning: I_MPI_PMI_LIBRARY will be ignored since the hydra process manager was found
MPI startup(): Warning: I_MPI_PMI_LIBRARY will be ignored since the hydra process manager was found
MPI startup(): Warning: I_MPI_PMI_LIBRARY will be ignored since the hydra process manager was found
MPI startup(): Warning: I_MPI_PMI_LIBRARY will be ignored since the hydra process manager was found
MPI startup(): Warning: I_MPI_PMI_LIBRARY will be ignored since the hydra process manager was found
MPI startup(): Warning: I_MPI_PMI_LIBRARY will be ignored since the hydra process manager was found
MPI startup(): Warning: I_MPI_PMI_LIBRARY will be ignored since the hydra process manager was found
MPI startup(): Warning: I_MPI_PMI_LIBRARY will be ignored since the hydra process manager was found
MPI startup(): Warning: I_MPI_PMI_LIBRARY will be ignored since the hydra process manager was found
MPI startup(): Warning: I_MPI_PMI_LIBRARY will be ignored since the hydra process manager was found
MPI startup(): Warning: I_MPI_PMI_LIBRARY will be ignored since the hydra process manager was found
MPI startup(): Warning: I_MPI_PMI_LIBRARY will be ignored since the hydra process manager was found
MPI startup(): Warning: I_MPI_PMI_LIBRARY will be ignored since the hydra process manager was found
MPI startup(): Warning: I_MPI_PMI_LIBRARY will be ignored since the hydra process manager was found
MPI startup(): Warning: I_MPI_PMI_LIBRARY will be ignored since the hydra process manager was found
MPI startup(): Warning: I_MPI_PMI_LIBRARY will be ignored since the hydra process manager was found
MPI startup(): Warning: I_MPI_PMI_LIBRARY will be ignored since the hydra process manager was found
MPI startup(): Warning: I_MPI_PMI_LIBRARY will be ignored since the hydra process manager was found
MPI startup(): Warning: I_MPI_PMI_LIBRARY will be ignored since the hydra process manager was found
MPI startup(): Warning: I_MPI_PMI_LIBRARY will be ignored since the hydra process manager was found
MPI startup(): Warning: I_MPI_PMI_LIBRARY will be ignored since the hydra process manager was found
MPI startup(): Warning: I_MPI_PMI_LIBRARY will be ignored since the hydra process manager was found
MPI startup(): Warning: I_MPI_PMI_LIBRARY will be ignored since the hydra process manager was found
MPI startup(): Warning: I_MPI_PMI_LIBRARY will be ignored since the hydra process manager was found

     Program PWSCF v.6.7MaX starts on  1Aug2021 at 12:45:22 

     This program is part of the open-source Quantum ESPRESSO suite
     for quantum simulation of materials; please cite
         "P. Giannozzi et al., J. Phys.:Condens. Matter 21 395502 (2009);
         "P. Giannozzi et al., J. Phys.:Condens. Matter 29 465901 (2017);
          URL http://www.quantum-espresso.org", 
     in publications or presentations arising from this work. More details at
     http://www.quantum-espresso.org/quote

     Parallel version (MPI), running on    24 processors

     MPI processes distributed on     1 nodes
     R & G space division:  proc/nbgrp/npool/nimage =      24
     Waiting for input...
     Reading input from standard input

     Current dimensions of program PWSCF are:
     Max number of different atomic species (ntypx) = 10
     Max number of k-points (npk) =  40000
     Max angular momentum in pseudopotentials (lmaxx) =  3
     file Cr.rel-pbe-spn-kjpaw_psl.1.0.0.UPF: wavefunction(s)  3S 3P 3P 3D 3D renormalized
     file Si.rel-pbe-n-kjpaw_psl.1.0.0.UPF: wavefunction(s)  3S 3P 3P renormalized

     Subspace diagonalization in iterative solution of the eigenvalue problem:
     a serial algorithm will be used

     Message from routine setup:
     using ibrav=0 with symmetry is DISCOURAGED, use correct ibrav instead
 
     Parallelization info
     --------------------
     sticks:   dense  smooth     PW     G-vecs:    dense   smooth      PW
     Min         228      91     25                12702     3210     487
     Max         229      93     26                12704     3214     492
     Sum        5473    2201    621               304867    77053   11753
 


     bravais-lattice index     =            0
     lattice parameter (alat)  =       8.7475  a.u.
     unit-cell volume          =     669.3575 (a.u.)^3
     number of atoms/cell      =            8
     number of atomic types    =            2
     number of electrons       =        72.00
     number of Kohn-Sham states=           86
     kinetic-energy cutoff     =      90.0000  Ry
     charge density cutoff     =     900.0000  Ry
     scf convergence threshold =      1.0E-06
     mixing beta               =       0.7000
     number of iterations used =            8  plain     mixing
     Exchange-correlation= SLA  PW   PBX  PBC
                           (   1   4   3   4   0   0   0)
     Non magnetic calculation with spin-orbit


     celldm(1)=   8.747542  celldm(2)=   0.000000  celldm(3)=   0.000000
     celldm(4)=   0.000000  celldm(5)=   0.000000  celldm(6)=   0.000000

     crystal axes: (cart. coord. in units of alat)
               a(1) = (   1.000000   0.000000   0.000000 )  
               a(2) = (   0.000000   1.000000   0.000000 )  
               a(3) = (   0.000000   0.000000   1.000000 )  

     reciprocal axes: (cart. coord. in units 2 pi/alat)
               b(1) = (  1.000000  0.000000  0.000000 )  
               b(2) = (  0.000000  1.000000  0.000000 )  
               b(3) = (  0.000000  0.000000  1.000000 )  


     PseudoPot. # 1 for Cr read from file:
     ../../../../pseudo/Cr.rel-pbe-spn-kjpaw_psl.1.0.0.UPF
     MD5 check sum: 1e24e2b5251376a8b945118fca0c7981
     Pseudo is Projector augmented-wave + core cor, Zval = 14.0
     Generated using &quot;atomic&quot; code by A. Dal Corso  v.6.3
     Shape of augmentation charge: PSQ
     Using radial grid of 1183 points, 10 beta functions with: 
                l(1) =   0
                l(2) =   0
                l(3) =   1
                l(4) =   1
                l(5) =   1
                l(6) =   1
                l(7) =   2
                l(8) =   2
                l(9) =   2
               l(10) =   2
     Q(r) pseudized with 0 coefficients 


     PseudoPot. # 2 for Si read from file:
     ../../../../pseudo/Si.rel-pbe-n-kjpaw_psl.1.0.0.UPF
     MD5 check sum: d74f6caf6830ea4c2076867160cab1b0
     Pseudo is Projector augmented-wave + core cor, Zval =  4.0
     Generated using &quot;atomic&quot; code by A. Dal Corso  v.6.3
     Shape of augmentation charge: PSQ
     Using radial grid of 1141 points, 10 beta functions with: 
                l(1) =   0
                l(2) =   0
                l(3) =   1
                l(4) =   1
                l(5) =   1
                l(6) =   1
                l(7) =   2
                l(8) =   2
                l(9) =   2
               l(10) =   2
     Q(r) pseudized with 0 coefficients 


     atomic species   valence    mass     pseudopotential
        Cr            14.00    51.99600     Cr( 1.00)
        Si             4.00    28.08500     Si( 1.00)

     12 Sym. Ops. (no inversion) found ( 9 have fractional translation)


                                    s                        frac. trans.

      isym =  1     identity                                     

 cryst.   s( 1) = (     1          0          0      )
                  (     0          1          0      )
                  (     0          0          1      )

 cart.    s( 1) = (  1.0000000  0.0000000  0.0000000 )
                  (  0.0000000  1.0000000  0.0000000 )
                  (  0.0000000  0.0000000  1.0000000 )


      isym =  2     180 deg rotation - cart. axis [0,0,1]        

 cryst.   s( 2) = (    -1          0          0      )    f =(  0.5000000 )
                  (     0         -1          0      )       (  0.0000000 )
                  (     0          0          1      )       ( -0.5000000 )

 cart.    s( 2) = ( -1.0000000  0.0000000  0.0000000 )    f =(  0.5000000 )
                  (  0.0000000 -1.0000000  0.0000000 )       (  0.0000000 )
                  (  0.0000000  0.0000000  1.0000000 )       ( -0.5000000 )


      isym =  3     180 deg rotation - cart. axis [0,1,0]        

 cryst.   s( 3) = (    -1          0          0      )    f =(  0.0000000 )
                  (     0          1          0      )       ( -0.5000000 )
                  (     0          0         -1      )       (  0.5000000 )

 cart.    s( 3) = ( -1.0000000  0.0000000  0.0000000 )    f =(  0.0000000 )
                  (  0.0000000  1.0000000  0.0000000 )       ( -0.5000000 )
                  (  0.0000000  0.0000000 -1.0000000 )       (  0.5000000 )


      isym =  4     180 deg rotation - cart. axis [1,0,0]        

 cryst.   s( 4) = (     1          0          0      )    f =(  0.5000000 )
                  (     0         -1          0      )       (  0.5000000 )
                  (     0          0         -1      )       (  0.0000000 )

 cart.    s( 4) = (  1.0000000  0.0000000  0.0000000 )    f =(  0.5000000 )
                  (  0.0000000 -1.0000000  0.0000000 )       (  0.5000000 )
                  (  0.0000000  0.0000000 -1.0000000 )       (  0.0000000 )


      isym =  5     120 deg rotation - cart. axis [-1,-1,-1]     

 cryst.   s( 5) = (     0          0          1      )
                  (     1          0          0      )
                  (     0          1          0      )

 cart.    s( 5) = (  0.0000000  1.0000000  0.0000000 )
                  (  0.0000000  0.0000000  1.0000000 )
                  (  1.0000000  0.0000000  0.0000000 )


      isym =  6     120 deg rotation - cart. axis [-1,1,1]       

 cryst.   s( 6) = (     0          0         -1      )    f =(  0.0000000 )
                  (    -1          0          0      )       ( -0.5000000 )
                  (     0          1          0      )       (  0.5000000 )

 cart.    s( 6) = (  0.0000000 -1.0000000  0.0000000 )    f =(  0.0000000 )
                  (  0.0000000  0.0000000  1.0000000 )       ( -0.5000000 )
                  ( -1.0000000  0.0000000  0.0000000 )       (  0.5000000 )


      isym =  7     120 deg rotation - cart. axis [1,1,-1]       

 cryst.   s( 7) = (     0          0         -1      )    f =(  0.5000000 )
                  (     1          0          0      )       (  0.5000000 )
                  (     0         -1          0      )       (  0.0000000 )

 cart.    s( 7) = (  0.0000000  1.0000000  0.0000000 )    f =(  0.5000000 )
                  (  0.0000000  0.0000000 -1.0000000 )       (  0.5000000 )
                  ( -1.0000000  0.0000000  0.0000000 )       (  0.0000000 )


      isym =  8     120 deg rotation - cart. axis [1,-1,1]       

 cryst.   s( 8) = (     0          0          1      )    f =(  0.5000000 )
                  (    -1          0          0      )       (  0.0000000 )
                  (     0         -1          0      )       ( -0.5000000 )

 cart.    s( 8) = (  0.0000000 -1.0000000  0.0000000 )    f =(  0.5000000 )
                  (  0.0000000  0.0000000 -1.0000000 )       (  0.0000000 )
                  (  1.0000000  0.0000000  0.0000000 )       ( -0.5000000 )


      isym =  9     120 deg rotation - cart. axis [1,1,1]        

 cryst.   s( 9) = (     0          1          0      )
                  (     0          0          1      )
                  (     1          0          0      )

 cart.    s( 9) = (  0.0000000  0.0000000  1.0000000 )
                  (  1.0000000  0.0000000  0.0000000 )
                  (  0.0000000  1.0000000  0.0000000 )


      isym = 10     120 deg rotation - cart. axis [-1,1,-1]      

 cryst.   s(10) = (     0         -1          0      )    f =(  0.5000000 )
                  (     0          0         -1      )       (  0.5000000 )
                  (     1          0          0      )       (  0.0000000 )

 cart.    s(10) = (  0.0000000  0.0000000  1.0000000 )    f =(  0.5000000 )
                  ( -1.0000000  0.0000000  0.0000000 )       (  0.5000000 )
                  (  0.0000000 -1.0000000  0.0000000 )       (  0.0000000 )


      isym = 11     120 deg rotation - cart. axis [1,-1,-1]      

 cryst.   s(11) = (     0         -1          0      )    f =(  0.5000000 )
                  (     0          0          1      )       (  0.0000000 )
                  (    -1          0          0      )       ( -0.5000000 )

 cart.    s(11) = (  0.0000000  0.0000000 -1.0000000 )    f =(  0.5000000 )
                  ( -1.0000000  0.0000000  0.0000000 )       (  0.0000000 )
                  (  0.0000000  1.0000000  0.0000000 )       ( -0.5000000 )


      isym = 12     120 deg rotation - cart. axis [-1,-1,1]      

 cryst.   s(12) = (     0          1          0      )    f =(  0.0000000 )
                  (     0          0         -1      )       ( -0.5000000 )
                  (    -1          0          0      )       (  0.5000000 )

 cart.    s(12) = (  0.0000000  0.0000000 -1.0000000 )    f =(  0.0000000 )
                  (  1.0000000  0.0000000  0.0000000 )       ( -0.5000000 )
                  (  0.0000000 -1.0000000  0.0000000 )       (  0.5000000 )


   Cartesian axes

     site n.     atom                  positions (alat units)
         1           Cr  tau(   1) = (   0.8640000   0.3640000   0.1360000  )
         2           Cr  tau(   2) = (   0.3640000   0.1360000   0.8640000  )
         3           Cr  tau(   3) = (   0.1360000   0.8640000   0.3640000  )
         4           Cr  tau(   4) = (   0.6360000   0.6360000   0.6360000  )
         5           Si  tau(   5) = (   0.1540000   0.6540000   0.8460000  )
         6           Si  tau(   6) = (   0.6540000   0.8460000   0.1540000  )
         7           Si  tau(   7) = (   0.8460000   0.1540000   0.6540000  )
         8           Si  tau(   8) = (   0.3460000   0.3460000   0.3460000  )

   Crystallographic axes

     site n.     atom                  positions (cryst. coord.)
         1           Cr  tau(   1) = (  0.8640000  0.3640000  0.1360000  )
         2           Cr  tau(   2) = (  0.3640000  0.1360000  0.8640000  )
         3           Cr  tau(   3) = (  0.1360000  0.8640000  0.3640000  )
         4           Cr  tau(   4) = (  0.6360000  0.6360000  0.6360000  )
         5           Si  tau(   5) = (  0.1540000  0.6540000  0.8460000  )
         6           Si  tau(   6) = (  0.6540000  0.8460000  0.1540000  )
         7           Si  tau(   7) = (  0.8460000  0.1540000  0.6540000  )
         8           Si  tau(   8) = (  0.3460000  0.3460000  0.3460000  )

     number of k points=    45  Methfessel-Paxton smearing, width (Ry)=  0.0180
                       cart. coord. in units 2pi/alat
        k(    1) = (   0.0000000   0.0000000   0.0000000), wk =   0.0019531
        k(    2) = (   0.0000000   0.0000000   0.1250000), wk =   0.0117188
        k(    3) = (   0.0000000   0.0000000   0.2500000), wk =   0.0117188
        k(    4) = (   0.0000000   0.0000000   0.3750000), wk =   0.0117188
        k(    5) = (   0.0000000   0.0000000  -0.5000000), wk =   0.0058594
        k(    6) = (   0.0000000   0.1250000   0.1250000), wk =   0.0234375
        k(    7) = (   0.0000000   0.1250000   0.2500000), wk =   0.0234375
        k(    8) = (   0.0000000   0.1250000   0.3750000), wk =   0.0234375
        k(    9) = (   0.0000000   0.1250000  -0.5000000), wk =   0.0117188
        k(   10) = (   0.0000000   0.2500000   0.2500000), wk =   0.0234375
        k(   11) = (   0.0000000   0.2500000   0.3750000), wk =   0.0234375
        k(   12) = (   0.0000000   0.2500000  -0.5000000), wk =   0.0117188
        k(   13) = (   0.0000000   0.3750000   0.3750000), wk =   0.0234375
        k(   14) = (   0.0000000   0.3750000  -0.5000000), wk =   0.0117188
        k(   15) = (   0.0000000  -0.5000000  -0.5000000), wk =   0.0058594
        k(   16) = (   0.1250000   0.1250000   0.1250000), wk =   0.0156250
        k(   17) = (   0.1250000   0.1250000   0.2500000), wk =   0.0468750
        k(   18) = (   0.1250000   0.1250000   0.3750000), wk =   0.0468750
        k(   19) = (   0.1250000   0.1250000  -0.5000000), wk =   0.0234375
        k(   20) = (   0.1250000   0.2500000   0.2500000), wk =   0.0468750
        k(   21) = (   0.1250000   0.2500000   0.3750000), wk =   0.0468750
        k(   22) = (   0.1250000   0.2500000  -0.5000000), wk =   0.0234375
        k(   23) = (   0.1250000   0.3750000   0.3750000), wk =   0.0468750
        k(   24) = (   0.1250000   0.3750000  -0.5000000), wk =   0.0234375
        k(   25) = (   0.1250000  -0.5000000  -0.5000000), wk =   0.0117188
        k(   26) = (   0.2500000   0.2500000   0.2500000), wk =   0.0156250
        k(   27) = (   0.2500000   0.2500000   0.3750000), wk =   0.0468750
        k(   28) = (   0.2500000   0.2500000  -0.5000000), wk =   0.0234375
        k(   29) = (   0.2500000   0.3750000   0.3750000), wk =   0.0468750
        k(   30) = (   0.2500000   0.3750000  -0.5000000), wk =   0.0234375
        k(   31) = (   0.2500000  -0.5000000  -0.5000000), wk =   0.0117188
        k(   32) = (   0.3750000   0.3750000   0.3750000), wk =   0.0156250
        k(   33) = (   0.3750000   0.3750000  -0.5000000), wk =   0.0234375
        k(   34) = (   0.3750000  -0.5000000  -0.5000000), wk =   0.0117188
        k(   35) = (  -0.5000000  -0.5000000  -0.5000000), wk =   0.0019531
        k(   36) = (   0.0000000   0.2500000   0.1250000), wk =   0.0234375
        k(   37) = (   0.0000000   0.3750000   0.1250000), wk =   0.0234375
        k(   38) = (   0.0000000  -0.5000000   0.1250000), wk =   0.0117188
        k(   39) = (   0.0000000   0.3750000   0.2500000), wk =   0.0234375
        k(   40) = (   0.0000000  -0.5000000   0.2500000), wk =   0.0117188
        k(   41) = (   0.0000000  -0.5000000   0.3750000), wk =   0.0117188
        k(   42) = (  -0.1250000   0.3750000   0.2500000), wk =   0.0468750
        k(   43) = (  -0.1250000  -0.5000000   0.2500000), wk =   0.0234375
        k(   44) = (  -0.1250000  -0.5000000   0.3750000), wk =   0.0234375
        k(   45) = (  -0.2500000  -0.5000000   0.3750000), wk =   0.0234375

                       cryst. coord.
        k(    1) = (   0.0000000   0.0000000   0.0000000), wk =   0.0019531
        k(    2) = (   0.0000000   0.0000000   0.1250000), wk =   0.0117188
        k(    3) = (   0.0000000   0.0000000   0.2500000), wk =   0.0117188
        k(    4) = (   0.0000000   0.0000000   0.3750000), wk =   0.0117188
        k(    5) = (   0.0000000   0.0000000  -0.5000000), wk =   0.0058594
        k(    6) = (   0.0000000   0.1250000   0.1250000), wk =   0.0234375
        k(    7) = (   0.0000000   0.1250000   0.2500000), wk =   0.0234375
        k(    8) = (   0.0000000   0.1250000   0.3750000), wk =   0.0234375
        k(    9) = (   0.0000000   0.1250000  -0.5000000), wk =   0.0117188
        k(   10) = (   0.0000000   0.2500000   0.2500000), wk =   0.0234375
        k(   11) = (   0.0000000   0.2500000   0.3750000), wk =   0.0234375
        k(   12) = (   0.0000000   0.2500000  -0.5000000), wk =   0.0117188
        k(   13) = (   0.0000000   0.3750000   0.3750000), wk =   0.0234375
        k(   14) = (   0.0000000   0.3750000  -0.5000000), wk =   0.0117188
        k(   15) = (   0.0000000  -0.5000000  -0.5000000), wk =   0.0058594
        k(   16) = (   0.1250000   0.1250000   0.1250000), wk =   0.0156250
        k(   17) = (   0.1250000   0.1250000   0.2500000), wk =   0.0468750
        k(   18) = (   0.1250000   0.1250000   0.3750000), wk =   0.0468750
        k(   19) = (   0.1250000   0.1250000  -0.5000000), wk =   0.0234375
        k(   20) = (   0.1250000   0.2500000   0.2500000), wk =   0.0468750
        k(   21) = (   0.1250000   0.2500000   0.3750000), wk =   0.0468750
        k(   22) = (   0.1250000   0.2500000  -0.5000000), wk =   0.0234375
        k(   23) = (   0.1250000   0.3750000   0.3750000), wk =   0.0468750
        k(   24) = (   0.1250000   0.3750000  -0.5000000), wk =   0.0234375
        k(   25) = (   0.1250000  -0.5000000  -0.5000000), wk =   0.0117188
        k(   26) = (   0.2500000   0.2500000   0.2500000), wk =   0.0156250
        k(   27) = (   0.2500000   0.2500000   0.3750000), wk =   0.0468750
        k(   28) = (   0.2500000   0.2500000  -0.5000000), wk =   0.0234375
        k(   29) = (   0.2500000   0.3750000   0.3750000), wk =   0.0468750
        k(   30) = (   0.2500000   0.3750000  -0.5000000), wk =   0.0234375
        k(   31) = (   0.2500000  -0.5000000  -0.5000000), wk =   0.0117188
        k(   32) = (   0.3750000   0.3750000   0.3750000), wk =   0.0156250
        k(   33) = (   0.3750000   0.3750000  -0.5000000), wk =   0.0234375
        k(   34) = (   0.3750000  -0.5000000  -0.5000000), wk =   0.0117188
        k(   35) = (  -0.5000000  -0.5000000  -0.5000000), wk =   0.0019531
        k(   36) = (   0.0000000   0.2500000   0.1250000), wk =   0.0234375
        k(   37) = (   0.0000000   0.3750000   0.1250000), wk =   0.0234375
        k(   38) = (   0.0000000  -0.5000000   0.1250000), wk =   0.0117188
        k(   39) = (   0.0000000   0.3750000   0.2500000), wk =   0.0234375
        k(   40) = (   0.0000000  -0.5000000   0.2500000), wk =   0.0117188
        k(   41) = (   0.0000000  -0.5000000   0.3750000), wk =   0.0117188
        k(   42) = (  -0.1250000   0.3750000   0.2500000), wk =   0.0468750
        k(   43) = (  -0.1250000  -0.5000000   0.2500000), wk =   0.0234375
        k(   44) = (  -0.1250000  -0.5000000   0.3750000), wk =   0.0234375
        k(   45) = (  -0.2500000  -0.5000000   0.3750000), wk =   0.0234375

     Dense  grid:   304867 G-vectors     FFT dimensions: (  90,  90,  90)

     Smooth grid:    77053 G-vectors     FFT dimensions: (  54,  54,  54)

     Dynamical RAM for                 wfc:       1.06 MB

     Dynamical RAM for     wfc (w. buffer):      48.53 MB

     Dynamical RAM for           str. fact:       0.39 MB

     Dynamical RAM for           local pot:       0.00 MB

     Dynamical RAM for          nlocal pot:       1.67 MB

     Dynamical RAM for                qrad:      12.61 MB

     Dynamical RAM for          rho,v,vnew:       5.29 MB

     Dynamical RAM for               rhoin:       1.76 MB

     Dynamical RAM for            rho*nmix:      12.41 MB

     Dynamical RAM for           G-vectors:       0.75 MB

     Dynamical RAM for          h,s,v(r/c):       1.35 MB

     Dynamical RAM for          <psi|beta>:       0.71 MB

     Dynamical RAM for                 psi:       2.11 MB

     Dynamical RAM for                hpsi:       2.11 MB

     Dynamical RAM for                spsi:       2.11 MB

     Dynamical RAM for      wfcinit/wfcrot:       2.35 MB

     Dynamical RAM for           addusdens:     119.02 MB

     Dynamical RAM for          addusforce:     120.34 MB

     Dynamical RAM for         addusstress:     121.74 MB

     Estimated static dynamical RAM per process >      85.97 MB

     Estimated max dynamical RAM per process >     207.70 MB

     Estimated total dynamical RAM >       4.87 GB

     Initial potential from superposition of free atoms

     starting charge   71.99469, renormalised to   72.00000
     Starting wfcs are  112 randomized atomic wfcs
     Checking if some PAW data can be deallocated... 
       PAW data deallocated on   12 nodes for type:  1
       PAW data deallocated on   12 nodes for type:  2

     total cpu time spent up to now is       14.7 secs

     Self-consistent Calculation

     iteration #  1     ecut=    90.00 Ry     beta= 0.70
     Davidson diagonalization with overlap
     ethr =  1.00E-02,  avg # of iterations =  2.0

     Threshold (ethr) on eigenvalues was too large:
     Diagonalizing with lowered threshold

     Davidson diagonalization with overlap
     ethr =  2.09E-04,  avg # of iterations =  4.3

     total cpu time spent up to now is       81.3 secs

     total energy              =   -1180.30980594 Ry
     estimated scf accuracy    <       0.18936656 Ry

     iteration #  2     ecut=    90.00 Ry     beta= 0.70
     Davidson diagonalization with overlap
     ethr =  2.63E-04,  avg # of iterations =  3.2

     total cpu time spent up to now is      115.5 secs

     total energy              =   -1180.31417223 Ry
     estimated scf accuracy    <       0.08298263 Ry

     iteration #  3     ecut=    90.00 Ry     beta= 0.70
     Davidson diagonalization with overlap
     ethr =  1.15E-04,  avg # of iterations =  5.0

     total cpu time spent up to now is      156.6 secs

     total energy              =   -1180.32594088 Ry
     estimated scf accuracy    <       0.16368797 Ry

     iteration #  4     ecut=    90.00 Ry     beta= 0.70
     Davidson diagonalization with overlap
     ethr =  1.15E-04,  avg # of iterations =  4.1

     total cpu time spent up to now is      189.9 secs

     total energy              =   -1180.34993356 Ry
     estimated scf accuracy    <       0.00029653 Ry

     iteration #  5     ecut=    90.00 Ry     beta= 0.70
     Davidson diagonalization with overlap
     ethr =  4.12E-07,  avg # of iterations =  8.4

     total cpu time spent up to now is      241.6 secs

     total energy              =   -1180.35055838 Ry
     estimated scf accuracy    <       0.00034821 Ry

     iteration #  6     ecut=    90.00 Ry     beta= 0.70
     Davidson diagonalization with overlap
     ethr =  4.12E-07,  avg # of iterations =  3.2

     total cpu time spent up to now is      271.9 secs

     total energy              =   -1180.35061712 Ry
     estimated scf accuracy    <       0.00000151 Ry

     iteration #  7     ecut=    90.00 Ry     beta= 0.70
     Davidson diagonalization with overlap
     ethr =  2.09E-09,  avg # of iterations =  8.2

     total cpu time spent up to now is      327.9 secs

     total energy              =   -1180.35061842 Ry
     estimated scf accuracy    <       0.00002896 Ry

     iteration #  8     ecut=    90.00 Ry     beta= 0.70
     Davidson diagonalization with overlap
     ethr =  2.09E-09,  avg # of iterations =  5.4

     total cpu time spent up to now is      372.7 secs

     End of self-consistent calculation

          k = 0.0000 0.0000 0.0000 (  9771 PWs)   bands (ev):

   -56.5157 -56.5157 -56.4810 -56.4810 -56.4810 -56.4810 -56.4810 -56.4810
   -28.5811 -28.5811 -28.5735 -28.5735 -28.5735 -28.5735 -28.4842 -28.4842
   -27.6158 -27.6158 -27.6158 -27.6158 -27.5390 -27.5390 -27.5390 -27.5390
   -27.5335 -27.5335 -27.4511 -27.4511 -27.4511 -27.4511 -27.4509 -27.4509
     2.6986   2.6986   7.4568   7.4568   7.4568   7.4568   7.4660   7.4660
    10.5369  10.5369  10.5448  10.5448  10.5448  10.5448  11.9113  11.9113
    11.9113  11.9113  11.9224  11.9224  12.6023  12.6023  12.7719  12.7719
    12.7719  12.7719  13.1435  13.1435  13.1435  13.1435  13.1446  13.1446
    13.6716  13.6716  13.6716  13.6716  13.6754  13.6754  15.5515  15.5515
    15.5828  15.5828  15.5828  15.5828  15.7657  15.7657  15.7657  15.7657
    16.6651  16.6651  16.6954  16.6954  16.6954  16.6954

     occupation numbers 
     1.0000   1.0000   1.0000   1.0000   1.0000   1.0000   1.0000   1.0000
     1.0000   1.0000   1.0000   1.0000   1.0000   1.0000   1.0000   1.0000
     1.0000   1.0000   1.0000   1.0000   1.0000   1.0000   1.0000   1.0000
     1.0000   1.0000   1.0000   1.0000   1.0000   1.0000   1.0000   1.0000
     1.0000   1.0000   1.0000   1.0000   1.0000   1.0000   1.0000   1.0000
     1.0000   1.0000   1.0000   1.0000   1.0000   1.0000   1.0000   1.0000
     1.0000   1.0000   1.0000   1.0000   1.0000   1.0000   1.0000   1.0000
     1.0000   1.0000   1.0000   1.0000   1.0000   1.0000   1.0000   1.0000
     1.0000   1.0000   1.0000   1.0000   1.0000   1.0000  -0.0015  -0.0015
    -0.0008  -0.0008  -0.0008  -0.0008  -0.0000  -0.0000  -0.0000  -0.0000
    -0.0000  -0.0000  -0.0000  -0.0000  -0.0000  -0.0000

          k = 0.0000 0.0000 0.1250 (  9667 PWs)   bands (ev):

   -56.5147 -56.5147 -56.4850 -56.4850 -56.4807 -56.4807 -56.4783 -56.4783
   -28.5873 -28.5803 -28.5772 -28.5767 -28.5668 -28.5637 -28.4871 -28.4871
   -27.6291 -27.6225 -27.6064 -27.6000 -27.5481 -27.5447 -27.5406 -27.5336
   -27.5319 -27.5211 -27.4589 -27.4571 -27.4547 -27.4496 -27.4488 -27.4447
     2.8069   2.8069   6.7952   6.7985   7.5180   7.5194   7.9726   7.9814
    10.0750  10.0802  10.6133  10.6149  11.0390  11.0409  11.3201  11.3202
    11.6502  11.6541  12.5293  12.5359  12.5610  12.5792  12.7792  12.7865
    12.9229  12.9242  13.1138  13.1159  13.1783  13.1787  13.2092  13.2096
    13.5219  13.5295  13.6532  13.6547  13.8997  13.8999  15.3977  15.4159
    15.4447  15.4544  15.7225  15.7258  15.7394  15.7534  15.7657  15.7710
    16.4736  16.4906  16.6335  16.6384  16.8956  16.9162

     occupation numbers 
     1.0000   1.0000   1.0000   1.0000   1.0000   1.0000   1.0000   1.0000
     1.0000   1.0000   1.0000   1.0000   1.0000   1.0000   1.0000   1.0000
     1.0000   1.0000   1.0000   1.0000   1.0000   1.0000   1.0000   1.0000
     1.0000   1.0000   1.0000   1.0000   1.0000   1.0000   1.0000   1.0000
     1.0000   1.0000   1.0000   1.0000   1.0000   1.0000   1.0000   1.0000
     1.0000   1.0000   1.0000   1.0000   1.0000   1.0000   1.0000   1.0000
     1.0000   1.0000   1.0000   1.0000   1.0000   1.0000   1.0000   1.0000
     1.0000   1.0000   1.0000   1.0000   1.0000   1.0000   1.0000   1.0000
     1.0000   1.0000   1.0000   1.0000   1.0000   1.0000  -0.0140  -0.0113
    -0.0079  -0.0069  -0.0000  -0.0000  -0.0000  -0.0000  -0.0000  -0.0000
    -0.0000  -0.0000  -0.0000  -0.0000  -0.0000  -0.0000

          k = 0.0000 0.0000 0.2500 (  9618 PWs)   bands (ev):

   -56.5118 -56.5118 -56.4902 -56.4902 -56.4798 -56.4798 -56.4770 -56.4770
   -28.5908 -28.5838 -28.5806 -28.5781 -28.5542 -28.5512 -28.4953 -28.4950
   -27.6376 -27.6285 -27.5936 -27.5862 -27.5578 -27.5463 -27.5380 -27.5339
   -27.5284 -27.5068 -27.4693 -27.4628 -27.4606 -27.4505 -27.4482 -27.4416
     3.1271   3.1271   5.9918   5.9932   7.6895   7.6925   8.3701   8.3802
     9.7439   9.7453  10.7559  10.7612  10.8658  10.8745  11.1951  11.2024
    11.5682  11.5689  12.2653  12.2801  12.8660  12.8726  12.9121  12.9340
    13.1206  13.1245  13.1291  13.1342  13.2511  13.2517  13.2819  13.2858
    13.5438  13.5472  13.6976  13.7052  14.0463  14.0469  15.0727  15.1013
    15.3801  15.3806  15.6169  15.6321  15.7393  15.7635  15.8513  15.8752
    16.2851  16.2998  16.4931  16.5046  17.1869  17.2074

     occupation numbers 
     1.0000   1.0000   1.0000   1.0000   1.0000   1.0000   1.0000   1.0000
     1.0000   1.0000   1.0000   1.0000   1.0000   1.0000   1.0000   1.0000
     1.0000   1.0000   1.0000   1.0000   1.0000   1.0000   1.0000   1.0000
     1.0000   1.0000   1.0000   1.0000   1.0000   1.0000   1.0000   1.0000
     1.0000   1.0000   1.0000   1.0000   1.0000   1.0000   1.0000   1.0000
     1.0000   1.0000   1.0000   1.0000   1.0000   1.0000   1.0000   1.0000
     1.0000   1.0000   1.0000   1.0000   1.0000   1.0000   1.0000   1.0000
     1.0000   1.0000   1.0000   1.0000   1.0000   1.0000   1.0000   1.0000
     1.0000   1.0000   1.0000   1.0000   1.0000   1.0000   0.1382   0.0791
    -0.0168  -0.0167  -0.0004  -0.0003  -0.0000  -0.0000  -0.0000  -0.0000
    -0.0000  -0.0000  -0.0000  -0.0000  -0.0000  -0.0000

          k = 0.0000 0.0000 0.3750 (  9662 PWs)   bands (ev):

   -56.5074 -56.5074 -56.4960 -56.4960 -56.4786 -56.4786 -56.4768 -56.4768
   -28.5912 -28.5850 -28.5846 -28.5806 -28.5389 -28.5367 -28.5078 -28.5070
   -27.6407 -27.6344 -27.5803 -27.5754 -27.5664 -27.5432 -27.5428 -27.5302
   -27.5241 -27.4925 -27.4853 -27.4689 -27.4622 -27.4536 -27.4469 -27.4419
     3.6437   3.6437   5.1356   5.1362   7.9591   7.9637   8.5101   8.5190
     9.6768   9.6796  10.5121  10.5127  10.7723  10.7854  11.0297  11.0315
    12.0049  12.0071  12.1206  12.1353  12.7682  12.7836  12.9433  12.9561
    13.0792  13.0867  13.1857  13.1896  13.2455  13.2487  13.3252  13.3286
    13.5400  13.5404  13.9314  13.9357  14.2196  14.2331  14.8121  14.8471
    15.3570  15.3687  15.4967  15.5157  15.7536  15.7831  15.8461  15.8713
    16.1646  16.1805  16.3078  16.3217  17.3494  17.3605

     occupation numbers 
     1.0000   1.0000   1.0000   1.0000   1.0000   1.0000   1.0000   1.0000
     1.0000   1.0000   1.0000   1.0000   1.0000   1.0000   1.0000   1.0000
     1.0000   1.0000   1.0000   1.0000   1.0000   1.0000   1.0000   1.0000
     1.0000   1.0000   1.0000   1.0000   1.0000   1.0000   1.0000   1.0000
     1.0000   1.0000   1.0000   1.0000   1.0000   1.0000   1.0000   1.0000
     1.0000   1.0000   1.0000   1.0000   1.0000   1.0000   1.0000   1.0000
     1.0000   1.0000   1.0000   1.0000   1.0000   1.0000   1.0000   1.0000
     1.0000   1.0000   1.0000   1.0000   1.0000   1.0000   1.0000   1.0000
     1.0000   1.0000   1.0000   1.0000   1.0001   1.0001   0.9103   0.8330
    -0.0210  -0.0188  -0.0037  -0.0028  -0.0000  -0.0000  -0.0000  -0.0000
    -0.0000  -0.0000  -0.0000  -0.0000  -0.0000  -0.0000

          k = 0.0000 0.0000-0.5000 (  9658 PWs)   bands (ev):

   -56.5019 -56.5019 -56.5019 -56.5019 -56.4775 -56.4775 -56.4775 -56.4775
   -28.5890 -28.5890 -28.5832 -28.5832 -28.5229 -28.5229 -28.5215 -28.5215
   -27.6392 -27.6392 -27.5736 -27.5736 -27.5588 -27.5588 -27.5361 -27.5361
   -27.5046 -27.5046 -27.4796 -27.4796 -27.4580 -27.4580 -27.4443 -27.4443
     4.3286   4.3286   4.3288   4.3288   8.2825   8.2825   8.2890   8.2890
    10.0168  10.0168  10.0208  10.0208  10.8980  10.8980  10.9092  10.9092
    12.2471  12.2471  12.2537  12.2537  12.6852  12.6852  12.6977  12.6977
    13.1418  13.1418  13.1422  13.1422  13.2370  13.2370  13.2407  13.2407
    13.7825  13.7825  13.7856  13.7856  14.5650  14.5650  14.5936  14.5936
    15.4011  15.4011  15.4189  15.4189  15.8058  15.8058  15.8355  15.8355
    16.1655  16.1655  16.1792  16.1792  17.5419  17.5466

     occupation numbers 
     1.0000   1.0000   1.0000   1.0000   1.0000   1.0000   1.0000   1.0000
     1.0000   1.0000   1.0000   1.0000   1.0000   1.0000   1.0000   1.0000
     1.0000   1.0000   1.0000   1.0000   1.0000   1.0000   1.0000   1.0000
     1.0000   1.0000   1.0000   1.0000   1.0000   1.0000   1.0000   1.0000
     1.0000   1.0000   1.0000   1.0000   1.0000   1.0000   1.0000   1.0000
     1.0000   1.0000   1.0000   1.0000   1.0000   1.0000   1.0000   1.0000
     1.0000   1.0000   1.0000   1.0000   1.0000   1.0000   1.0000   1.0000
     1.0000   1.0000   1.0000   1.0000   1.0000   1.0000   1.0000   1.0000
     1.0000   1.0000   1.0000   1.0000   1.0236   1.0236   1.0289   1.0289
    -0.0134  -0.0134  -0.0109  -0.0109  -0.0000  -0.0000  -0.0000  -0.0000
    -0.0000  -0.0000  -0.0000  -0.0000  -0.0000  -0.0000

          k = 0.0000 0.1250 0.1250 (  9657 PWs)   bands (ev):

   -56.5138 -56.5138 -56.4865 -56.4865 -56.4810 -56.4810 -56.4775 -56.4775
   -28.5893 -28.5830 -28.5759 -28.5753 -28.5640 -28.5601 -28.4899 -28.4898
   -27.6309 -27.6270 -27.5994 -27.5954 -27.5506 -27.5462 -27.5430 -27.5378
   -27.5253 -27.5146 -27.4638 -27.4624 -27.4562 -27.4505 -27.4458 -27.4421
     2.9145   2.9145   6.6453   6.6502   7.3152   7.3192   8.2193   8.2251
     9.9474   9.9524  10.6667  10.6727  10.8540  10.8586  11.2388  11.2420
    11.8045  11.8056  12.4435  12.4546  12.5940  12.6019  12.9024  12.9085
    13.0099  13.0192  13.1605  13.1615  13.1656  13.1705  13.2672  13.2691
    13.4643  13.4707  13.6778  13.6892  13.9946  14.0000  15.3450  15.3573
    15.3928  15.4021  15.6243  15.6337  15.7240  15.7403  15.7934  15.8147
    16.3734  16.3917  16.6461  16.6535  16.9379  16.9673

     occupation numbers 
     1.0000   1.0000   1.0000   1.0000   1.0000   1.0000   1.0000   1.0000
     1.0000   1.0000   1.0000   1.0000   1.0000   1.0000   1.0000   1.0000
     1.0000   1.0000   1.0000   1.0000   1.0000   1.0000   1.0000   1.0000
     1.0000   1.0000   1.0000   1.0000   1.0000   1.0000   1.0000   1.0000
     1.0000   1.0000   1.0000   1.0000   1.0000   1.0000   1.0000   1.0000
     1.0000   1.0000   1.0000   1.0000   1.0000   1.0000   1.0000   1.0000
     1.0000   1.0000   1.0000   1.0000   1.0000   1.0000   1.0000   1.0000
     1.0000   1.0000   1.0000   1.0000   1.0000   1.0000   1.0000   1.0000
     1.0000   1.0000   1.0000   1.0000   1.0000   1.0000  -0.0232  -0.0209
    -0.0147  -0.0133  -0.0004  -0.0003  -0.0000  -0.0000  -0.0000  -0.0000
    -0.0000  -0.0000  -0.0000  -0.0000  -0.0000  -0.0000

          k = 0.0000 0.1250 0.2500 (  9633 PWs)   bands (ev):

   -56.5110 -56.5110 -56.4906 -56.4906 -56.4805 -56.4805 -56.4768 -56.4768
   -28.5911 -28.5851 -28.5779 -28.5765 -28.5537 -28.5505 -28.4978 -28.4976
   -27.6362 -27.6297 -27.5898 -27.5845 -27.5573 -27.5485 -27.5419 -27.5377
   -27.5229 -27.5023 -27.4757 -27.4674 -27.4607 -27.4529 -27.4434 -27.4388
     3.2323   3.2324   6.0265   6.0290   7.3761   7.3788   8.4794   8.4845
     9.7444   9.7459  10.4121  10.4159  10.8571  10.8579  11.4945  11.4997
    11.5880  11.5896  12.3107  12.3205  12.6383  12.6410  13.0346  13.0421
    13.0736  13.0849  13.2031  13.2092  13.2810  13.2823  13.3805  13.3847
    13.5203  13.5267  13.8046  13.8199  14.1006  14.1077  15.0887  15.1157
    15.2978  15.3128  15.5076  15.5222  15.6895  15.7115  15.8389  15.8644
    16.2233  16.2385  16.5270  16.5393  17.1516  17.1852

     occupation numbers 
     1.0000   1.0000   1.0000   1.0000   1.0000   1.0000   1.0000   1.0000
     1.0000   1.0000   1.0000   1.0000   1.0000   1.0000   1.0000   1.0000
     1.0000   1.0000   1.0000   1.0000   1.0000   1.0000   1.0000   1.0000
     1.0000   1.0000   1.0000   1.0000   1.0000   1.0000   1.0000   1.0000
     1.0000   1.0000   1.0000   1.0000   1.0000   1.0000   1.0000   1.0000
     1.0000   1.0000   1.0000   1.0000   1.0000   1.0000   1.0000   1.0000
     1.0000   1.0000   1.0000   1.0000   1.0000   1.0000   1.0000   1.0000
     1.0000   1.0000   1.0000   1.0000   1.0000   1.0000   1.0000   1.0000
     1.0000   1.0000   1.0000   1.0000   1.0000   1.0000   0.1034   0.0546
    -0.0316  -0.0292  -0.0031  -0.0025  -0.0001  -0.0001  -0.0000  -0.0000
    -0.0000  -0.0000  -0.0000  -0.0000  -0.0000  -0.0000

          k = 0.0000 0.1250 0.3750 (  9657 PWs)   bands (ev):

   -56.5067 -56.5067 -56.4958 -56.4958 -56.4793 -56.4793 -56.4770 -56.4770
   -28.5904 -28.5854 -28.5819 -28.5791 -28.5397 -28.5375 -28.5098 -28.5092
   -27.6384 -27.6331 -27.5800 -27.5738 -27.5657 -27.5480 -27.5423 -27.5300
   -27.5251 -27.4929 -27.4879 -27.4705 -27.4639 -27.4571 -27.4414 -27.4381
     3.7445   3.7447   5.2136   5.2146   7.6677   7.6697   8.4241   8.4279
     9.7359   9.7391  10.2158  10.2199  11.0144  11.0204  11.1797  11.1936
    11.8664  11.8717  12.1813  12.1909  12.6389  12.6454  12.8668  12.8767
    13.0655  13.0718  13.2711  13.2758  13.3347  13.3366  13.4472  13.4502
    13.6018  13.6087  13.9676  13.9745  14.2903  14.3074  14.8244  14.8580
    15.2794  15.2953  15.3798  15.3922  15.6935  15.7197  15.8259  15.8553
    16.1469  16.1555  16.3585  16.3720  17.3036  17.3272

     occupation numbers 
     1.0000   1.0000   1.0000   1.0000   1.0000   1.0000   1.0000   1.0000
     1.0000   1.0000   1.0000   1.0000   1.0000   1.0000   1.0000   1.0000
     1.0000   1.0000   1.0000   1.0000   1.0000   1.0000   1.0000   1.0000
     1.0000   1.0000   1.0000   1.0000   1.0000   1.0000   1.0000   1.0000
     1.0000   1.0000   1.0000   1.0000   1.0000   1.0000   1.0000   1.0000
     1.0000   1.0000   1.0000   1.0000   1.0000   1.0000   1.0000   1.0000
     1.0000   1.0000   1.0000   1.0000   1.0000   1.0000   1.0000   1.0000
     1.0000   1.0000   1.0000   1.0000   1.0000   1.0000   1.0000   1.0000
     1.0000   1.0000   1.0000   1.0000   1.0004   1.0006   0.8854   0.8047
    -0.0340  -0.0320  -0.0169  -0.0148  -0.0001  -0.0000  -0.0000  -0.0000
    -0.0000  -0.0000  -0.0000  -0.0000  -0.0000  -0.0000

          k = 0.0000 0.1250-0.5000 (  9664 PWs)   bands (ev):

   -56.5014 -56.5014 -56.5014 -56.5014 -56.4779 -56.4779 -56.4779 -56.4779
   -28.5876 -28.5876 -28.5819 -28.5819 -28.5249 -28.5249 -28.5227 -28.5227
   -27.6368 -27.6368 -27.5733 -27.5733 -27.5595 -27.5595 -27.5357 -27.5357
   -27.5097 -27.5097 -27.4780 -27.4780 -27.4615 -27.4615 -27.4394 -27.4394
     4.4218   4.4218   4.4223   4.4223   8.0585   8.0585   8.0654   8.0654
     9.9959   9.9959  10.0002  10.0002  11.0364  11.0364  11.0506  11.0506
    12.1471  12.1471  12.1525  12.1525  12.5977  12.5977  12.6140  12.6140
    13.2269  13.2269  13.2295  13.2295  13.3325  13.3325  13.3338  13.3338
    13.8293  13.8293  13.8329  13.8329  14.5983  14.5983  14.6288  14.6288
    15.3025  15.3025  15.3183  15.3183  15.7569  15.7569  15.7867  15.7867
    16.2048  16.2048  16.2158  16.2158  17.5189  17.5264

     occupation numbers 
     1.0000   1.0000   1.0000   1.0000   1.0000   1.0000   1.0000   1.0000
     1.0000   1.0000   1.0000   1.0000   1.0000   1.0000   1.0000   1.0000
     1.0000   1.0000   1.0000   1.0000   1.0000   1.0000   1.0000   1.0000
     1.0000   1.0000   1.0000   1.0000   1.0000   1.0000   1.0000   1.0000
     1.0000   1.0000   1.0000   1.0000   1.0000   1.0000   1.0000   1.0000
     1.0000   1.0000   1.0000   1.0000   1.0000   1.0000   1.0000   1.0000
     1.0000   1.0000   1.0000   1.0000   1.0000   1.0000   1.0000   1.0000
     1.0000   1.0000   1.0000   1.0000   1.0000   1.0000   1.0000   1.0000
     1.0000   1.0000   1.0000   1.0000   1.0297   1.0297   1.0340   1.0340
    -0.0309  -0.0309  -0.0282  -0.0282  -0.0000  -0.0000  -0.0000  -0.0000
    -0.0000  -0.0000  -0.0000  -0.0000  -0.0000  -0.0000

          k = 0.0000 0.2500 0.2500 (  9661 PWs)   bands (ev):

   -56.5085 -56.5085 -56.4923 -56.4923 -56.4811 -56.4811 -56.4769 -56.4769
   -28.5904 -28.5853 -28.5756 -28.5749 -28.5502 -28.5469 -28.5051 -28.5047
   -27.6337 -27.6305 -27.5828 -27.5805 -27.5569 -27.5536 -27.5437 -27.5395
   -27.5195 -27.4966 -27.4857 -27.4754 -27.4661 -27.4492 -27.4394 -27.4354
     3.5426   3.5427   5.9651   5.9684   6.9411   6.9451   8.4363   8.4413
     9.7515   9.7547  10.1863  10.1914  10.9260  10.9285  11.3505  11.3515
    11.8597  11.8635  12.2861  12.2896  12.5056  12.5149  12.9039  12.9115
    13.1478  13.1572  13.2702  13.2796  13.4418  13.4432  13.5197  13.5290
    13.5705  13.5811  13.9843  13.9966  14.2196  14.2252  15.0458  15.0662
    15.1397  15.1644  15.2943  15.3058  15.6156  15.6407  15.7628  15.7916
    16.1592  16.1702  16.5118  16.5225  17.1850  17.2279

     occupation numbers 
     1.0000   1.0000   1.0000   1.0000   1.0000   1.0000   1.0000   1.0000
     1.0000   1.0000   1.0000   1.0000   1.0000   1.0000   1.0000   1.0000
     1.0000   1.0000   1.0000   1.0000   1.0000   1.0000   1.0000   1.0000
     1.0000   1.0000   1.0000   1.0000   1.0000   1.0000   1.0000   1.0000
     1.0000   1.0000   1.0000   1.0000   1.0000   1.0000   1.0000   1.0000
     1.0000   1.0000   1.0000   1.0000   1.0000   1.0000   1.0000   1.0000
     1.0000   1.0000   1.0000   1.0000   1.0000   1.0000   1.0000   1.0000
     1.0000   1.0000   1.0000   1.0000   1.0000   1.0000   1.0000   1.0000
     1.0000   1.0000   1.0000   1.0000   1.0001   1.0001   0.2057   0.1533
     0.0213  -0.0038  -0.0321  -0.0303  -0.0004  -0.0003  -0.0000  -0.0000
    -0.0000  -0.0000  -0.0000  -0.0000  -0.0000  -0.0000

          k = 0.0000 0.2500 0.3750 (  9639 PWs)   bands (ev):

   -56.5047 -56.5047 -56.4958 -56.4958 -56.4805 -56.4805 -56.4778 -56.4778
   -28.5879 -28.5836 -28.5778 -28.5759 -28.5409 -28.5388 -28.5157 -28.5152
   -27.6319 -27.6291 -27.5815 -27.5744 -27.5620 -27.5516 -27.5415 -27.5331
   -27.5238 -27.5009 -27.4928 -27.4823 -27.4622 -27.4497 -27.4365 -27.4338
     4.0407   4.0411   5.4171   5.4190   7.0447   7.0479   8.0209   8.0243
     9.9168   9.9201  10.1870  10.1902  11.0283  11.0321  11.3804  11.3880
    11.8893  11.8913  12.0247  12.0290  12.4329  12.4439  12.6524  12.6623
    13.2348  13.2443  13.3296  13.3349  13.4390  13.4428  13.6536  13.6565
    13.7894  13.7929  14.0662  14.0757  14.4534  14.4788  14.8299  14.8568
    15.0716  15.0929  15.1476  15.1530  15.5767  15.6012  15.6797  15.7117
    16.2000  16.2070  16.4538  16.4643  17.1905  17.2195

     occupation numbers 
     1.0000   1.0000   1.0000   1.0000   1.0000   1.0000   1.0000   1.0000
     1.0000   1.0000   1.0000   1.0000   1.0000   1.0000   1.0000   1.0000
     1.0000   1.0000   1.0000   1.0000   1.0000   1.0000   1.0000   1.0000
     1.0000   1.0000   1.0000   1.0000   1.0000   1.0000   1.0000   1.0000
     1.0000   1.0000   1.0000   1.0000   1.0000   1.0000   1.0000   1.0000
     1.0000   1.0000   1.0000   1.0000   1.0000   1.0000   1.0000   1.0000
     1.0000   1.0000   1.0000   1.0000   1.0000   1.0000   1.0000   1.0000
     1.0000   1.0000   1.0000   1.0000   1.0000   1.0000   1.0000   1.0000
     1.0000   1.0000   1.0000   1.0000   1.0069   1.0097   0.8734   0.8079
     0.1406   0.0949   0.0122   0.0067  -0.0010  -0.0006  -0.0001  -0.0001
    -0.0000  -0.0000  -0.0000  -0.0000  -0.0000  -0.0000

          k = 0.0000 0.2500-0.5000 (  9686 PWs)   bands (ev):

   -56.5002 -56.5002 -56.5002 -56.5002 -56.4791 -56.4791 -56.4791 -56.4791
   -28.5840 -28.5840 -28.5788 -28.5788 -28.5294 -28.5294 -28.5264 -28.5264
   -27.6297 -27.6297 -27.5781 -27.5781 -27.5565 -27.5565 -27.5343 -27.5343
   -27.5170 -27.5170 -27.4885 -27.4885 -27.4547 -27.4547 -27.4343 -27.4343
     4.6915   4.6915   4.6926   4.6926   7.4835   7.4835   7.4897   7.4897
    10.1293  10.1293  10.1324  10.1324  11.1999  11.1999  11.2116  11.2116
    11.9551  11.9551  11.9570  11.9570  12.4184  12.4184  12.4309  12.4309
    13.3471  13.3471  13.3535  13.3535  13.5157  13.5157  13.5218  13.5218
    13.9868  13.9868  13.9924  13.9924  14.6538  14.6538  14.6843  14.6843
    15.0850  15.0850  15.0967  15.0967  15.6032  15.6032  15.6320  15.6320
    16.3323  16.3323  16.3433  16.3433  17.3585  17.3617

     occupation numbers 
     1.0000   1.0000   1.0000   1.0000   1.0000   1.0000   1.0000   1.0000
     1.0000   1.0000   1.0000   1.0000   1.0000   1.0000   1.0000   1.0000
     1.0000   1.0000   1.0000   1.0000   1.0000   1.0000   1.0000   1.0000
     1.0000   1.0000   1.0000   1.0000   1.0000   1.0000   1.0000   1.0000
     1.0000   1.0000   1.0000   1.0000   1.0000   1.0000   1.0000   1.0000
     1.0000   1.0000   1.0000   1.0000   1.0000   1.0000   1.0000   1.0000
     1.0000   1.0000   1.0000   1.0000   1.0000   1.0000   1.0000   1.0000
     1.0000   1.0000   1.0000   1.0000   1.0000   1.0000   1.0000   1.0000
     1.0000   1.0000   1.0000   1.0000   1.0355   1.0355   1.0327   1.0327
     0.1111   0.1111   0.0877   0.0877  -0.0006  -0.0006  -0.0003  -0.0003
    -0.0000  -0.0000  -0.0000  -0.0000  -0.0000  -0.0000

          k = 0.0000 0.3750 0.3750 (  9632 PWs)   bands (ev):

   -56.5019 -56.5019 -56.4967 -56.4967 -56.4811 -56.4811 -56.4791 -56.4791
   -28.5836 -28.5803 -28.5754 -28.5745 -28.5395 -28.5377 -28.5243 -28.5234
   -27.6235 -27.6231 -27.5871 -27.5830 -27.5539 -27.5483 -27.5370 -27.5340
   -27.5252 -27.5072 -27.5050 -27.4954 -27.4526 -27.4431 -27.4351 -27.4323
     4.5097   4.5102   5.5232   5.5248   6.5728   6.5748   7.4025   7.4056
    10.2462  10.2475  10.4516  10.4528  10.9114  10.9123  11.2394  11.2425
    11.7865  11.7894  12.0557  12.0596  12.2634  12.2658  12.4683  12.4760
    13.2333  13.2409  13.3895  13.3910  13.6727  13.6732  13.8198  13.8247
    14.0548  14.0670  14.1494  14.1604  14.5564  14.5765  14.7404  14.7522
    14.8528  14.8719  14.9553  14.9785  15.4774  15.4969  15.5174  15.5446
    16.3214  16.3319  16.5102  16.5158  17.0898  17.1122

     occupation numbers 
     1.0000   1.0000   1.0000   1.0000   1.0000   1.0000   1.0000   1.0000
     1.0000   1.0000   1.0000   1.0000   1.0000   1.0000   1.0000   1.0000
     1.0000   1.0000   1.0000   1.0000   1.0000   1.0000   1.0000   1.0000
     1.0000   1.0000   1.0000   1.0000   1.0000   1.0000   1.0000   1.0000
     1.0000   1.0000   1.0000   1.0000   1.0000   1.0000   1.0000   1.0000
     1.0000   1.0000   1.0000   1.0000   1.0000   1.0000   1.0000   1.0000
     1.0000   1.0000   1.0000   1.0000   1.0000   1.0000   1.0000   1.0000
     1.0000   1.0000   1.0000   1.0000   1.0000   1.0000   1.0000   1.0000
     1.0000   1.0000   1.0000   1.0000   1.0220   1.0258   1.0062   0.9958
     0.8186   0.7665   0.4952   0.4154  -0.0050  -0.0037  -0.0027  -0.0017
    -0.0000  -0.0000  -0.0000  -0.0000  -0.0000  -0.0000

          k = 0.0000 0.3750-0.5000 (  9642 PWs)   bands (ev):

   -56.4989 -56.4989 -56.4989 -56.4989 -56.4805 -56.4805 -56.4805 -56.4805
   -28.5791 -28.5791 -28.5756 -28.5756 -28.5339 -28.5339 -28.5313 -28.5313
   -27.6188 -27.6188 -27.5904 -27.5904 -27.5473 -27.5473 -27.5331 -27.5331
   -27.5211 -27.5211 -27.5040 -27.5040 -27.4446 -27.4446 -27.4334 -27.4334
     5.0898   5.0898   5.0912   5.0912   6.8114   6.8114   6.8156   6.8156
    10.4497  10.4497  10.4511  10.4511  11.2416  11.2416  11.2497  11.2497
    11.6405  11.6405  11.6484  11.6484  12.3095  12.3095  12.3146  12.3146
    13.3650  13.3650  13.3707  13.3707  13.7684  13.7684  13.7775  13.7775
    14.2716  14.2716  14.2744  14.2744  14.5437  14.5437  14.5545  14.5545
    14.8846  14.8846  14.9036  14.9036  15.4581  15.4581  15.4778  15.4778
    16.4917  16.4917  16.5018  16.5018  17.1142  17.1172

     occupation numbers 
     1.0000   1.0000   1.0000   1.0000   1.0000   1.0000   1.0000   1.0000
     1.0000   1.0000   1.0000   1.0000   1.0000   1.0000   1.0000   1.0000
     1.0000   1.0000   1.0000   1.0000   1.0000   1.0000   1.0000   1.0000
     1.0000   1.0000   1.0000   1.0000   1.0000   1.0000   1.0000   1.0000
     1.0000   1.0000   1.0000   1.0000   1.0000   1.0000   1.0000   1.0000
     1.0000   1.0000   1.0000   1.0000   1.0000   1.0000   1.0000   1.0000
     1.0000   1.0000   1.0000   1.0000   1.0000   1.0000   1.0000   1.0000
     1.0000   1.0000   1.0000   1.0000   1.0000   1.0000   1.0000   1.0000
     1.0003   1.0003   1.0003   1.0003   1.0197   1.0197   1.0217   1.0217
     0.7289   0.7289   0.6697   0.6697  -0.0066  -0.0066  -0.0050  -0.0050
    -0.0000  -0.0000  -0.0000  -0.0000  -0.0000  -0.0000

          k = 0.0000-0.5000-0.5000 (  9580 PWs)   bands (ev):

   -56.4983 -56.4983 -56.4983 -56.4983 -56.4811 -56.4811 -56.4811 -56.4811
   -28.5755 -28.5755 -28.5755 -28.5755 -28.5348 -28.5348 -28.5348 -28.5348
   -27.6050 -27.6050 -27.6050 -27.6050 -27.5374 -27.5374 -27.5374 -27.5374
   -27.5167 -27.5167 -27.5167 -27.5167 -27.4370 -27.4370 -27.4370 -27.4370
     5.3714   5.3714   5.3714   5.3714   6.4277   6.4277   6.4277   6.4277
    10.7056  10.7056  10.7056  10.7056  11.2424  11.2424  11.2424  11.2424
    11.3850  11.3850  11.3850  11.3850  12.2842  12.2842  12.2842  12.2842
    13.3617  13.3617  13.3617  13.3617  14.0066  14.0066  14.0066  14.0066
    14.2932  14.2932  14.2932  14.2932  14.5248  14.5248  14.5248  14.5248
    14.7572  14.7572  14.7572  14.7572  15.4166  15.4166  15.4166  15.4166
    16.5869  16.5869  16.5869  16.5869  16.9838  16.9838

     occupation numbers 
     1.0000   1.0000   1.0000   1.0000   1.0000   1.0000   1.0000   1.0000
     1.0000   1.0000   1.0000   1.0000   1.0000   1.0000   1.0000   1.0000
     1.0000   1.0000   1.0000   1.0000   1.0000   1.0000   1.0000   1.0000
     1.0000   1.0000   1.0000   1.0000   1.0000   1.0000   1.0000   1.0000
     1.0000   1.0000   1.0000   1.0000   1.0000   1.0000   1.0000   1.0000
     1.0000   1.0000   1.0000   1.0000   1.0000   1.0000   1.0000   1.0000
     1.0000   1.0000   1.0000   1.0000   1.0000   1.0000   1.0000   1.0000
     1.0000   1.0000   1.0000   1.0000   1.0000   1.0000   1.0000   1.0000
     1.0005   1.0005   1.0005   1.0005   1.0163   1.0163   1.0163   1.0163
     0.9908   0.9908   0.9908   0.9908  -0.0112  -0.0112  -0.0112  -0.0112
    -0.0000  -0.0000  -0.0000  -0.0000  -0.0000  -0.0000

          k = 0.1250 0.1250 0.1250 (  9633 PWs)   bands (ev):

   -56.5128 -56.5128 -56.4876 -56.4876 -56.4814 -56.4814 -56.4770 -56.4770
   -28.5903 -28.5844 -28.5748 -28.5742 -28.5620 -28.5578 -28.4926 -28.4924
   -27.6312 -27.6296 -27.5959 -27.5906 -27.5522 -27.5454 -27.5452 -27.5423
   -27.5211 -27.5095 -27.4712 -27.4624 -27.4555 -27.4555 -27.4425 -27.4406
     3.0213   3.0214   6.5635   6.5701   7.1837   7.1910   8.2854   8.2895
     9.9223   9.9271  10.6113  10.6115  10.6511  10.6512  11.2991  11.3046
    11.9440  11.9451  12.3496  12.3609  12.7359  12.7379  12.8156  12.8246
    13.0614  13.0650  13.1639  13.1644  13.2421  13.2479  13.3414  13.3502
    13.4553  13.4634  13.7035  13.7079  14.0634  14.0709  15.3202  15.3244
    15.3553  15.3565  15.5744  15.5755  15.6376  15.6520  15.8122  15.8242
    16.3130  16.3326  16.6473  16.6558  16.9604  16.9957

     occupation numbers 
     1.0000   1.0000   1.0000   1.0000   1.0000   1.0000   1.0000   1.0000
     1.0000   1.0000   1.0000   1.0000   1.0000   1.0000   1.0000   1.0000
     1.0000   1.0000   1.0000   1.0000   1.0000   1.0000   1.0000   1.0000
     1.0000   1.0000   1.0000   1.0000   1.0000   1.0000   1.0000   1.0000
     1.0000   1.0000   1.0000   1.0000   1.0000   1.0000   1.0000   1.0000
     1.0000   1.0000   1.0000   1.0000   1.0000   1.0000   1.0000   1.0000
     1.0000   1.0000   1.0000   1.0000   1.0000   1.0000   1.0000   1.0000
     1.0000   1.0000   1.0000   1.0000   1.0000   1.0000   1.0000   1.0000
     1.0000   1.0000   1.0000   1.0000   1.0000   1.0000  -0.0278  -0.0271
    -0.0213  -0.0210  -0.0010  -0.0010  -0.0003  -0.0002  -0.0000  -0.0000
    -0.0000  -0.0000  -0.0000  -0.0000  -0.0000  -0.0000

          k = 0.1250 0.1250 0.2500 (  9648 PWs)   bands (ev):

   -56.5101 -56.5101 -56.4909 -56.4909 -56.4811 -56.4811 -56.4767 -56.4767
   -28.5910 -28.5855 -28.5759 -28.5750 -28.5536 -28.5501 -28.5004 -28.5000
   -27.6349 -27.6300 -27.5884 -27.5812 -27.5563 -27.5494 -27.5446 -27.5421
   -27.5188 -27.5000 -27.4808 -27.4670 -27.4623 -27.4559 -27.4398 -27.4377
     3.3367   3.3368   6.0624   6.0656   7.2201   7.2246   8.4042   8.4083
     9.6714   9.6734  10.4339  10.4378  10.6893  10.6931  11.4161  11.4201
    11.8413  11.8462  12.2991  12.3025  12.7366  12.7418  13.0065  13.0115
    13.0819  13.0888  13.1141  13.1218  13.2807  13.2853  13.4383  13.4477
    13.6240  13.6326  13.8380  13.8467  14.1514  14.1575  15.0811  15.1063
    15.2827  15.2979  15.4449  15.4585  15.5884  15.6057  15.8098  15.8289
    16.2006  16.2163  16.5422  16.5560  17.1164  17.1521

     occupation numbers 
     1.0000   1.0000   1.0000   1.0000   1.0000   1.0000   1.0000   1.0000
     1.0000   1.0000   1.0000   1.0000   1.0000   1.0000   1.0000   1.0000
     1.0000   1.0000   1.0000   1.0000   1.0000   1.0000   1.0000   1.0000
     1.0000   1.0000   1.0000   1.0000   1.0000   1.0000   1.0000   1.0000
     1.0000   1.0000   1.0000   1.0000   1.0000   1.0000   1.0000   1.0000
     1.0000   1.0000   1.0000   1.0000   1.0000   1.0000   1.0000   1.0000
     1.0000   1.0000   1.0000   1.0000   1.0000   1.0000   1.0000   1.0000
     1.0000   1.0000   1.0000   1.0000   1.0000   1.0000   1.0000   1.0000
     1.0000   1.0000   1.0000   1.0000   1.0000   1.0000   0.1194   0.0702
    -0.0336  -0.0316  -0.0079  -0.0065  -0.0008  -0.0005  -0.0000  -0.0000
    -0.0000  -0.0000  -0.0000  -0.0000  -0.0000  -0.0000

          k = 0.1250 0.1250 0.3750 (  9660 PWs)   bands (ev):

   -56.5060 -56.5060 -56.4957 -56.4957 -56.4799 -56.4799 -56.4773 -56.4773
   -28.5895 -28.5849 -28.5800 -28.5777 -28.5406 -28.5383 -28.5120 -28.5112
   -27.6362 -27.6317 -27.5791 -27.5731 -27.5647 -27.5510 -27.5431 -27.5332
   -27.5225 -27.5000 -27.4827 -27.4702 -27.4665 -27.4594 -27.4381 -27.4364
     3.8445   3.8447   5.2902   5.2913   7.5133   7.5155   8.3089   8.3132
     9.5581   9.5591  10.2040  10.2073  10.9208  10.9251  11.4066  11.4126
    11.7849  11.7882  12.2116  12.2153  12.7418  12.7475  12.9488  12.9565
    13.0581  13.0664  13.2274  13.2346  13.3254  13.3289  13.4304  13.4369
    13.6941  13.6971  13.9769  13.9843  14.3491  14.3691  14.8296  14.8623
    15.2448  15.2611  15.3172  15.3305  15.6093  15.6292  15.7672  15.7905
    16.1531  16.1625  16.3766  16.3911  17.3091  17.3326

     occupation numbers 
     1.0000   1.0000   1.0000   1.0000   1.0000   1.0000   1.0000   1.0000
     1.0000   1.0000   1.0000   1.0000   1.0000   1.0000   1.0000   1.0000
     1.0000   1.0000   1.0000   1.0000   1.0000   1.0000   1.0000   1.0000
     1.0000   1.0000   1.0000   1.0000   1.0000   1.0000   1.0000   1.0000
     1.0000   1.0000   1.0000   1.0000   1.0000   1.0000   1.0000   1.0000
     1.0000   1.0000   1.0000   1.0000   1.0000   1.0000   1.0000   1.0000
     1.0000   1.0000   1.0000   1.0000   1.0000   1.0000   1.0000   1.0000
     1.0000   1.0000   1.0000   1.0000   1.0000   1.0000   1.0000   1.0000
     1.0000   1.0000   1.0000   1.0000   1.0013   1.0019   0.8741   0.7932
    -0.0352  -0.0353  -0.0284  -0.0259  -0.0005  -0.0003  -0.0000  -0.0000
    -0.0000  -0.0000  -0.0000  -0.0000  -0.0000  -0.0000

          k = 0.1250 0.1250-0.5000 (  9650 PWs)   bands (ev):

   -56.5010 -56.5010 -56.5010 -56.5010 -56.4784 -56.4784 -56.4784 -56.4784
   -28.5863 -28.5863 -28.5807 -28.5807 -28.5268 -28.5268 -28.5239 -28.5239
   -27.6345 -27.6345 -27.5721 -27.5721 -27.5615 -27.5615 -27.5350 -27.5350
   -27.5140 -27.5140 -27.4755 -27.4755 -27.4641 -27.4641 -27.4369 -27.4369
     4.5139   4.5139   4.5145   4.5145   7.9201   7.9201   7.9264   7.9264
     9.8402   9.8402   9.8416   9.8416  11.1808  11.1808  11.1905  11.1905
    12.0266  12.0266  12.0303  12.0303  12.7779  12.7779  12.7907  12.7907
    13.1757  13.1757  13.1839  13.1839  13.3654  13.3654  13.3683  13.3683
    13.8482  13.8482  13.8542  13.8542  14.6278  14.6278  14.6599  14.6599
    15.2459  15.2459  15.2651  15.2651  15.6839  15.6839  15.7100  15.7100
    16.2232  16.2232  16.2335  16.2335  17.6140  17.6155

     occupation numbers 
     1.0000   1.0000   1.0000   1.0000   1.0000   1.0000   1.0000   1.0000
     1.0000   1.0000   1.0000   1.0000   1.0000   1.0000   1.0000   1.0000
     1.0000   1.0000   1.0000   1.0000   1.0000   1.0000   1.0000   1.0000
     1.0000   1.0000   1.0000   1.0000   1.0000   1.0000   1.0000   1.0000
     1.0000   1.0000   1.0000   1.0000   1.0000   1.0000   1.0000   1.0000
     1.0000   1.0000   1.0000   1.0000   1.0000   1.0000   1.0000   1.0000
     1.0000   1.0000   1.0000   1.0000   1.0000   1.0000   1.0000   1.0000
     1.0000   1.0000   1.0000   1.0000   1.0000   1.0000   1.0000   1.0000
     1.0000   1.0000   1.0000   1.0000   1.0339   1.0339   1.0354   1.0354
    -0.0353  -0.0353  -0.0351  -0.0351  -0.0001  -0.0001  -0.0001  -0.0001
    -0.0000  -0.0000  -0.0000  -0.0000  -0.0000  -0.0000

          k = 0.1250 0.2500 0.2500 (  9649 PWs)   bands (ev):

   -56.5077 -56.5077 -56.4923 -56.4923 -56.4817 -56.4817 -56.4771 -56.4771
   -28.5898 -28.5849 -28.5740 -28.5734 -28.5506 -28.5472 -28.5075 -28.5068
   -27.6324 -27.6292 -27.5845 -27.5760 -27.5570 -27.5526 -27.5459 -27.5441
   -27.5153 -27.5019 -27.4834 -27.4708 -27.4693 -27.4534 -27.4372 -27.4348
     3.6445   3.6446   6.0132   6.0177   6.9143   6.9207   8.2970   8.3008
     9.4082   9.4111  10.4283  10.4300  10.6902  10.6927  11.4592  11.4641
    11.9038  11.9064  12.3020  12.3039  12.6210  12.6274  12.9562  12.9625
    13.1172  13.1222  13.1935  13.2041  13.2827  13.2882  13.5793  13.5861
    13.7496  13.7573  13.9706  13.9798  14.2863  14.2933  15.0247  15.0419
    15.1588  15.1794  15.2850  15.2976  15.4990  15.5110  15.7204  15.7409
    16.1683  16.1793  16.5167  16.5292  17.1460  17.1867

     occupation numbers 
     1.0000   1.0000   1.0000   1.0000   1.0000   1.0000   1.0000   1.0000
     1.0000   1.0000   1.0000   1.0000   1.0000   1.0000   1.0000   1.0000
     1.0000   1.0000   1.0000   1.0000   1.0000   1.0000   1.0000   1.0000
     1.0000   1.0000   1.0000   1.0000   1.0000   1.0000   1.0000   1.0000
     1.0000   1.0000   1.0000   1.0000   1.0000   1.0000   1.0000   1.0000
     1.0000   1.0000   1.0000   1.0000   1.0000   1.0000   1.0000   1.0000
     1.0000   1.0000   1.0000   1.0000   1.0000   1.0000   1.0000   1.0000
     1.0000   1.0000   1.0000   1.0000   1.0000   1.0000   1.0000   1.0000
     1.0000   1.0000   1.0000   1.0000   1.0004   1.0005   0.2663   0.2164
     0.0011  -0.0149  -0.0334  -0.0316  -0.0036  -0.0030  -0.0000  -0.0000
    -0.0000  -0.0000  -0.0000  -0.0000  -0.0000  -0.0000

          k = 0.1250 0.2500 0.3750 (  9647 PWs)   bands (ev):

   -56.5040 -56.5040 -56.4955 -56.4955 -56.4811 -56.4811 -56.4782 -56.4782
   -28.5868 -28.5827 -28.5763 -28.5745 -28.5421 -28.5399 -28.5178 -28.5170
   -27.6301 -27.6272 -27.5809 -27.5729 -27.5638 -27.5538 -27.5416 -27.5364
   -27.5201 -27.5094 -27.4851 -27.4784 -27.4648 -27.4531 -27.4355 -27.4333
     4.1379   4.1383   5.4907   5.4928   7.0390   7.0429   7.9714   7.9746
     9.4101   9.4125  10.1454  10.1478  11.0640  11.0672  11.5737  11.5797
    11.8038  11.8113  12.0653  12.0670  12.5153  12.5254  12.7880  12.7957
    13.2086  13.2139  13.2903  13.3027  13.3528  13.3584  13.5993  13.6086
    13.8629  13.8744  14.0964  14.1079  14.5020  14.5301  14.8370  14.8637
    15.0704  15.0801  15.1468  15.1604  15.5082  15.5209  15.6331  15.6559
    16.2020  16.2089  16.4434  16.4542  17.1766  17.2032

     occupation numbers 
     1.0000   1.0000   1.0000   1.0000   1.0000   1.0000   1.0000   1.0000
     1.0000   1.0000   1.0000   1.0000   1.0000   1.0000   1.0000   1.0000
     1.0000   1.0000   1.0000   1.0000   1.0000   1.0000   1.0000   1.0000
     1.0000   1.0000   1.0000   1.0000   1.0000   1.0000   1.0000   1.0000
     1.0000   1.0000   1.0000   1.0000   1.0000   1.0000   1.0000   1.0000
     1.0000   1.0000   1.0000   1.0000   1.0000   1.0000   1.0000   1.0000
     1.0000   1.0000   1.0000   1.0000   1.0000   1.0000   1.0000   1.0000
     1.0000   1.0000   1.0000   1.0000   1.0000   1.0000   1.0000   1.0000
     1.0000   1.0000   1.0000   1.0000   1.0128   1.0172   0.8574   0.7893
     0.1434   0.1215   0.0131  -0.0003  -0.0031  -0.0025  -0.0003  -0.0002
    -0.0000  -0.0000  -0.0000  -0.0000  -0.0000  -0.0000

          k = 0.1250 0.2500-0.5000 (  9646 PWs)   bands (ev):

   -56.4997 -56.4997 -56.4997 -56.4997 -56.4797 -56.4797 -56.4797 -56.4797
   -28.5827 -28.5827 -28.5775 -28.5775 -28.5312 -28.5312 -28.5278 -28.5278
   -27.6277 -27.6277 -27.5768 -27.5768 -27.5601 -27.5601 -27.5330 -27.5330
   -27.5204 -27.5204 -27.4836 -27.4836 -27.4575 -27.4575 -27.4338 -27.4338
     4.7805   4.7805   4.7815   4.7815   7.4686   7.4686   7.4749   7.4749
     9.7441   9.7441   9.7465   9.7465  11.5278  11.5278  11.5354  11.5354
    11.7438  11.7438  11.7476  11.7476  12.5999  12.5999  12.6114  12.6114
    13.2924  13.2924  13.2987  13.2987  13.4703  13.4703  13.4818  13.4818
    14.0237  14.0237  14.0318  14.0318  14.6929  14.6929  14.7254  14.7254
    15.0667  15.0667  15.0831  15.0831  15.5561  15.5561  15.5797  15.5797
    16.3193  16.3193  16.3283  16.3283  17.3787  17.3822

     occupation numbers 
     1.0000   1.0000   1.0000   1.0000   1.0000   1.0000   1.0000   1.0000
     1.0000   1.0000   1.0000   1.0000   1.0000   1.0000   1.0000   1.0000
     1.0000   1.0000   1.0000   1.0000   1.0000   1.0000   1.0000   1.0000
     1.0000   1.0000   1.0000   1.0000   1.0000   1.0000   1.0000   1.0000
     1.0000   1.0000   1.0000   1.0000   1.0000   1.0000   1.0000   1.0000
     1.0000   1.0000   1.0000   1.0000   1.0000   1.0000   1.0000   1.0000
     1.0000   1.0000   1.0000   1.0000   1.0000   1.0000   1.0000   1.0000
     1.0000   1.0000   1.0000   1.0000   1.0000   1.0000   1.0000   1.0000
     1.0000   1.0000   1.0000   1.0000   1.0307   1.0307   1.0167   1.0167
     0.1522   0.1522   0.1150   0.1150  -0.0014  -0.0014  -0.0009  -0.0009
    -0.0000  -0.0000  -0.0000  -0.0000  -0.0000  -0.0000

          k = 0.1250 0.3750 0.3750 (  9632 PWs)   bands (ev):

   -56.5012 -56.5012 -56.4962 -56.4962 -56.4817 -56.4817 -56.4796 -56.4796
   -28.5823 -28.5791 -28.5740 -28.5731 -28.5410 -28.5391 -28.5262 -28.5251
   -27.6224 -27.6207 -27.5860 -27.5816 -27.5591 -27.5515 -27.5397 -27.5324
   -27.5235 -27.5148 -27.4945 -27.4894 -27.4551 -27.4466 -27.4354 -27.4324
     4.6017   4.6022   5.5958   5.5981   6.6177   6.6212   7.4189   7.4220
     9.5842   9.5867  10.2020  10.2054  10.9491  10.9511  11.5403  11.5427
    11.7638  11.7683  12.1095  12.1114  12.3538  12.3583  12.6179  12.6245
    13.1919  13.1975  13.3133  13.3185  13.5605  13.5693  13.7644  13.7805
    14.0188  14.0323  14.2993  14.3083  14.5619  14.5805  14.7910  14.8056
    14.8767  14.8817  14.9913  15.0211  15.4329  15.4336  15.5034  15.5152
    16.3018  16.3111  16.4771  16.4835  17.0644  17.0857

     occupation numbers 
     1.0000   1.0000   1.0000   1.0000   1.0000   1.0000   1.0000   1.0000
     1.0000   1.0000   1.0000   1.0000   1.0000   1.0000   1.0000   1.0000
     1.0000   1.0000   1.0000   1.0000   1.0000   1.0000   1.0000   1.0000
     1.0000   1.0000   1.0000   1.0000   1.0000   1.0000   1.0000   1.0000
     1.0000   1.0000   1.0000   1.0000   1.0000   1.0000   1.0000   1.0000
     1.0000   1.0000   1.0000   1.0000   1.0000   1.0000   1.0000   1.0000
     1.0000   1.0000   1.0000   1.0000   1.0000   1.0000   1.0000   1.0000
     1.0000   1.0000   1.0000   1.0000   1.0000   1.0000   1.0000   1.0000
     1.0000   1.0000   1.0005   1.0006   1.0230   1.0265   0.9470   0.9224
     0.7526   0.7378   0.3724   0.2770  -0.0092  -0.0091  -0.0034  -0.0028
    -0.0000  -0.0000  -0.0000  -0.0000  -0.0000  -0.0000

          k = 0.1250 0.3750-0.5000 (  9656 PWs)   bands (ev):

   -56.4983 -56.4983 -56.4983 -56.4983 -56.4811 -56.4811 -56.4811 -56.4811
   -28.5778 -28.5778 -28.5743 -28.5743 -28.5356 -28.5356 -28.5329 -28.5329
   -27.6171 -27.6171 -27.5889 -27.5889 -27.5535 -27.5535 -27.5333 -27.5333
   -27.5214 -27.5214 -27.4965 -27.4965 -27.4474 -27.4474 -27.4341 -27.4341
     5.1729   5.1729   5.1744   5.1744   6.8549   6.8549   6.8594   6.8594
     9.9259   9.9259   9.9291   9.9291  11.2679  11.2679  11.2699  11.2699
    11.8654  11.8654  11.8729  11.8729  12.4201  12.4201  12.4278  12.4278
    13.2922  13.2922  13.2959  13.2959  13.6810  13.6810  13.6951  13.6951
    14.2862  14.2862  14.2929  14.2929  14.6331  14.6331  14.6457  14.6457
    14.9015  14.9015  14.9205  14.9205  15.4305  15.4305  15.4463  15.4463
    16.4456  16.4456  16.4533  16.4533  17.0938  17.0970

     occupation numbers 
     1.0000   1.0000   1.0000   1.0000   1.0000   1.0000   1.0000   1.0000
     1.0000   1.0000   1.0000   1.0000   1.0000   1.0000   1.0000   1.0000
     1.0000   1.0000   1.0000   1.0000   1.0000   1.0000   1.0000   1.0000
     1.0000   1.0000   1.0000   1.0000   1.0000   1.0000   1.0000   1.0000
     1.0000   1.0000   1.0000   1.0000   1.0000   1.0000   1.0000   1.0000
     1.0000   1.0000   1.0000   1.0000   1.0000   1.0000   1.0000   1.0000
     1.0000   1.0000   1.0000   1.0000   1.0000   1.0000   1.0000   1.0000
     1.0000   1.0000   1.0000   1.0000   1.0000   1.0000   1.0000   1.0000
     1.0004   1.0004   1.0005   1.0005   1.0345   1.0345   1.0353   1.0353
     0.6766   0.6766   0.6143   0.6143  -0.0095  -0.0095  -0.0077  -0.0077
    -0.0000  -0.0000  -0.0000  -0.0000  -0.0000  -0.0000

          k = 0.1250-0.5000-0.5000 (  9632 PWs)   bands (ev):

   -56.4976 -56.4976 -56.4976 -56.4976 -56.4818 -56.4818 -56.4818 -56.4818
   -28.5742 -28.5742 -28.5740 -28.5740 -28.5366 -28.5366 -28.5364 -28.5364
   -27.6062 -27.6062 -27.6008 -27.6008 -27.5492 -27.5492 -27.5355 -27.5355
   -27.5183 -27.5183 -27.5041 -27.5041 -27.4413 -27.4413 -27.4366 -27.4366
     5.4485   5.4485   5.4496   5.4496   6.4884   6.4884   6.4904   6.4904
    10.0927  10.0927  10.0963  10.0963  11.0431  11.0431  11.0447  11.0447
    11.9594  11.9594  11.9618  11.9618  12.3351  12.3351  12.3376  12.3376
    13.2744  13.2744  13.2752  13.2752  13.8460  13.8460  13.8594  13.8594
    14.3453  14.3453  14.3507  14.3507  14.6305  14.6305  14.6470  14.6470
    14.8006  14.8006  14.8027  14.8027  15.3848  15.3848  15.3850  15.3850
    16.5200  16.5200  16.5216  16.5216  16.9699  16.9714

     occupation numbers 
     1.0000   1.0000   1.0000   1.0000   1.0000   1.0000   1.0000   1.0000
     1.0000   1.0000   1.0000   1.0000   1.0000   1.0000   1.0000   1.0000
     1.0000   1.0000   1.0000   1.0000   1.0000   1.0000   1.0000   1.0000
     1.0000   1.0000   1.0000   1.0000   1.0000   1.0000   1.0000   1.0000
     1.0000   1.0000   1.0000   1.0000   1.0000   1.0000   1.0000   1.0000
     1.0000   1.0000   1.0000   1.0000   1.0000   1.0000   1.0000   1.0000
     1.0000   1.0000   1.0000   1.0000   1.0000   1.0000   1.0000   1.0000
     1.0000   1.0000   1.0000   1.0000   1.0000   1.0000   1.0000   1.0000
     1.0012   1.0012   1.0014   1.0014   1.0342   1.0342   1.0353   1.0353
     0.9312   0.9312   0.9277   0.9277  -0.0160  -0.0160  -0.0160  -0.0160
    -0.0000  -0.0000  -0.0000  -0.0000  -0.0000  -0.0000

          k = 0.2500 0.2500 0.2500 (  9651 PWs)   bands (ev):

   -56.5055 -56.5055 -56.4928 -56.4928 -56.4826 -56.4826 -56.4779 -56.4779
   -28.5876 -28.5831 -28.5713 -28.5711 -28.5500 -28.5468 -28.5140 -28.5131
   -27.6293 -27.6256 -27.5835 -27.5717 -27.5595 -27.5566 -27.5464 -27.5443
   -27.5129 -27.5098 -27.4776 -27.4755 -27.4645 -27.4600 -27.4357 -27.4333
     3.9443   3.9444   6.0541   6.0608   6.7948   6.8051   8.0512   8.0521
     9.0664   9.0691  10.0624  10.0660  11.1542  11.1585  11.1984  11.1988
    11.9199  11.9213  12.3554  12.3570  12.8099  12.8164  12.8817  12.8825
    13.1330  13.1405  13.1417  13.1532  13.1847  13.1896  13.7578  13.7665
    13.7739  13.7862  14.0636  14.0710  14.4483  14.4656  14.9857  15.0018
    15.1290  15.1322  15.2656  15.2662  15.3053  15.3110  15.6138  15.6329
    16.1817  16.1899  16.4811  16.4924  17.1249  17.1547

     occupation numbers 
     1.0000   1.0000   1.0000   1.0000   1.0000   1.0000   1.0000   1.0000
     1.0000   1.0000   1.0000   1.0000   1.0000   1.0000   1.0000   1.0000
     1.0000   1.0000   1.0000   1.0000   1.0000   1.0000   1.0000   1.0000
     1.0000   1.0000   1.0000   1.0000   1.0000   1.0000   1.0000   1.0000
     1.0000   1.0000   1.0000   1.0000   1.0000   1.0000   1.0000   1.0000
     1.0000   1.0000   1.0000   1.0000   1.0000   1.0000   1.0000   1.0000
     1.0000   1.0000   1.0000   1.0000   1.0000   1.0000   1.0000   1.0000
     1.0000   1.0000   1.0000   1.0000   1.0000   1.0000   1.0000   1.0000
     1.0000   1.0000   1.0000   1.0000   1.0065   1.0082   0.3912   0.3379
     0.0349   0.0307  -0.0351  -0.0351  -0.0304  -0.0295  -0.0005  -0.0003
    -0.0000  -0.0000  -0.0000  -0.0000  -0.0000  -0.0000

          k = 0.2500 0.2500 0.3750 (  9650 PWs)   bands (ev):

   -56.5021 -56.5021 -56.4948 -56.4948 -56.4825 -56.4825 -56.4793 -56.4793
   -28.5836 -28.5800 -28.5726 -28.5713 -28.5445 -28.5422 -28.5236 -28.5223
   -27.6251 -27.6220 -27.5801 -27.5718 -27.5665 -27.5617 -27.5430 -27.5338
   -27.5236 -27.5109 -27.4816 -27.4717 -27.4668 -27.4580 -27.4355 -27.4328
     4.4225   4.4229   5.6837   5.6867   6.9123   6.9182   7.7714   7.7741
     8.9807   8.9845   9.7546   9.7585  11.0332  11.0363  11.5966  11.5994
    11.6771  11.6804  12.2576  12.2623  12.7412  12.7509  12.8768  12.8841
    13.1096  13.1216  13.2124  13.2237  13.2932  13.2972  13.6216  13.6294
    13.9376  13.9476  14.2612  14.2725  14.6144  14.6468  14.8441  14.8635
    15.0199  15.0302  15.1808  15.2071  15.3263  15.3412  15.5254  15.5422
    16.2214  16.2281  16.4117  16.4199  17.1194  17.1345

     occupation numbers 
     1.0000   1.0000   1.0000   1.0000   1.0000   1.0000   1.0000   1.0000
     1.0000   1.0000   1.0000   1.0000   1.0000   1.0000   1.0000   1.0000
     1.0000   1.0000   1.0000   1.0000   1.0000   1.0000   1.0000   1.0000
     1.0000   1.0000   1.0000   1.0000   1.0000   1.0000   1.0000   1.0000
     1.0000   1.0000   1.0000   1.0000   1.0000   1.0000   1.0000   1.0000
     1.0000   1.0000   1.0000   1.0000   1.0000   1.0000   1.0000   1.0000
     1.0000   1.0000   1.0000   1.0000   1.0000   1.0000   1.0000   1.0000
     1.0000   1.0000   1.0000   1.0000   1.0000   1.0000   1.0000   1.0000
     1.0000   1.0000   1.0002   1.0003   1.0323   1.0353   0.8402   0.7900
     0.2807   0.2498  -0.0157  -0.0283  -0.0267  -0.0239  -0.0024  -0.0018
    -0.0000  -0.0000  -0.0000  -0.0000  -0.0000  -0.0000

          k = 0.2500 0.2500-0.5000 (  9666 PWs)   bands (ev):

   -56.4983 -56.4983 -56.4983 -56.4983 -56.4811 -56.4811 -56.4811 -56.4811
   -28.5790 -28.5790 -28.5741 -28.5741 -28.5356 -28.5356 -28.5319 -28.5319
   -27.6217 -27.6217 -27.5757 -27.5757 -27.5667 -27.5667 -27.5350 -27.5350
   -27.5201 -27.5201 -27.4787 -27.4787 -27.4601 -27.4601 -27.4342 -27.4342
     5.0368   5.0368   5.0380   5.0380   7.3194   7.3194   7.3255   7.3255
     9.3111   9.3111   9.3152   9.3152  11.2766  11.2766  11.2790  11.2790
    11.9763  11.9763  11.9845  11.9845  12.8032  12.8032  12.8134  12.8134
    13.1735  13.1735  13.1862  13.1862  13.4385  13.4385  13.4456  13.4456
    14.1677  14.1677  14.1773  14.1773  14.7497  14.7497  14.7770  14.7770
    15.0552  15.0552  15.0741  15.0741  15.4318  15.4318  15.4480  15.4480
    16.3107  16.3107  16.3203  16.3203  17.2561  17.2573

     occupation numbers 
     1.0000   1.0000   1.0000   1.0000   1.0000   1.0000   1.0000   1.0000
     1.0000   1.0000   1.0000   1.0000   1.0000   1.0000   1.0000   1.0000
     1.0000   1.0000   1.0000   1.0000   1.0000   1.0000   1.0000   1.0000
     1.0000   1.0000   1.0000   1.0000   1.0000   1.0000   1.0000   1.0000
     1.0000   1.0000   1.0000   1.0000   1.0000   1.0000   1.0000   1.0000
     1.0000   1.0000   1.0000   1.0000   1.0000   1.0000   1.0000   1.0000
     1.0000   1.0000   1.0000   1.0000   1.0000   1.0000   1.0000   1.0000
     1.0000   1.0000   1.0000   1.0000   1.0000   1.0000   1.0000   1.0000
     1.0000   1.0000   1.0000   1.0000   0.9982   0.9982   0.9674   0.9674
     0.1809   0.1809   0.1349   0.1349  -0.0093  -0.0093  -0.0075  -0.0075
    -0.0000  -0.0000  -0.0000  -0.0000  -0.0000  -0.0000

          k = 0.2500 0.3750 0.3750 (  9650 PWs)   bands (ev):

   -56.4994 -56.4994 -56.4949 -56.4949 -56.4834 -56.4834 -56.4811 -56.4811
   -28.5788 -28.5758 -28.5701 -28.5693 -28.5446 -28.5428 -28.5314 -28.5300
   -27.6179 -27.6151 -27.5834 -27.5784 -27.5675 -27.5631 -27.5443 -27.5331
   -27.5239 -27.5080 -27.4860 -27.4765 -27.4601 -27.4548 -27.4373 -27.4343
     4.8698   4.8703   5.7966   5.8006   6.6823   6.6891   7.3946   7.3978
     8.9589   8.9633   9.5730   9.5784  10.6885  10.6923  11.2070  11.2088
    12.0018  12.0046  12.4202  12.4243  12.6319  12.6374  12.8197  12.8255
    13.1282  13.1365  13.1821  13.1906  13.3823  13.3918  13.5836  13.5955
    14.1420  14.1506  14.4964  14.5135  14.6838  14.7073  14.8373  14.8564
    14.9334  14.9374  15.1306  15.1630  15.2746  15.2864  15.4306  15.4441
    16.2769  16.2844  16.4041  16.4086  16.9733  16.9836

     occupation numbers 
     1.0000   1.0000   1.0000   1.0000   1.0000   1.0000   1.0000   1.0000
     1.0000   1.0000   1.0000   1.0000   1.0000   1.0000   1.0000   1.0000
     1.0000   1.0000   1.0000   1.0000   1.0000   1.0000   1.0000   1.0000
     1.0000   1.0000   1.0000   1.0000   1.0000   1.0000   1.0000   1.0000
     1.0000   1.0000   1.0000   1.0000   1.0000   1.0000   1.0000   1.0000
     1.0000   1.0000   1.0000   1.0000   1.0000   1.0000   1.0000   1.0000
     1.0000   1.0000   1.0000   1.0000   1.0000   1.0000   1.0000   1.0000
     1.0000   1.0000   1.0000   1.0000   1.0000   1.0000   1.0000   1.0000
     1.0000   1.0000   1.0120   1.0145   1.0328   1.0258   0.8565   0.8091
     0.5705   0.5566   0.0328  -0.0026  -0.0345  -0.0332  -0.0095  -0.0080
    -0.0000  -0.0000  -0.0000  -0.0000  -0.0000  -0.0000

          k = 0.2500 0.3750-0.5000 (  9644 PWs)   bands (ev):

   -56.4966 -56.4966 -56.4966 -56.4966 -56.4828 -56.4828 -56.4828 -56.4828
   -28.5740 -28.5740 -28.5705 -28.5705 -28.5403 -28.5403 -28.5373 -28.5373
   -27.6123 -27.6123 -27.5854 -27.5854 -27.5646 -27.5646 -27.5405 -27.5405
   -27.5134 -27.5134 -27.4842 -27.4842 -27.4540 -27.4540 -27.4371 -27.4371
     5.4122   5.4122   5.4140   5.4140   6.9218   6.9218   6.9271   6.9271
     9.2726   9.2726   9.2778   9.2778  10.7882  10.7882  10.7908  10.7908
    12.2807  12.2807  12.2894  12.2894  12.6860  12.6860  12.6934  12.6934
    13.1719  13.1719  13.1797  13.1797  13.4759  13.4759  13.4889  13.4889
    14.4061  14.4061  14.4149  14.4149  14.7921  14.7921  14.8096  14.8096
    14.9884  14.9884  15.0103  15.0103  15.3482  15.3482  15.3586  15.3586
    16.3657  16.3657  16.3728  16.3728  16.9852  16.9891

     occupation numbers 
     1.0000   1.0000   1.0000   1.0000   1.0000   1.0000   1.0000   1.0000
     1.0000   1.0000   1.0000   1.0000   1.0000   1.0000   1.0000   1.0000
     1.0000   1.0000   1.0000   1.0000   1.0000   1.0000   1.0000   1.0000
     1.0000   1.0000   1.0000   1.0000   1.0000   1.0000   1.0000   1.0000
     1.0000   1.0000   1.0000   1.0000   1.0000   1.0000   1.0000   1.0000
     1.0000   1.0000   1.0000   1.0000   1.0000   1.0000   1.0000   1.0000
     1.0000   1.0000   1.0000   1.0000   1.0000   1.0000   1.0000   1.0000
     1.0000   1.0000   1.0000   1.0000   1.0000   1.0000   1.0000   1.0000
     1.0035   1.0035   1.0040   1.0040   0.9454   0.9454   0.9151   0.9151
     0.3821   0.3821   0.3106   0.3106  -0.0226  -0.0226  -0.0206  -0.0206
    -0.0000  -0.0000  -0.0000  -0.0000  -0.0000  -0.0000

          k = 0.2500-0.5000-0.5000 (  9644 PWs)   bands (ev):

   -56.4958 -56.4958 -56.4958 -56.4958 -56.4836 -56.4836 -56.4836 -56.4836
   -28.5702 -28.5702 -28.5699 -28.5699 -28.5415 -28.5415 -28.5411 -28.5411
   -27.6036 -27.6036 -27.5950 -27.5950 -27.5625 -27.5625 -27.5430 -27.5430
   -27.5089 -27.5089 -27.4892 -27.4892 -27.4484 -27.4484 -27.4406 -27.4406
     5.6733   5.6733   5.6754   5.6754   6.6210   6.6210   6.6251   6.6251
     9.3817   9.3817   9.3872   9.3872  10.5093  10.5093  10.5125  10.5125
    12.4774  12.4774  12.4806  12.4806  12.5636  12.5636  12.5658  12.5658
    13.1153  13.1153  13.1156  13.1156  13.5546  13.5546  13.5674  13.5674
    14.5089  14.5089  14.5177  14.5177  14.8355  14.8355  14.8502  14.8502
    14.9371  14.9371  14.9382  14.9382  15.3101  15.3101  15.3130  15.3130
    16.4145  16.4145  16.4153  16.4153  16.8621  16.8649

     occupation numbers 
     1.0000   1.0000   1.0000   1.0000   1.0000   1.0000   1.0000   1.0000
     1.0000   1.0000   1.0000   1.0000   1.0000   1.0000   1.0000   1.0000
     1.0000   1.0000   1.0000   1.0000   1.0000   1.0000   1.0000   1.0000
     1.0000   1.0000   1.0000   1.0000   1.0000   1.0000   1.0000   1.0000
     1.0000   1.0000   1.0000   1.0000   1.0000   1.0000   1.0000   1.0000
     1.0000   1.0000   1.0000   1.0000   1.0000   1.0000   1.0000   1.0000
     1.0000   1.0000   1.0000   1.0000   1.0000   1.0000   1.0000   1.0000
     1.0000   1.0000   1.0000   1.0000   1.0000   1.0000   1.0000   1.0000
     1.0138   1.0138   1.0152   1.0152   0.8607   0.8607   0.8251   0.8251
     0.5578   0.5578   0.5542   0.5542  -0.0296  -0.0296  -0.0291  -0.0291
    -0.0000  -0.0000  -0.0000  -0.0000  -0.0000  -0.0000

          k = 0.3750 0.3750 0.3750 (  9682 PWs)   bands (ev):

   -56.4968 -56.4968 -56.4937 -56.4937 -56.4851 -56.4851 -56.4831 -56.4831
   -28.5736 -28.5710 -28.5659 -28.5657 -28.5479 -28.5463 -28.5386 -28.5370
   -27.6106 -27.6078 -27.5824 -27.5763 -27.5754 -27.5733 -27.5476 -27.5415
   -27.5135 -27.5020 -27.4804 -27.4663 -27.4636 -27.4613 -27.4411 -27.4387
     5.2847   5.2855   6.0000   6.0062   6.6314   6.6413   7.1890   7.1925
     8.7560   8.7618   9.2626   9.2700  10.1956  10.2006  10.6464  10.6487
    12.3230  12.3261  12.5912  12.5955  12.7690  12.7724  12.8672  12.8690
    13.1091  13.1194  13.1691  13.1743  13.2708  13.2711  13.3951  13.3998
    14.3615  14.3642  14.7226  14.7433  14.7835  14.7918  14.9227  14.9575
    15.0668  15.0733  15.0973  15.1028  15.2534  15.2839  15.3078  15.3293
    16.2847  16.2923  16.3586  16.3603  16.8102  16.8145

     occupation numbers 
     1.0000   1.0000   1.0000   1.0000   1.0000   1.0000   1.0000   1.0000
     1.0000   1.0000   1.0000   1.0000   1.0000   1.0000   1.0000   1.0000
     1.0000   1.0000   1.0000   1.0000   1.0000   1.0000   1.0000   1.0000
[...]
    11.8729  11.8729  11.8762  11.8762  12.3350  12.3350  12.3428  12.3428
    13.3017  13.3017  13.3072  13.3072  13.9489  13.9489  13.9555  13.9555
    14.0784  14.0784  14.0864  14.0864  14.6213  14.6213  14.6532  14.6532
    14.8217  14.8217  14.8620  14.8620  15.4462  15.4462  15.4654  15.4654
    16.4436  16.4436  16.4558  16.4558  17.1885  17.1888

     occupation numbers 
     1.0000   1.0000   1.0000   1.0000   1.0000   1.0000   1.0000   1.0000
     1.0000   1.0000   1.0000   1.0000   1.0000   1.0000   1.0000   1.0000
     1.0000   1.0000   1.0000   1.0000   1.0000   1.0000   1.0000   1.0000
     1.0000   1.0000   1.0000   1.0000   1.0000   1.0000   1.0000   1.0000
     1.0000   1.0000   1.0000   1.0000   1.0000   1.0000   1.0000   1.0000
     1.0000   1.0000   1.0000   1.0000   1.0000   1.0000   1.0000   1.0000
     1.0000   1.0000   1.0000   1.0000   1.0000   1.0000   1.0000   1.0000
     1.0000   1.0000   1.0000   1.0000   1.0000   1.0000   1.0000   1.0000
     1.0000   1.0000   1.0000   1.0000   1.0332   1.0332   1.0355   1.0355
     0.8910   0.8910   0.7941   0.7941  -0.0077  -0.0077  -0.0059  -0.0059
    -0.0000  -0.0000  -0.0000  -0.0000  -0.0000  -0.0000

          k =-0.1250 0.3750 0.2500 (  9647 PWs)   bands (ev):

   -56.5040 -56.5040 -56.4955 -56.4955 -56.4811 -56.4811 -56.4782 -56.4782
   -28.5868 -28.5828 -28.5761 -28.5746 -28.5422 -28.5397 -28.5180 -28.5169
   -27.6302 -27.6273 -27.5798 -27.5740 -27.5626 -27.5548 -27.5417 -27.5365
   -27.5196 -27.5100 -27.4847 -27.4785 -27.4649 -27.4529 -27.4356 -27.4333
     4.1378   4.1381   5.4903   5.4917   7.0411   7.0438   7.9714   7.9756
     9.4172   9.4198  10.2014  10.2028  10.9145  10.9160  11.5448  11.5484
    11.7464  11.7485  12.1890  12.1927  12.6583  12.6627  12.8603  12.8658
    13.0831  13.0877  13.2583  13.2702  13.4131  13.4162  13.6453  13.6567
    13.7951  13.8040  14.0770  14.0860  14.4874  14.5144  14.8188  14.8467
    15.0846  15.1037  15.1636  15.1813  15.4840  15.4961  15.6236  15.6421
    16.1951  16.2034  16.4160  16.4275  17.2536  17.2830

     occupation numbers 
     1.0000   1.0000   1.0000   1.0000   1.0000   1.0000   1.0000   1.0000
     1.0000   1.0000   1.0000   1.0000   1.0000   1.0000   1.0000   1.0000
     1.0000   1.0000   1.0000   1.0000   1.0000   1.0000   1.0000   1.0000
     1.0000   1.0000   1.0000   1.0000   1.0000   1.0000   1.0000   1.0000
     1.0000   1.0000   1.0000   1.0000   1.0000   1.0000   1.0000   1.0000
     1.0000   1.0000   1.0000   1.0000   1.0000   1.0000   1.0000   1.0000
     1.0000   1.0000   1.0000   1.0000   1.0000   1.0000   1.0000   1.0000
     1.0000   1.0000   1.0000   1.0000   1.0000   1.0000   1.0000   1.0000
     1.0000   1.0000   1.0000   1.0000   1.0107   1.0146   0.8971   0.8340
     0.1120   0.0747  -0.0031  -0.0160  -0.0045  -0.0038  -0.0004  -0.0003
    -0.0000  -0.0000  -0.0000  -0.0000  -0.0000  -0.0000

          k =-0.1250-0.5000 0.2500 (  9646 PWs)   bands (ev):

   -56.4997 -56.4997 -56.4997 -56.4997 -56.4797 -56.4797 -56.4797 -56.4797
   -28.5827 -28.5827 -28.5775 -28.5775 -28.5313 -28.5313 -28.5277 -28.5277
   -27.6279 -27.6279 -27.5758 -27.5758 -27.5609 -27.5609 -27.5328 -27.5328
   -27.5207 -27.5207 -27.4835 -27.4835 -27.4574 -27.4574 -27.4339 -27.4339
     4.7802   4.7802   4.7810   4.7810   7.4709   7.4709   7.4754   7.4754
     9.7730   9.7730   9.7741   9.7741  11.2718  11.2718  11.2769  11.2769
    11.9368  11.9368  11.9418  11.9418  12.7538  12.7538  12.7639  12.7639
    13.1581  13.1581  13.1668  13.1668  13.5592  13.5592  13.5675  13.5675
    13.9626  13.9626  13.9720  13.9720  14.6788  14.6788  14.7123  14.7123
    15.0785  15.0785  15.1035  15.1035  15.5312  15.5312  15.5531  15.5531
    16.2885  16.2885  16.2991  16.2991  17.4687  17.4774

     occupation numbers 
     1.0000   1.0000   1.0000   1.0000   1.0000   1.0000   1.0000   1.0000
     1.0000   1.0000   1.0000   1.0000   1.0000   1.0000   1.0000   1.0000
     1.0000   1.0000   1.0000   1.0000   1.0000   1.0000   1.0000   1.0000
     1.0000   1.0000   1.0000   1.0000   1.0000   1.0000   1.0000   1.0000
     1.0000   1.0000   1.0000   1.0000   1.0000   1.0000   1.0000   1.0000
     1.0000   1.0000   1.0000   1.0000   1.0000   1.0000   1.0000   1.0000
     1.0000   1.0000   1.0000   1.0000   1.0000   1.0000   1.0000   1.0000
     1.0000   1.0000   1.0000   1.0000   1.0000   1.0000   1.0000   1.0000
     1.0000   1.0000   1.0000   1.0000   1.0336   1.0336   1.0237   1.0237
     0.1251   0.1251   0.0752   0.0752  -0.0021  -0.0021  -0.0015  -0.0015
    -0.0000  -0.0000  -0.0000  -0.0000  -0.0000  -0.0000

          k =-0.1250-0.5000 0.3750 (  9656 PWs)   bands (ev):

   -56.4983 -56.4983 -56.4983 -56.4983 -56.4811 -56.4811 -56.4811 -56.4811
   -28.5778 -28.5778 -28.5742 -28.5742 -28.5357 -28.5357 -28.5328 -28.5328
   -27.6173 -27.6173 -27.5884 -27.5884 -27.5539 -27.5539 -27.5328 -27.5328
   -27.5220 -27.5220 -27.4963 -27.4963 -27.4474 -27.4474 -27.4341 -27.4341
     5.1726   5.1726   5.1737   5.1737   6.8569   6.8569   6.8597   6.8597
     9.9473   9.9473   9.9499   9.9499  11.1546  11.1546  11.1579  11.1579
    11.9547  11.9547  11.9601  11.9601  12.4569  12.4569  12.4662  12.4662
    13.2320  13.2320  13.2379  13.2379  13.7793  13.7793  13.7924  13.7924
    14.1910  14.1910  14.1995  14.1995  14.6771  14.6771  14.7039  14.7039
    14.8666  14.8666  14.9053  14.9053  15.4169  15.4169  15.4333  15.4333
    16.4122  16.4122  16.4235  16.4235  17.1490  17.1497

     occupation numbers 
     1.0000   1.0000   1.0000   1.0000   1.0000   1.0000   1.0000   1.0000
     1.0000   1.0000   1.0000   1.0000   1.0000   1.0000   1.0000   1.0000
     1.0000   1.0000   1.0000   1.0000   1.0000   1.0000   1.0000   1.0000
     1.0000   1.0000   1.0000   1.0000   1.0000   1.0000   1.0000   1.0000
     1.0000   1.0000   1.0000   1.0000   1.0000   1.0000   1.0000   1.0000
     1.0000   1.0000   1.0000   1.0000   1.0000   1.0000   1.0000   1.0000
     1.0000   1.0000   1.0000   1.0000   1.0000   1.0000   1.0000   1.0000
     1.0000   1.0000   1.0000   1.0000   1.0000   1.0000   1.0000   1.0000
     1.0000   1.0000   1.0001   1.0001   1.0339   1.0339   1.0271   1.0271
     0.7815   0.7815   0.6641   0.6641  -0.0112  -0.0112  -0.0091  -0.0091
    -0.0000  -0.0000  -0.0000  -0.0000  -0.0000  -0.0000

          k =-0.2500-0.5000 0.3750 (  9644 PWs)   bands (ev):

   -56.4966 -56.4966 -56.4966 -56.4966 -56.4828 -56.4828 -56.4828 -56.4828
   -28.5740 -28.5740 -28.5705 -28.5705 -28.5403 -28.5403 -28.5373 -28.5373
   -27.6124 -27.6124 -27.5852 -27.5852 -27.5648 -27.5648 -27.5404 -27.5404
   -27.5135 -27.5135 -27.4841 -27.4841 -27.4540 -27.4540 -27.4371 -27.4371
     5.4121   5.4121   5.4137   5.4137   6.9226   6.9226   6.9273   6.9273
     9.2751   9.2751   9.2799   9.2799  10.7784  10.7784  10.7811  10.7811
    12.2798  12.2798  12.2880  12.2880  12.7220  12.7220  12.7320  12.7320
    13.1095  13.1095  13.1185  13.1185  13.5274  13.5274  13.5392  13.5392
    14.3808  14.3808  14.3880  14.3880  14.7980  14.7980  14.8164  14.8164
    14.9946  14.9946  15.0262  15.0262  15.3339  15.3339  15.3481  15.3481
    16.3548  16.3548  16.3646  16.3646  17.0028  17.0034

     occupation numbers 
     1.0000   1.0000   1.0000   1.0000   1.0000   1.0000   1.0000   1.0000
     1.0000   1.0000   1.0000   1.0000   1.0000   1.0000   1.0000   1.0000
     1.0000   1.0000   1.0000   1.0000   1.0000   1.0000   1.0000   1.0000
     1.0000   1.0000   1.0000   1.0000   1.0000   1.0000   1.0000   1.0000
     1.0000   1.0000   1.0000   1.0000   1.0000   1.0000   1.0000   1.0000
     1.0000   1.0000   1.0000   1.0000   1.0000   1.0000   1.0000   1.0000
     1.0000   1.0000   1.0000   1.0000   1.0000   1.0000   1.0000   1.0000
     1.0000   1.0000   1.0000   1.0000   1.0000   1.0000   1.0000   1.0000
     1.0023   1.0023   1.0026   1.0026   0.9357   0.9357   0.9020   0.9020
     0.3614   0.3614   0.2617   0.2617  -0.0253  -0.0253  -0.0226  -0.0226
    -0.0000  -0.0000  -0.0000  -0.0000  -0.0000  -0.0000

     the Fermi energy is    14.9539 ev

!    total energy              =   -1180.35062281 Ry

     total all-electron energy =    -10727.811459 Ry
     estimated scf accuracy    <       0.00000064 Ry
     smearing contrib. (-TS)   =      -0.00050784 Ry
     internal energy E=F+TS    =   -1180.35011497 Ry

     The total energy is F=E-TS. E is the sum of the following terms:
     one-electron contribution =    -336.80298749 Ry
     hartree contribution      =     207.04827479 Ry
     xc contribution           =    -114.36270232 Ry
     ewald contribution        =    -496.51183961 Ry
     one-center paw contrib.   =    -439.72086034 Ry
      -> PAW hartree energy AE =     126.71847381 Ry
      -> PAW hartree energy PS =    -125.75110608 Ry
      -> PAW xc energy AE      =     -96.24015637 Ry
      -> PAW xc energy PS      =      20.93276365 Ry
      -> total E_H with PAW    =     208.01564252 Ry
      -> total E_XC with PAW   =    -189.67009504 Ry

     convergence has been achieved in   8 iterations

     Forces acting on atoms (cartesian axes, Ry/au):

     atom    1 type  1   force =    -0.00291289   -0.00291289    0.00291289
     atom    2 type  1   force =    -0.00291289    0.00291289   -0.00291289
     atom    3 type  1   force =     0.00291289   -0.00291289   -0.00291289
     atom    4 type  1   force =     0.00291289    0.00291289    0.00291289
     atom    5 type  2   force =    -0.00421543   -0.00421543    0.00421543
     atom    6 type  2   force =    -0.00421543    0.00421543   -0.00421543
     atom    7 type  2   force =     0.00421543   -0.00421543   -0.00421543
     atom    8 type  2   force =     0.00421543    0.00421543    0.00421543
     The non-local contrib.  to forces
     atom    1 type  1   force =     0.05114396    0.05114396   -0.05114396
     atom    2 type  1   force =     0.05114396   -0.05114396    0.05114396
     atom    3 type  1   force =    -0.05114396    0.05114396    0.05114396
     atom    4 type  1   force =    -0.05114396   -0.05114396   -0.05114396
     atom    5 type  2   force =    -0.00805969   -0.00805969    0.00805969
     atom    6 type  2   force =    -0.00805969    0.00805969   -0.00805969
     atom    7 type  2   force =     0.00805969   -0.00805969   -0.00805969
     atom    8 type  2   force =     0.00805969    0.00805969    0.00805969
     The ionic contribution  to forces
     atom    1 type  1   force =    -0.85044630   -0.85044630    0.85044630
     atom    2 type  1   force =    -0.85044630    0.85044630   -0.85044630
     atom    3 type  1   force =     0.85044630   -0.85044630   -0.85044630
     atom    4 type  1   force =     0.85044630    0.85044630    0.85044630
     atom    5 type  2   force =    -0.24524978   -0.24524978    0.24524978
     atom    6 type  2   force =    -0.24524978    0.24524978   -0.24524978
     atom    7 type  2   force =     0.24524978   -0.24524978   -0.24524978
     atom    8 type  2   force =     0.24524978    0.24524978    0.24524978
     The local contribution  to forces
     atom    1 type  1   force =     0.79733214    0.79733214   -0.79733214
     atom    2 type  1   force =     0.79733214   -0.79733214    0.79733214
     atom    3 type  1   force =    -0.79733214    0.79733214    0.79733214
     atom    4 type  1   force =    -0.79733214   -0.79733214   -0.79733214
     atom    5 type  2   force =     0.24831410    0.24831410   -0.24831410
     atom    6 type  2   force =     0.24831410   -0.24831410    0.24831410
     atom    7 type  2   force =    -0.24831410    0.24831410    0.24831410
     atom    8 type  2   force =    -0.24831410   -0.24831410   -0.24831410
     The core correction contribution to forces
     atom    1 type  1   force =    -0.00103092   -0.00103092    0.00103092
     atom    2 type  1   force =    -0.00103092    0.00103092   -0.00103092
     atom    3 type  1   force =     0.00103092   -0.00103092   -0.00103092
     atom    4 type  1   force =     0.00103092    0.00103092    0.00103092
     atom    5 type  2   force =     0.00079492    0.00079492   -0.00079492
     atom    6 type  2   force =     0.00079492   -0.00079492    0.00079492
     atom    7 type  2   force =    -0.00079492    0.00079492    0.00079492
     atom    8 type  2   force =    -0.00079492   -0.00079492   -0.00079492
     The Hubbard contrib.    to forces
     atom    1 type  1   force =     0.00000000    0.00000000    0.00000000
     atom    2 type  1   force =     0.00000000    0.00000000    0.00000000
     atom    3 type  1   force =     0.00000000    0.00000000    0.00000000
     atom    4 type  1   force =     0.00000000    0.00000000    0.00000000
     atom    5 type  2   force =     0.00000000    0.00000000    0.00000000
     atom    6 type  2   force =     0.00000000    0.00000000    0.00000000
     atom    7 type  2   force =     0.00000000    0.00000000    0.00000000
     atom    8 type  2   force =     0.00000000    0.00000000    0.00000000
     The SCF correction term to forces
     atom    1 type  1   force =     0.00008823    0.00008823   -0.00008823
     atom    2 type  1   force =     0.00008823   -0.00008823    0.00008823
     atom    3 type  1   force =    -0.00008823    0.00008823    0.00008823
     atom    4 type  1   force =    -0.00008823   -0.00008823   -0.00008823
     atom    5 type  2   force =    -0.00001498   -0.00001498    0.00001498
     atom    6 type  2   force =    -0.00001498    0.00001498   -0.00001498
     atom    7 type  2   force =     0.00001498   -0.00001498   -0.00001498
     atom    8 type  2   force =     0.00001498    0.00001498    0.00001498

     Total force =     0.017750     Total SCF correction =     0.000310


     Computing stress (Cartesian axis) and pressure

          total   stress  (Ry/bohr**3)                   (kbar)     P=      -40.60
  -0.00027598   0.00000000   0.00000000          -40.60        0.00        0.00
   0.00000000  -0.00027598   0.00000000            0.00      -40.60        0.00
   0.00000000   0.00000000  -0.00027598            0.00        0.00      -40.60

     kinetic stress (kbar)  35760.22      0.00      0.00
                                0.00  35760.22      0.00
                                0.00      0.00  35760.22

     local   stress (kbar) -10012.74     -0.00     -0.00
                               -0.00 -10012.74     -0.00
                               -0.00     -0.00 -10012.74

     nonloc. stress (kbar)   2428.13      0.00      0.00
                                0.00   2428.13      0.00
                                0.00      0.00   2428.13

     hartree stress (kbar)  15167.71     -0.00     -0.00
                               -0.00  15167.71     -0.00
                               -0.00     -0.00  15167.71

     exc-cor stress (kbar)  -1706.64     -0.00     -0.00
                               -0.00  -1706.64      0.00
                               -0.00      0.00  -1706.64

     corecor stress (kbar)  -5304.38      0.00     -0.00
                                0.00  -5304.38      0.00
                               -0.00      0.00  -5304.38

     ewald   stress (kbar) -36372.90      0.00      0.00
                                0.00 -36372.90      0.00
                                0.00      0.00 -36372.90

     hubbard stress (kbar)      0.00      0.00      0.00
                                0.00      0.00      0.00
                                0.00      0.00      0.00

     DFT-D   stress (kbar)      0.00      0.00      0.00
                                0.00      0.00      0.00
                                0.00      0.00      0.00

     XDM     stress (kbar)      0.00      0.00      0.00
                                0.00      0.00      0.00
                                0.00      0.00      0.00

     dft-nl  stress (kbar)      0.00      0.00      0.00
                                0.00      0.00      0.00
                                0.00      0.00      0.00

     TS-vdW  stress (kbar)      0.00      0.00      0.00
                                0.00      0.00      0.00
                                0.00      0.00      0.00



     Writing output data file /zfs_data/vergnior/martin/Scratch/OAL/CrSi/convergence/smearing/8x8x8/0.018/tmp/CrSi.save/
 
     init_run     :     11.33s CPU     11.78s WALL (       1 calls)
     electrons    :    350.71s CPU    358.00s WALL (       1 calls)
     forces       :     11.18s CPU     11.32s WALL (       1 calls)
     stress       :     29.30s CPU     29.65s WALL (       1 calls)

     Called by init_run:
     wfcinit      :      9.76s CPU     10.01s WALL (       1 calls)
     wfcinit:atom :      0.07s CPU      0.08s WALL (      45 calls)
     wfcinit:wfcr :      9.38s CPU      9.61s WALL (      45 calls)
     potinit      :      0.27s CPU      0.35s WALL (       1 calls)
     hinit0       :      0.23s CPU      0.24s WALL (       1 calls)

     Called by electrons:
     c_bands      :    284.57s CPU    289.19s WALL (       9 calls)
     sum_band     :     59.03s CPU     60.84s WALL (       9 calls)
     v_of_rho     :      0.33s CPU      0.34s WALL (       9 calls)
     v_h          :      0.03s CPU      0.03s WALL (       9 calls)
     v_xc         :      0.38s CPU      0.40s WALL (      11 calls)
     newd         :      5.62s CPU      6.50s WALL (       9 calls)
     PAW_pot      :      1.59s CPU      1.62s WALL (       9 calls)
     mix_rho      :      0.21s CPU      0.21s WALL (       9 calls)

     Called by c_bands:
     init_us_2    :      1.31s CPU      1.33s WALL (     945 calls)
     cegterg      :    264.87s CPU    269.32s WALL (     405 calls)

     Called by sum_band:
     sum_band:wei :      0.07s CPU      0.07s WALL (       9 calls)
     sum_band:loo :     54.34s CPU     55.16s WALL (       9 calls)
     sum_band:buf :      0.35s CPU      0.39s WALL (     405 calls)
     sum_band:ini :      0.59s CPU      0.60s WALL (     405 calls)
     sum_band:cal :      3.13s CPU      3.15s WALL (     405 calls)
     sum_band:bec :      6.37s CPU      6.39s WALL (     405 calls)
     addusdens    :      4.26s CPU      5.25s WALL (       9 calls)
     addusd:skk   :      0.01s CPU      0.01s WALL (      18 calls)
     addusd:dgemm :      1.63s CPU      2.59s WALL (      18 calls)
     addusd:qvan2 :      2.56s CPU      2.58s WALL (      18 calls)

     Called by *egterg:
     cdiaghg      :     19.93s CPU     20.02s WALL (    2334 calls)
     cegterg:over :     16.16s CPU     16.23s WALL (    1974 calls)
     cegterg:upda :      6.41s CPU      6.46s WALL (    1974 calls)
     cegterg:last :     12.96s CPU     13.01s WALL (    1265 calls)
     h_psi        :    188.34s CPU    192.64s WALL (    2424 calls)
     s_psi        :     23.34s CPU     23.44s WALL (    2424 calls)
     g_psi        :      0.42s CPU      0.43s WALL (    1974 calls)

     Called by h_psi:
     h_psi:calbec :     11.72s CPU     11.82s WALL (    2424 calls)
     vloc_psi     :    154.57s CPU    158.61s WALL (    2424 calls)
     add_vuspsi   :     21.00s CPU     21.14s WALL (    2424 calls)

     General routines
     calbec       :     16.76s CPU     16.91s WALL (    3054 calls)
     fft          :      0.42s CPU      0.42s WALL (     216 calls)
     ffts         :      0.03s CPU      0.09s WALL (      72 calls)
     fftw         :    120.60s CPU    123.53s WALL (  582172 calls)
     interpolate  :      0.10s CPU      0.16s WALL (      36 calls)
 
     Parallel routines
     fft_scatt_xy :     12.41s CPU     12.76s WALL (  582460 calls)
     fft_scatt_yz :     46.92s CPU     48.00s WALL (  582460 calls)

     PAW routines
     PAW_pot      :      1.59s CPU      1.62s WALL (       9 calls)
     PAW_symme    :      0.02s CPU      0.02s WALL (      18 calls)
 
     PWSCF        :   6m46.59s CPU   6m56.77s WALL

 
   This run was terminated on:  12:52:19   1Aug2021            

=------------------------------------------------------------------------------=
   JOB DONE.
=------------------------------------------------------------------------------=
