MPI startup(): Warning: I_MPI_PMI_LIBRARY will be ignored since the hydra process manager was found
MPI startup(): Warning: I_MPI_PMI_LIBRARY will be ignored since the hydra process manager was found
MPI startup(): Warning: I_MPI_PMI_LIBRARY will be ignored since the hydra process manager was found
MPI startup(): Warning: I_MPI_PMI_LIBRARY will be ignored since the hydra process manager was found
MPI startup(): Warning: I_MPI_PMI_LIBRARY will be ignored since the hydra process manager was found
MPI startup(): Warning: I_MPI_PMI_LIBRARY will be ignored since the hydra process manager was found
MPI startup(): Warning: I_MPI_PMI_LIBRARY will be ignored since the hydra process manager was found
MPI startup(): Warning: I_MPI_PMI_LIBRARY will be ignored since the hydra process manager was found
MPI startup(): Warning: I_MPI_PMI_LIBRARY will be ignored since the hydra process manager was found
MPI startup(): Warning: I_MPI_PMI_LIBRARY will be ignored since the hydra process manager was found
MPI startup(): Warning: I_MPI_PMI_LIBRARY will be ignored since the hydra process manager was found
MPI startup(): Warning: I_MPI_PMI_LIBRARY will be ignored since the hydra process manager was found
MPI startup(): Warning: I_MPI_PMI_LIBRARY will be ignored since the hydra process manager was found
MPI startup(): Warning: I_MPI_PMI_LIBRARY will be ignored since the hydra process manager was found
MPI startup(): Warning: I_MPI_PMI_LIBRARY will be ignored since the hydra process manager was found
MPI startup(): Warning: I_MPI_PMI_LIBRARY will be ignored since the hydra process manager was found
MPI startup(): Warning: I_MPI_PMI_LIBRARY will be ignored since the hydra process manager was found
MPI startup(): Warning: I_MPI_PMI_LIBRARY will be ignored since the hydra process manager was found
MPI startup(): Warning: I_MPI_PMI_LIBRARY will be ignored since the hydra process manager was found
MPI startup(): Warning: I_MPI_PMI_LIBRARY will be ignored since the hydra process manager was found
MPI startup(): Warning: I_MPI_PMI_LIBRARY will be ignored since the hydra process manager was found
MPI startup(): Warning: I_MPI_PMI_LIBRARY will be ignored since the hydra process manager was found
MPI startup(): Warning: I_MPI_PMI_LIBRARY will be ignored since the hydra process manager was found
MPI startup(): Warning: I_MPI_PMI_LIBRARY will be ignored since the hydra process manager was found

     Program PWSCF v.6.7MaX starts on 30Jul2021 at 19: 6:33 

     This program is part of the open-source Quantum ESPRESSO suite
     for quantum simulation of materials; please cite
         "P. Giannozzi et al., J. Phys.:Condens. Matter 21 395502 (2009);
         "P. Giannozzi et al., J. Phys.:Condens. Matter 29 465901 (2017);
          URL http://www.quantum-espresso.org", 
     in publications or presentations arising from this work. More details at
     http://www.quantum-espresso.org/quote

     Parallel version (MPI), running on    24 processors

     MPI processes distributed on     1 nodes
     R & G space division:  proc/nbgrp/npool/nimage =      24
     Waiting for input...
     Reading input from standard input

     Current dimensions of program PWSCF are:
     Max number of different atomic species (ntypx) = 10
     Max number of k-points (npk) =  40000
     Max angular momentum in pseudopotentials (lmaxx) =  3
     file Cr.rel-pbe-spn-kjpaw_psl.1.0.0.UPF: wavefunction(s)  3S 3P 3P 3D 3D renormalized
     file Si.rel-pbe-n-kjpaw_psl.1.0.0.UPF: wavefunction(s)  3S 3P 3P renormalized

     Subspace diagonalization in iterative solution of the eigenvalue problem:
     a serial algorithm will be used

     Message from routine setup:
     using ibrav=0 with symmetry is DISCOURAGED, use correct ibrav instead
 
     Parallelization info
     --------------------
     sticks:   dense  smooth     PW     G-vecs:    dense   smooth      PW
     Min         228      91     25                12702     3210     487
     Max         229      93     26                12704     3214     492
     Sum        5473    2201    621               304867    77053   11753
 


     bravais-lattice index     =            0
     lattice parameter (alat)  =       8.7475  a.u.
     unit-cell volume          =     669.3575 (a.u.)^3
     number of atoms/cell      =            8
     number of atomic types    =            2
     number of electrons       =        72.00
     number of Kohn-Sham states=           86
     kinetic-energy cutoff     =      90.0000  Ry
     charge density cutoff     =     900.0000  Ry
     scf convergence threshold =      1.0E-06
     mixing beta               =       0.7000
     number of iterations used =            8  plain     mixing
     Exchange-correlation= SLA  PW   PBX  PBC
                           (   1   4   3   4   0   0   0)
     Non magnetic calculation with spin-orbit


     celldm(1)=   8.747542  celldm(2)=   0.000000  celldm(3)=   0.000000
     celldm(4)=   0.000000  celldm(5)=   0.000000  celldm(6)=   0.000000

     crystal axes: (cart. coord. in units of alat)
               a(1) = (   1.000000   0.000000   0.000000 )  
               a(2) = (   0.000000   1.000000   0.000000 )  
               a(3) = (   0.000000   0.000000   1.000000 )  

     reciprocal axes: (cart. coord. in units 2 pi/alat)
               b(1) = (  1.000000  0.000000  0.000000 )  
               b(2) = (  0.000000  1.000000  0.000000 )  
               b(3) = (  0.000000  0.000000  1.000000 )  


     PseudoPot. # 1 for Cr read from file:
     ../../../../pseudo/Cr.rel-pbe-spn-kjpaw_psl.1.0.0.UPF
     MD5 check sum: 1e24e2b5251376a8b945118fca0c7981
     Pseudo is Projector augmented-wave + core cor, Zval = 14.0
     Generated using &quot;atomic&quot; code by A. Dal Corso  v.6.3
     Shape of augmentation charge: PSQ
     Using radial grid of 1183 points, 10 beta functions with: 
                l(1) =   0
                l(2) =   0
                l(3) =   1
                l(4) =   1
                l(5) =   1
                l(6) =   1
                l(7) =   2
                l(8) =   2
                l(9) =   2
               l(10) =   2
     Q(r) pseudized with 0 coefficients 


     PseudoPot. # 2 for Si read from file:
     ../../../../pseudo/Si.rel-pbe-n-kjpaw_psl.1.0.0.UPF
     MD5 check sum: d74f6caf6830ea4c2076867160cab1b0
     Pseudo is Projector augmented-wave + core cor, Zval =  4.0
     Generated using &quot;atomic&quot; code by A. Dal Corso  v.6.3
     Shape of augmentation charge: PSQ
     Using radial grid of 1141 points, 10 beta functions with: 
                l(1) =   0
                l(2) =   0
                l(3) =   1
                l(4) =   1
                l(5) =   1
                l(6) =   1
                l(7) =   2
                l(8) =   2
                l(9) =   2
               l(10) =   2
     Q(r) pseudized with 0 coefficients 


     atomic species   valence    mass     pseudopotential
        Cr            14.00    51.99600     Cr( 1.00)
        Si             4.00    28.08500     Si( 1.00)

     12 Sym. Ops. (no inversion) found ( 9 have fractional translation)


                                    s                        frac. trans.

      isym =  1     identity                                     

 cryst.   s( 1) = (     1          0          0      )
                  (     0          1          0      )
                  (     0          0          1      )

 cart.    s( 1) = (  1.0000000  0.0000000  0.0000000 )
                  (  0.0000000  1.0000000  0.0000000 )
                  (  0.0000000  0.0000000  1.0000000 )


      isym =  2     180 deg rotation - cart. axis [0,0,1]        

 cryst.   s( 2) = (    -1          0          0      )    f =(  0.5000000 )
                  (     0         -1          0      )       (  0.0000000 )
                  (     0          0          1      )       ( -0.5000000 )

 cart.    s( 2) = ( -1.0000000  0.0000000  0.0000000 )    f =(  0.5000000 )
                  (  0.0000000 -1.0000000  0.0000000 )       (  0.0000000 )
                  (  0.0000000  0.0000000  1.0000000 )       ( -0.5000000 )


      isym =  3     180 deg rotation - cart. axis [0,1,0]        

 cryst.   s( 3) = (    -1          0          0      )    f =(  0.0000000 )
                  (     0          1          0      )       ( -0.5000000 )
                  (     0          0         -1      )       (  0.5000000 )

 cart.    s( 3) = ( -1.0000000  0.0000000  0.0000000 )    f =(  0.0000000 )
                  (  0.0000000  1.0000000  0.0000000 )       ( -0.5000000 )
                  (  0.0000000  0.0000000 -1.0000000 )       (  0.5000000 )


      isym =  4     180 deg rotation - cart. axis [1,0,0]        

 cryst.   s( 4) = (     1          0          0      )    f =(  0.5000000 )
                  (     0         -1          0      )       (  0.5000000 )
                  (     0          0         -1      )       (  0.0000000 )

 cart.    s( 4) = (  1.0000000  0.0000000  0.0000000 )    f =(  0.5000000 )
                  (  0.0000000 -1.0000000  0.0000000 )       (  0.5000000 )
                  (  0.0000000  0.0000000 -1.0000000 )       (  0.0000000 )


      isym =  5     120 deg rotation - cart. axis [-1,-1,-1]     

 cryst.   s( 5) = (     0          0          1      )
                  (     1          0          0      )
                  (     0          1          0      )

 cart.    s( 5) = (  0.0000000  1.0000000  0.0000000 )
                  (  0.0000000  0.0000000  1.0000000 )
                  (  1.0000000  0.0000000  0.0000000 )


      isym =  6     120 deg rotation - cart. axis [-1,1,1]       

 cryst.   s( 6) = (     0          0         -1      )    f =(  0.0000000 )
                  (    -1          0          0      )       ( -0.5000000 )
                  (     0          1          0      )       (  0.5000000 )

 cart.    s( 6) = (  0.0000000 -1.0000000  0.0000000 )    f =(  0.0000000 )
                  (  0.0000000  0.0000000  1.0000000 )       ( -0.5000000 )
                  ( -1.0000000  0.0000000  0.0000000 )       (  0.5000000 )


      isym =  7     120 deg rotation - cart. axis [1,1,-1]       

 cryst.   s( 7) = (     0          0         -1      )    f =(  0.5000000 )
                  (     1          0          0      )       (  0.5000000 )
                  (     0         -1          0      )       (  0.0000000 )

 cart.    s( 7) = (  0.0000000  1.0000000  0.0000000 )    f =(  0.5000000 )
                  (  0.0000000  0.0000000 -1.0000000 )       (  0.5000000 )
                  ( -1.0000000  0.0000000  0.0000000 )       (  0.0000000 )


      isym =  8     120 deg rotation - cart. axis [1,-1,1]       

 cryst.   s( 8) = (     0          0          1      )    f =(  0.5000000 )
                  (    -1          0          0      )       (  0.0000000 )
                  (     0         -1          0      )       ( -0.5000000 )

 cart.    s( 8) = (  0.0000000 -1.0000000  0.0000000 )    f =(  0.5000000 )
                  (  0.0000000  0.0000000 -1.0000000 )       (  0.0000000 )
                  (  1.0000000  0.0000000  0.0000000 )       ( -0.5000000 )


      isym =  9     120 deg rotation - cart. axis [1,1,1]        

 cryst.   s( 9) = (     0          1          0      )
                  (     0          0          1      )
                  (     1          0          0      )

 cart.    s( 9) = (  0.0000000  0.0000000  1.0000000 )
                  (  1.0000000  0.0000000  0.0000000 )
                  (  0.0000000  1.0000000  0.0000000 )


      isym = 10     120 deg rotation - cart. axis [-1,1,-1]      

 cryst.   s(10) = (     0         -1          0      )    f =(  0.5000000 )
                  (     0          0         -1      )       (  0.5000000 )
                  (     1          0          0      )       (  0.0000000 )

 cart.    s(10) = (  0.0000000  0.0000000  1.0000000 )    f =(  0.5000000 )
                  ( -1.0000000  0.0000000  0.0000000 )       (  0.5000000 )
                  (  0.0000000 -1.0000000  0.0000000 )       (  0.0000000 )


      isym = 11     120 deg rotation - cart. axis [1,-1,-1]      

 cryst.   s(11) = (     0         -1          0      )    f =(  0.5000000 )
                  (     0          0          1      )       (  0.0000000 )
                  (    -1          0          0      )       ( -0.5000000 )

 cart.    s(11) = (  0.0000000  0.0000000 -1.0000000 )    f =(  0.5000000 )
                  ( -1.0000000  0.0000000  0.0000000 )       (  0.0000000 )
                  (  0.0000000  1.0000000  0.0000000 )       ( -0.5000000 )


      isym = 12     120 deg rotation - cart. axis [-1,-1,1]      

 cryst.   s(12) = (     0          1          0      )    f =(  0.0000000 )
                  (     0          0         -1      )       ( -0.5000000 )
                  (    -1          0          0      )       (  0.5000000 )

 cart.    s(12) = (  0.0000000  0.0000000 -1.0000000 )    f =(  0.0000000 )
                  (  1.0000000  0.0000000  0.0000000 )       ( -0.5000000 )
                  (  0.0000000 -1.0000000  0.0000000 )       (  0.5000000 )


   Cartesian axes

     site n.     atom                  positions (alat units)
         1           Cr  tau(   1) = (   0.8640000   0.3640000   0.1360000  )
         2           Cr  tau(   2) = (   0.3640000   0.1360000   0.8640000  )
         3           Cr  tau(   3) = (   0.1360000   0.8640000   0.3640000  )
         4           Cr  tau(   4) = (   0.6360000   0.6360000   0.6360000  )
         5           Si  tau(   5) = (   0.1540000   0.6540000   0.8460000  )
         6           Si  tau(   6) = (   0.6540000   0.8460000   0.1540000  )
         7           Si  tau(   7) = (   0.8460000   0.1540000   0.6540000  )
         8           Si  tau(   8) = (   0.3460000   0.3460000   0.3460000  )

   Crystallographic axes

     site n.     atom                  positions (cryst. coord.)
         1           Cr  tau(   1) = (  0.8640000  0.3640000  0.1360000  )
         2           Cr  tau(   2) = (  0.3640000  0.1360000  0.8640000  )
         3           Cr  tau(   3) = (  0.1360000  0.8640000  0.3640000  )
         4           Cr  tau(   4) = (  0.6360000  0.6360000  0.6360000  )
         5           Si  tau(   5) = (  0.1540000  0.6540000  0.8460000  )
         6           Si  tau(   6) = (  0.6540000  0.8460000  0.1540000  )
         7           Si  tau(   7) = (  0.8460000  0.1540000  0.6540000  )
         8           Si  tau(   8) = (  0.3460000  0.3460000  0.3460000  )

     number of k points=    45  Methfessel-Paxton smearing, width (Ry)=  0.0200
                       cart. coord. in units 2pi/alat
        k(    1) = (   0.0000000   0.0000000   0.0000000), wk =   0.0019531
        k(    2) = (   0.0000000   0.0000000   0.1250000), wk =   0.0117188
        k(    3) = (   0.0000000   0.0000000   0.2500000), wk =   0.0117188
        k(    4) = (   0.0000000   0.0000000   0.3750000), wk =   0.0117188
        k(    5) = (   0.0000000   0.0000000  -0.5000000), wk =   0.0058594
        k(    6) = (   0.0000000   0.1250000   0.1250000), wk =   0.0234375
        k(    7) = (   0.0000000   0.1250000   0.2500000), wk =   0.0234375
        k(    8) = (   0.0000000   0.1250000   0.3750000), wk =   0.0234375
        k(    9) = (   0.0000000   0.1250000  -0.5000000), wk =   0.0117188
        k(   10) = (   0.0000000   0.2500000   0.2500000), wk =   0.0234375
        k(   11) = (   0.0000000   0.2500000   0.3750000), wk =   0.0234375
        k(   12) = (   0.0000000   0.2500000  -0.5000000), wk =   0.0117188
        k(   13) = (   0.0000000   0.3750000   0.3750000), wk =   0.0234375
        k(   14) = (   0.0000000   0.3750000  -0.5000000), wk =   0.0117188
        k(   15) = (   0.0000000  -0.5000000  -0.5000000), wk =   0.0058594
        k(   16) = (   0.1250000   0.1250000   0.1250000), wk =   0.0156250
        k(   17) = (   0.1250000   0.1250000   0.2500000), wk =   0.0468750
        k(   18) = (   0.1250000   0.1250000   0.3750000), wk =   0.0468750
        k(   19) = (   0.1250000   0.1250000  -0.5000000), wk =   0.0234375
        k(   20) = (   0.1250000   0.2500000   0.2500000), wk =   0.0468750
        k(   21) = (   0.1250000   0.2500000   0.3750000), wk =   0.0468750
        k(   22) = (   0.1250000   0.2500000  -0.5000000), wk =   0.0234375
        k(   23) = (   0.1250000   0.3750000   0.3750000), wk =   0.0468750
        k(   24) = (   0.1250000   0.3750000  -0.5000000), wk =   0.0234375
        k(   25) = (   0.1250000  -0.5000000  -0.5000000), wk =   0.0117188
        k(   26) = (   0.2500000   0.2500000   0.2500000), wk =   0.0156250
        k(   27) = (   0.2500000   0.2500000   0.3750000), wk =   0.0468750
        k(   28) = (   0.2500000   0.2500000  -0.5000000), wk =   0.0234375
        k(   29) = (   0.2500000   0.3750000   0.3750000), wk =   0.0468750
        k(   30) = (   0.2500000   0.3750000  -0.5000000), wk =   0.0234375
        k(   31) = (   0.2500000  -0.5000000  -0.5000000), wk =   0.0117188
        k(   32) = (   0.3750000   0.3750000   0.3750000), wk =   0.0156250
        k(   33) = (   0.3750000   0.3750000  -0.5000000), wk =   0.0234375
        k(   34) = (   0.3750000  -0.5000000  -0.5000000), wk =   0.0117188
        k(   35) = (  -0.5000000  -0.5000000  -0.5000000), wk =   0.0019531
        k(   36) = (   0.0000000   0.2500000   0.1250000), wk =   0.0234375
        k(   37) = (   0.0000000   0.3750000   0.1250000), wk =   0.0234375
        k(   38) = (   0.0000000  -0.5000000   0.1250000), wk =   0.0117188
        k(   39) = (   0.0000000   0.3750000   0.2500000), wk =   0.0234375
        k(   40) = (   0.0000000  -0.5000000   0.2500000), wk =   0.0117188
        k(   41) = (   0.0000000  -0.5000000   0.3750000), wk =   0.0117188
        k(   42) = (  -0.1250000   0.3750000   0.2500000), wk =   0.0468750
        k(   43) = (  -0.1250000  -0.5000000   0.2500000), wk =   0.0234375
        k(   44) = (  -0.1250000  -0.5000000   0.3750000), wk =   0.0234375
        k(   45) = (  -0.2500000  -0.5000000   0.3750000), wk =   0.0234375

                       cryst. coord.
        k(    1) = (   0.0000000   0.0000000   0.0000000), wk =   0.0019531
        k(    2) = (   0.0000000   0.0000000   0.1250000), wk =   0.0117188
        k(    3) = (   0.0000000   0.0000000   0.2500000), wk =   0.0117188
        k(    4) = (   0.0000000   0.0000000   0.3750000), wk =   0.0117188
        k(    5) = (   0.0000000   0.0000000  -0.5000000), wk =   0.0058594
        k(    6) = (   0.0000000   0.1250000   0.1250000), wk =   0.0234375
        k(    7) = (   0.0000000   0.1250000   0.2500000), wk =   0.0234375
        k(    8) = (   0.0000000   0.1250000   0.3750000), wk =   0.0234375
        k(    9) = (   0.0000000   0.1250000  -0.5000000), wk =   0.0117188
        k(   10) = (   0.0000000   0.2500000   0.2500000), wk =   0.0234375
        k(   11) = (   0.0000000   0.2500000   0.3750000), wk =   0.0234375
        k(   12) = (   0.0000000   0.2500000  -0.5000000), wk =   0.0117188
        k(   13) = (   0.0000000   0.3750000   0.3750000), wk =   0.0234375
        k(   14) = (   0.0000000   0.3750000  -0.5000000), wk =   0.0117188
        k(   15) = (   0.0000000  -0.5000000  -0.5000000), wk =   0.0058594
        k(   16) = (   0.1250000   0.1250000   0.1250000), wk =   0.0156250
        k(   17) = (   0.1250000   0.1250000   0.2500000), wk =   0.0468750
        k(   18) = (   0.1250000   0.1250000   0.3750000), wk =   0.0468750
        k(   19) = (   0.1250000   0.1250000  -0.5000000), wk =   0.0234375
        k(   20) = (   0.1250000   0.2500000   0.2500000), wk =   0.0468750
        k(   21) = (   0.1250000   0.2500000   0.3750000), wk =   0.0468750
        k(   22) = (   0.1250000   0.2500000  -0.5000000), wk =   0.0234375
        k(   23) = (   0.1250000   0.3750000   0.3750000), wk =   0.0468750
        k(   24) = (   0.1250000   0.3750000  -0.5000000), wk =   0.0234375
        k(   25) = (   0.1250000  -0.5000000  -0.5000000), wk =   0.0117188
        k(   26) = (   0.2500000   0.2500000   0.2500000), wk =   0.0156250
        k(   27) = (   0.2500000   0.2500000   0.3750000), wk =   0.0468750
        k(   28) = (   0.2500000   0.2500000  -0.5000000), wk =   0.0234375
        k(   29) = (   0.2500000   0.3750000   0.3750000), wk =   0.0468750
        k(   30) = (   0.2500000   0.3750000  -0.5000000), wk =   0.0234375
        k(   31) = (   0.2500000  -0.5000000  -0.5000000), wk =   0.0117188
        k(   32) = (   0.3750000   0.3750000   0.3750000), wk =   0.0156250
        k(   33) = (   0.3750000   0.3750000  -0.5000000), wk =   0.0234375
        k(   34) = (   0.3750000  -0.5000000  -0.5000000), wk =   0.0117188
        k(   35) = (  -0.5000000  -0.5000000  -0.5000000), wk =   0.0019531
        k(   36) = (   0.0000000   0.2500000   0.1250000), wk =   0.0234375
        k(   37) = (   0.0000000   0.3750000   0.1250000), wk =   0.0234375
        k(   38) = (   0.0000000  -0.5000000   0.1250000), wk =   0.0117188
        k(   39) = (   0.0000000   0.3750000   0.2500000), wk =   0.0234375
        k(   40) = (   0.0000000  -0.5000000   0.2500000), wk =   0.0117188
        k(   41) = (   0.0000000  -0.5000000   0.3750000), wk =   0.0117188
        k(   42) = (  -0.1250000   0.3750000   0.2500000), wk =   0.0468750
        k(   43) = (  -0.1250000  -0.5000000   0.2500000), wk =   0.0234375
        k(   44) = (  -0.1250000  -0.5000000   0.3750000), wk =   0.0234375
        k(   45) = (  -0.2500000  -0.5000000   0.3750000), wk =   0.0234375

     Dense  grid:   304867 G-vectors     FFT dimensions: (  90,  90,  90)

     Smooth grid:    77053 G-vectors     FFT dimensions: (  54,  54,  54)

     Dynamical RAM for                 wfc:       1.06 MB

     Dynamical RAM for     wfc (w. buffer):      48.53 MB

     Dynamical RAM for           str. fact:       0.39 MB

     Dynamical RAM for           local pot:       0.00 MB

     Dynamical RAM for          nlocal pot:       1.67 MB

     Dynamical RAM for                qrad:      12.61 MB

     Dynamical RAM for          rho,v,vnew:       5.29 MB

     Dynamical RAM for               rhoin:       1.76 MB

     Dynamical RAM for            rho*nmix:      12.41 MB

     Dynamical RAM for           G-vectors:       0.75 MB

     Dynamical RAM for          h,s,v(r/c):       1.35 MB

     Dynamical RAM for          <psi|beta>:       0.71 MB

     Dynamical RAM for                 psi:       2.11 MB

     Dynamical RAM for                hpsi:       2.11 MB

     Dynamical RAM for                spsi:       2.11 MB

     Dynamical RAM for      wfcinit/wfcrot:       2.35 MB

     Dynamical RAM for           addusdens:     119.02 MB

     Estimated static dynamical RAM per process >      85.97 MB

     Estimated max dynamical RAM per process >     204.99 MB

     Estimated total dynamical RAM >       4.80 GB

     Initial potential from superposition of free atoms

     starting charge   71.99469, renormalised to   72.00000
     Starting wfcs are  112 randomized atomic wfcs
     Checking if some PAW data can be deallocated... 
       PAW data deallocated on   12 nodes for type:  1
       PAW data deallocated on   12 nodes for type:  2

     total cpu time spent up to now is       10.2 secs

     Self-consistent Calculation

     iteration #  1     ecut=    90.00 Ry     beta= 0.70
     Davidson diagonalization with overlap
     ethr =  1.00E-02,  avg # of iterations =  2.0

     Threshold (ethr) on eigenvalues was too large:
     Diagonalizing with lowered threshold

     Davidson diagonalization with overlap
     ethr =  2.09E-04,  avg # of iterations =  4.3

     total cpu time spent up to now is       52.7 secs

     total energy              =   -1180.30991009 Ry
     estimated scf accuracy    <       0.18924110 Ry

     iteration #  2     ecut=    90.00 Ry     beta= 0.70
     Davidson diagonalization with overlap
     ethr =  2.63E-04,  avg # of iterations =  3.2

     total cpu time spent up to now is       74.5 secs

     total energy              =   -1180.31480299 Ry
     estimated scf accuracy    <       0.08178157 Ry

     iteration #  3     ecut=    90.00 Ry     beta= 0.70
     Davidson diagonalization with overlap
     ethr =  1.14E-04,  avg # of iterations =  5.0

     total cpu time spent up to now is      100.8 secs

     total energy              =   -1180.32613309 Ry
     estimated scf accuracy    <       0.16180556 Ry

     iteration #  4     ecut=    90.00 Ry     beta= 0.70
     Davidson diagonalization with overlap
     ethr =  1.14E-04,  avg # of iterations =  4.1

     total cpu time spent up to now is      122.0 secs

     total energy              =   -1180.35002155 Ry
     estimated scf accuracy    <       0.00034950 Ry

     iteration #  5     ecut=    90.00 Ry     beta= 0.70
     Davidson diagonalization with overlap
     ethr =  4.85E-07,  avg # of iterations =  8.2

     total cpu time spent up to now is      154.7 secs

     total energy              =   -1180.35063093 Ry
     estimated scf accuracy    <       0.00031007 Ry

     iteration #  6     ecut=    90.00 Ry     beta= 0.70
     Davidson diagonalization with overlap
     ethr =  4.31E-07,  avg # of iterations =  3.0

     total cpu time spent up to now is      173.5 secs

     total energy              =   -1180.35068487 Ry
     estimated scf accuracy    <       0.00000210 Ry

     iteration #  7     ecut=    90.00 Ry     beta= 0.70
     Davidson diagonalization with overlap
     ethr =  2.92E-09,  avg # of iterations =  8.0

     total cpu time spent up to now is      209.0 secs

     total energy              =   -1180.35068659 Ry
     estimated scf accuracy    <       0.00003354 Ry

     iteration #  8     ecut=    90.00 Ry     beta= 0.70
     Davidson diagonalization with overlap
     ethr =  2.92E-09,  avg # of iterations =  5.2

     total cpu time spent up to now is      237.5 secs

     End of self-consistent calculation

          k = 0.0000 0.0000 0.0000 (  9771 PWs)   bands (ev):

   -56.5151 -56.5151 -56.4804 -56.4804 -56.4804 -56.4804 -56.4804 -56.4804
   -28.5805 -28.5805 -28.5730 -28.5730 -28.5730 -28.5730 -28.4836 -28.4836
   -27.6149 -27.6149 -27.6149 -27.6149 -27.5382 -27.5382 -27.5382 -27.5382
   -27.5334 -27.5334 -27.4509 -27.4509 -27.4507 -27.4507 -27.4507 -27.4507
     2.6985   2.6985   7.4568   7.4568   7.4568   7.4568   7.4659   7.4659
    10.5369  10.5369  10.5449  10.5449  10.5449  10.5449  11.9112  11.9112
    11.9112  11.9112  11.9223  11.9223  12.6023  12.6023  12.7720  12.7720
    12.7720  12.7720  13.1440  13.1440  13.1440  13.1440  13.1451  13.1451
    13.6720  13.6720  13.6720  13.6720  13.6758  13.6758  15.5519  15.5519
    15.5832  15.5832  15.5832  15.5832  15.7665  15.7665  15.7665  15.7665
    16.6653  16.6653  16.6956  16.6956  16.6956  16.6956

     occupation numbers 
     1.0000   1.0000   1.0000   1.0000   1.0000   1.0000   1.0000   1.0000
     1.0000   1.0000   1.0000   1.0000   1.0000   1.0000   1.0000   1.0000
     1.0000   1.0000   1.0000   1.0000   1.0000   1.0000   1.0000   1.0000
     1.0000   1.0000   1.0000   1.0000   1.0000   1.0000   1.0000   1.0000
     1.0000   1.0000   1.0000   1.0000   1.0000   1.0000   1.0000   1.0000
     1.0000   1.0000   1.0000   1.0000   1.0000   1.0000   1.0000   1.0000
     1.0000   1.0000   1.0000   1.0000   1.0000   1.0000   1.0000   1.0000
     1.0000   1.0000   1.0000   1.0000   1.0000   1.0000   1.0000   1.0000
     1.0000   1.0000   1.0000   1.0000   1.0000   1.0000  -0.0040  -0.0040
    -0.0026  -0.0026  -0.0026  -0.0026  -0.0001  -0.0001  -0.0001  -0.0001
    -0.0000  -0.0000  -0.0000  -0.0000  -0.0000  -0.0000

          k = 0.0000 0.0000 0.1250 (  9667 PWs)   bands (ev):

   -56.5141 -56.5141 -56.4845 -56.4845 -56.4801 -56.4801 -56.4777 -56.4777
   -28.5866 -28.5797 -28.5766 -28.5760 -28.5662 -28.5631 -28.4865 -28.4865
   -27.6282 -27.6216 -27.6056 -27.5991 -27.5474 -27.5439 -27.5405 -27.5327
   -27.5310 -27.5210 -27.4587 -27.4567 -27.4545 -27.4493 -27.4485 -27.4445
     2.8068   2.8068   6.7951   6.7984   7.5179   7.5193   7.9726   7.9813
    10.0751  10.0802  10.6133  10.6150  11.0391  11.0409  11.3199  11.3200
    11.6501  11.6540  12.5294  12.5359  12.5609  12.5792  12.7793  12.7865
    12.9230  12.9243  13.1144  13.1164  13.1789  13.1792  13.2097  13.2101
    13.5222  13.5299  13.6535  13.6551  13.9000  13.9002  15.3981  15.4163
    15.4451  15.4548  15.7233  15.7266  15.7398  15.7542  15.7663  15.7717
    16.4738  16.4908  16.6337  16.6385  16.8958  16.9163

     occupation numbers 
     1.0000   1.0000   1.0000   1.0000   1.0000   1.0000   1.0000   1.0000
     1.0000   1.0000   1.0000   1.0000   1.0000   1.0000   1.0000   1.0000
     1.0000   1.0000   1.0000   1.0000   1.0000   1.0000   1.0000   1.0000
     1.0000   1.0000   1.0000   1.0000   1.0000   1.0000   1.0000   1.0000
     1.0000   1.0000   1.0000   1.0000   1.0000   1.0000   1.0000   1.0000
     1.0000   1.0000   1.0000   1.0000   1.0000   1.0000   1.0000   1.0000
     1.0000   1.0000   1.0000   1.0000   1.0000   1.0000   1.0000   1.0000
     1.0000   1.0000   1.0000   1.0000   1.0000   1.0000   1.0000   1.0000
     1.0000   1.0000   1.0000   1.0000   1.0000   1.0000  -0.0217  -0.0187
    -0.0143  -0.0130  -0.0002  -0.0002  -0.0002  -0.0001  -0.0001  -0.0001
    -0.0000  -0.0000  -0.0000  -0.0000  -0.0000  -0.0000

          k = 0.0000 0.0000 0.2500 (  9618 PWs)   bands (ev):

   -56.5112 -56.5112 -56.4896 -56.4896 -56.4792 -56.4792 -56.4764 -56.4764
   -28.5902 -28.5832 -28.5799 -28.5775 -28.5536 -28.5506 -28.4947 -28.4944
   -27.6367 -27.6275 -27.5928 -27.5855 -27.5572 -27.5455 -27.5377 -27.5331
   -27.5275 -27.5067 -27.4688 -27.4627 -27.4604 -27.4502 -27.4480 -27.4414
     3.1270   3.1270   5.9917   5.9931   7.6894   7.6924   8.3701   8.3801
     9.7440   9.7453  10.7559  10.7612  10.8656  10.8744  11.1950  11.2024
    11.5683  11.5690  12.2653  12.2802  12.8660  12.8727  12.9122  12.9341
    13.1211  13.1250  13.1295  13.1346  13.2515  13.2521  13.2822  13.2862
    13.5441  13.5474  13.6979  13.7054  14.0466  14.0471  15.0729  15.1016
    15.3806  15.3811  15.6177  15.6329  15.7401  15.7644  15.8517  15.8756
    16.2853  16.3000  16.4933  16.5048  17.1870  17.2075

     occupation numbers 
     1.0000   1.0000   1.0000   1.0000   1.0000   1.0000   1.0000   1.0000
     1.0000   1.0000   1.0000   1.0000   1.0000   1.0000   1.0000   1.0000
     1.0000   1.0000   1.0000   1.0000   1.0000   1.0000   1.0000   1.0000
     1.0000   1.0000   1.0000   1.0000   1.0000   1.0000   1.0000   1.0000
     1.0000   1.0000   1.0000   1.0000   1.0000   1.0000   1.0000   1.0000
     1.0000   1.0000   1.0000   1.0000   1.0000   1.0000   1.0000   1.0000
     1.0000   1.0000   1.0000   1.0000   1.0000   1.0000   1.0000   1.0000
     1.0000   1.0000   1.0000   1.0000   1.0000   1.0000   1.0000   1.0000
     1.0000   1.0000   1.0000   1.0000   1.0000   1.0000   0.1675   0.1085
    -0.0246  -0.0246  -0.0015  -0.0012  -0.0002  -0.0001  -0.0000  -0.0000
    -0.0000  -0.0000  -0.0000  -0.0000  -0.0000  -0.0000

          k = 0.0000 0.0000 0.3750 (  9662 PWs)   bands (ev):

   -56.5068 -56.5068 -56.4954 -56.4954 -56.4780 -56.4780 -56.4762 -56.4762
   -28.5905 -28.5844 -28.5840 -28.5800 -28.5383 -28.5361 -28.5072 -28.5064
   -27.6398 -27.6335 -27.5797 -27.5747 -27.5659 -27.5425 -27.5419 -27.5292
   -27.5237 -27.4924 -27.4848 -27.4687 -27.4620 -27.4533 -27.4468 -27.4417
     3.6436   3.6436   5.1355   5.1361   7.9591   7.9637   8.5101   8.5190
     9.6767   9.6795  10.5120  10.5126  10.7722  10.7854  11.0297  11.0315
    12.0050  12.0073  12.1207  12.1354  12.7684  12.7838  12.9434  12.9562
    13.0797  13.0872  13.1862  13.1902  13.2458  13.2490  13.3255  13.3289
    13.5401  13.5405  13.9317  13.9360  14.2197  14.2332  14.8123  14.8472
    15.3576  15.3692  15.4974  15.5165  15.7543  15.7838  15.8466  15.8718
    16.1649  16.1808  16.3080  16.3219  17.3499  17.3609

     occupation numbers 
     1.0000   1.0000   1.0000   1.0000   1.0000   1.0000   1.0000   1.0000
     1.0000   1.0000   1.0000   1.0000   1.0000   1.0000   1.0000   1.0000
     1.0000   1.0000   1.0000   1.0000   1.0000   1.0000   1.0000   1.0000
     1.0000   1.0000   1.0000   1.0000   1.0000   1.0000   1.0000   1.0000
     1.0000   1.0000   1.0000   1.0000   1.0000   1.0000   1.0000   1.0000
     1.0000   1.0000   1.0000   1.0000   1.0000   1.0000   1.0000   1.0000
     1.0000   1.0000   1.0000   1.0000   1.0000   1.0000   1.0000   1.0000
     1.0000   1.0000   1.0000   1.0000   1.0000   1.0000   1.0000   1.0000
     1.0000   1.0000   1.0000   1.0000   1.0005   1.0006   0.8823   0.8067
    -0.0285  -0.0266  -0.0081  -0.0064  -0.0001  -0.0001  -0.0000  -0.0000
    -0.0000  -0.0000  -0.0000  -0.0000  -0.0000  -0.0000

          k = 0.0000 0.0000-0.5000 (  9658 PWs)   bands (ev):

   -56.5013 -56.5013 -56.5013 -56.5013 -56.4769 -56.4769 -56.4769 -56.4769
   -28.5883 -28.5883 -28.5826 -28.5826 -28.5223 -28.5223 -28.5209 -28.5209
   -27.6382 -27.6382 -27.5730 -27.5730 -27.5580 -27.5580 -27.5352 -27.5352
   -27.5041 -27.5041 -27.4794 -27.4794 -27.4578 -27.4578 -27.4442 -27.4442
     4.3285   4.3285   4.3286   4.3286   8.2825   8.2825   8.2889   8.2889
    10.0167  10.0167  10.0207  10.0207  10.8980  10.8980  10.9092  10.9092
    12.2472  12.2472  12.2538  12.2538  12.6855  12.6855  12.6979  12.6979
    13.1421  13.1421  13.1425  13.1425  13.2375  13.2375  13.2411  13.2411
    13.7827  13.7827  13.7858  13.7858  14.5651  14.5651  14.5937  14.5937
    15.4018  15.4018  15.4196  15.4196  15.8064  15.8064  15.8361  15.8361
    16.1658  16.1658  16.1795  16.1795  17.5423  17.5467

     occupation numbers 
     1.0000   1.0000   1.0000   1.0000   1.0000   1.0000   1.0000   1.0000
     1.0000   1.0000   1.0000   1.0000   1.0000   1.0000   1.0000   1.0000
     1.0000   1.0000   1.0000   1.0000   1.0000   1.0000   1.0000   1.0000
     1.0000   1.0000   1.0000   1.0000   1.0000   1.0000   1.0000   1.0000
     1.0000   1.0000   1.0000   1.0000   1.0000   1.0000   1.0000   1.0000
     1.0000   1.0000   1.0000   1.0000   1.0000   1.0000   1.0000   1.0000
     1.0000   1.0000   1.0000   1.0000   1.0000   1.0000   1.0000   1.0000
     1.0000   1.0000   1.0000   1.0000   1.0000   1.0000   1.0000   1.0000
     1.0000   1.0000   1.0000   1.0000   1.0306   1.0306   1.0341   1.0341
    -0.0211  -0.0211  -0.0182  -0.0182  -0.0000  -0.0000  -0.0000  -0.0000
    -0.0000  -0.0000  -0.0000  -0.0000  -0.0000  -0.0000

          k = 0.0000 0.1250 0.1250 (  9657 PWs)   bands (ev):

   -56.5132 -56.5132 -56.4860 -56.4859 -56.4805 -56.4805 -56.4769 -56.4769
   -28.5886 -28.5824 -28.5753 -28.5747 -28.5634 -28.5595 -28.4893 -28.4892
   -27.6300 -27.6261 -27.5986 -27.5945 -27.5499 -27.5456 -27.5427 -27.5370
   -27.5245 -27.5144 -27.4635 -27.4622 -27.4560 -27.4502 -27.4456 -27.4420
     2.9144   2.9144   6.6452   6.6501   7.3152   7.3191   8.2192   8.2251
     9.9475   9.9524  10.6668  10.6728  10.8538  10.8584  11.2389  11.2421
    11.8044  11.8055  12.4435  12.4546  12.5940  12.6019  12.9024  12.9086
    13.0100  13.0193  13.1610  13.1620  13.1661  13.1709  13.2677  13.2696
    13.4646  13.4710  13.6781  13.6895  13.9949  14.0003  15.3454  15.3577
    15.3931  15.4025  15.6250  15.6344  15.7248  15.7411  15.7939  15.8152
    16.3736  16.3919  16.6462  16.6536  16.9380  16.9674

     occupation numbers 
     1.0000   1.0000   1.0000   1.0000   1.0000   1.0000   1.0000   1.0000
     1.0000   1.0000   1.0000   1.0000   1.0000   1.0000   1.0000   1.0000
     1.0000   1.0000   1.0000   1.0000   1.0000   1.0000   1.0000   1.0000
     1.0000   1.0000   1.0000   1.0000   1.0000   1.0000   1.0000   1.0000
     1.0000   1.0000   1.0000   1.0000   1.0000   1.0000   1.0000   1.0000
     1.0000   1.0000   1.0000   1.0000   1.0000   1.0000   1.0000   1.0000
     1.0000   1.0000   1.0000   1.0000   1.0000   1.0000   1.0000   1.0000
     1.0000   1.0000   1.0000   1.0000   1.0000   1.0000   1.0000   1.0000
     1.0000   1.0000   1.0000   1.0000   1.0000   1.0000  -0.0304  -0.0285
    -0.0225  -0.0209  -0.0014  -0.0012  -0.0002  -0.0002  -0.0001  -0.0000
    -0.0000  -0.0000  -0.0000  -0.0000  -0.0000  -0.0000

          k = 0.0000 0.1250 0.2500 (  9633 PWs)   bands (ev):

   -56.5104 -56.5104 -56.4900 -56.4900 -56.4799 -56.4799 -56.4762 -56.4762
   -28.5904 -28.5845 -28.5773 -28.5759 -28.5531 -28.5499 -28.4972 -28.4970
   -27.6353 -27.6287 -27.5890 -27.5837 -27.5567 -27.5477 -27.5416 -27.5369
   -27.5220 -27.5021 -27.4754 -27.4671 -27.4605 -27.4526 -27.4432 -27.4386
     3.2322   3.2323   6.0264   6.0289   7.3760   7.3787   8.4794   8.4845
     9.7444   9.7459  10.4120  10.4158  10.8572  10.8580  11.4944  11.4997
    11.5880  11.5896  12.3108  12.3206  12.6384  12.6410  13.0349  13.0424
    13.0739  13.0852  13.2036  13.2096  13.2813  13.2826  13.3809  13.3850
    13.5206  13.5270  13.8048  13.8201  14.1008  14.1079  15.0890  15.1160
    15.2983  15.3133  15.5083  15.5229  15.6903  15.7123  15.8393  15.8648
    16.2236  16.2388  16.5272  16.5395  17.1518  17.1854

     occupation numbers 
     1.0000   1.0000   1.0000   1.0000   1.0000   1.0000   1.0000   1.0000
     1.0000   1.0000   1.0000   1.0000   1.0000   1.0000   1.0000   1.0000
     1.0000   1.0000   1.0000   1.0000   1.0000   1.0000   1.0000   1.0000
     1.0000   1.0000   1.0000   1.0000   1.0000   1.0000   1.0000   1.0000
     1.0000   1.0000   1.0000   1.0000   1.0000   1.0000   1.0000   1.0000
     1.0000   1.0000   1.0000   1.0000   1.0000   1.0000   1.0000   1.0000
     1.0000   1.0000   1.0000   1.0000   1.0000   1.0000   1.0000   1.0000
     1.0000   1.0000   1.0000   1.0000   1.0000   1.0000   1.0000   1.0000
     1.0000   1.0000   1.0000   1.0000   1.0000   1.0000   0.1332   0.0830
    -0.0352  -0.0343  -0.0071  -0.0059  -0.0004  -0.0003  -0.0000  -0.0000
    -0.0000  -0.0000  -0.0000  -0.0000  -0.0000  -0.0000

          k = 0.0000 0.1250 0.3750 (  9657 PWs)   bands (ev):

   -56.5061 -56.5061 -56.4953 -56.4953 -56.4787 -56.4787 -56.4764 -56.4764
   -28.5898 -28.5848 -28.5813 -28.5785 -28.5391 -28.5369 -28.5092 -28.5086
   -27.6375 -27.6321 -27.5793 -27.5731 -27.5652 -27.5473 -27.5414 -27.5294
   -27.5245 -27.4926 -27.4877 -27.4702 -27.4638 -27.4569 -27.4412 -27.4379
     3.7444   3.7446   5.2135   5.2145   7.6677   7.6696   8.4242   8.4279
     9.7358   9.7391  10.2158  10.2198  11.0145  11.0205  11.1796  11.1935
    11.8665  11.8718  12.1814  12.1910  12.6390  12.6456  12.8670  12.8770
    13.0658  13.0721  13.2716  13.2763  13.3351  13.3370  13.4476  13.4505
    13.6019  13.6088  13.9679  13.9747  14.2904  14.3075  14.8246  14.8582
    15.2800  15.2959  15.3805  15.3930  15.6942  15.7204  15.8263  15.8557
    16.1472  16.1558  16.3588  16.3722  17.3038  17.3274

     occupation numbers 
     1.0000   1.0000   1.0000   1.0000   1.0000   1.0000   1.0000   1.0000
     1.0000   1.0000   1.0000   1.0000   1.0000   1.0000   1.0000   1.0000
     1.0000   1.0000   1.0000   1.0000   1.0000   1.0000   1.0000   1.0000
     1.0000   1.0000   1.0000   1.0000   1.0000   1.0000   1.0000   1.0000
     1.0000   1.0000   1.0000   1.0000   1.0000   1.0000   1.0000   1.0000
     1.0000   1.0000   1.0000   1.0000   1.0000   1.0000   1.0000   1.0000
     1.0000   1.0000   1.0000   1.0000   1.0000   1.0000   1.0000   1.0000
     1.0000   1.0000   1.0000   1.0000   1.0000   1.0000   1.0000   1.0000
     1.0000   1.0000   1.0000   1.0000   1.0015   1.0020   0.8575   0.7797
    -0.0353  -0.0353  -0.0247  -0.0225  -0.0004  -0.0003  -0.0000  -0.0000
    -0.0000  -0.0000  -0.0000  -0.0000  -0.0000  -0.0000

          k = 0.0000 0.1250-0.5000 (  9664 PWs)   bands (ev):

   -56.5009 -56.5009 -56.5009 -56.5009 -56.4774 -56.4774 -56.4774 -56.4774
   -28.5870 -28.5870 -28.5813 -28.5813 -28.5243 -28.5243 -28.5221 -28.5221
   -27.6358 -27.6358 -27.5727 -27.5727 -27.5588 -27.5588 -27.5348 -27.5348
   -27.5092 -27.5092 -27.4778 -27.4778 -27.4613 -27.4613 -27.4392 -27.4392
     4.4217   4.4217   4.4222   4.4222   8.0585   8.0585   8.0654   8.0654
     9.9958   9.9958  10.0002  10.0002  11.0364  11.0364  11.0505  11.0505
    12.1472  12.1472  12.1526  12.1526  12.5980  12.5980  12.6143  12.6143
    13.2273  13.2273  13.2298  13.2298  13.3329  13.3329  13.3342  13.3342
    13.8294  13.8294  13.8331  13.8331  14.5985  14.5985  14.6289  14.6289
    15.3031  15.3031  15.3190  15.3190  15.7575  15.7575  15.7872  15.7872
    16.2051  16.2051  16.2161  16.2161  17.5192  17.5267

     occupation numbers 
     1.0000   1.0000   1.0000   1.0000   1.0000   1.0000   1.0000   1.0000
     1.0000   1.0000   1.0000   1.0000   1.0000   1.0000   1.0000   1.0000
     1.0000   1.0000   1.0000   1.0000   1.0000   1.0000   1.0000   1.0000
     1.0000   1.0000   1.0000   1.0000   1.0000   1.0000   1.0000   1.0000
     1.0000   1.0000   1.0000   1.0000   1.0000   1.0000   1.0000   1.0000
     1.0000   1.0000   1.0000   1.0000   1.0000   1.0000   1.0000   1.0000
     1.0000   1.0000   1.0000   1.0000   1.0000   1.0000   1.0000   1.0000
     1.0000   1.0000   1.0000   1.0000   1.0000   1.0000   1.0000   1.0000
     1.0000   1.0000   1.0000   1.0000   1.0345   1.0345   1.0353   1.0353
    -0.0350  -0.0350  -0.0337  -0.0337  -0.0001  -0.0001  -0.0001  -0.0001
    -0.0000  -0.0000  -0.0000  -0.0000  -0.0000  -0.0000

          k = 0.0000 0.2500 0.2500 (  9661 PWs)   bands (ev):

   -56.5079 -56.5079 -56.4917 -56.4917 -56.4805 -56.4805 -56.4763 -56.4763
   -28.5898 -28.5847 -28.5750 -28.5742 -28.5495 -28.5463 -28.5045 -28.5041
   -27.6327 -27.6295 -27.5820 -27.5797 -27.5561 -27.5529 -27.5435 -27.5387
   -27.5186 -27.4965 -27.4854 -27.4750 -27.4660 -27.4489 -27.4392 -27.4351
     3.5424   3.5426   5.9650   5.9682   6.9410   6.9450   8.4363   8.4413
     9.7514   9.7547  10.1862  10.1913  10.9261  10.9286  11.3505  11.3516
    11.8597  11.8635  12.2862  12.2897  12.5057  12.5150  12.9042  12.9118
    13.1483  13.1576  13.2705  13.2800  13.4422  13.4436  13.5200  13.5293
    13.5707  13.5813  13.9846  13.9969  14.2197  14.2253  15.0461  15.0665
    15.1401  15.1648  15.2950  15.3064  15.6164  15.6415  15.7632  15.7920
    16.1595  16.1705  16.5120  16.5228  17.1852  17.2280

     occupation numbers 
     1.0000   1.0000   1.0000   1.0000   1.0000   1.0000   1.0000   1.0000
     1.0000   1.0000   1.0000   1.0000   1.0000   1.0000   1.0000   1.0000
     1.0000   1.0000   1.0000   1.0000   1.0000   1.0000   1.0000   1.0000
     1.0000   1.0000   1.0000   1.0000   1.0000   1.0000   1.0000   1.0000
     1.0000   1.0000   1.0000   1.0000   1.0000   1.0000   1.0000   1.0000
     1.0000   1.0000   1.0000   1.0000   1.0000   1.0000   1.0000   1.0000
     1.0000   1.0000   1.0000   1.0000   1.0000   1.0000   1.0000   1.0000
     1.0000   1.0000   1.0000   1.0000   1.0000   1.0000   1.0000   1.0000
     1.0000   1.0000   1.0000   1.0000   1.0005   1.0005   0.2322   0.1822
     0.0465   0.0172  -0.0354  -0.0348  -0.0016  -0.0010  -0.0001  -0.0001
    -0.0000  -0.0000  -0.0000  -0.0000  -0.0000  -0.0000

          k = 0.0000 0.2500 0.3750 (  9639 PWs)   bands (ev):

   -56.5041 -56.5041 -56.4952 -56.4952 -56.4799 -56.4799 -56.4772 -56.4772
   -28.5872 -28.5830 -28.5772 -28.5753 -28.5403 -28.5382 -28.5151 -28.5146
   -27.6310 -27.6282 -27.5807 -27.5736 -27.5614 -27.5510 -27.5408 -27.5326
   -27.5230 -27.5006 -27.4926 -27.4820 -27.4620 -27.4494 -27.4363 -27.4335
     4.0406   4.0410   5.4170   5.4189   7.0447   7.0478   8.0208   8.0242
     9.9168   9.9201  10.1870  10.1903  11.0284  11.0322  11.3804  11.3880
    11.8894  11.8914  12.0249  12.0291  12.4330  12.4440  12.6526  12.6625
    13.2353  13.2447  13.3300  13.3353  13.4394  13.4432  13.6539  13.6567
    13.7895  13.7930  14.0663  14.0758  14.4535  14.4789  14.8302  14.8571
    15.0721  15.0934  15.1483  15.1536  15.5774  15.6019  15.6802  15.7122
    16.2004  16.2073  16.4541  16.4645  17.1909  17.2198

     occupation numbers 
     1.0000   1.0000   1.0000   1.0000   1.0000   1.0000   1.0000   1.0000
     1.0000   1.0000   1.0000   1.0000   1.0000   1.0000   1.0000   1.0000
     1.0000   1.0000   1.0000   1.0000   1.0000   1.0000   1.0000   1.0000
     1.0000   1.0000   1.0000   1.0000   1.0000   1.0000   1.0000   1.0000
     1.0000   1.0000   1.0000   1.0000   1.0000   1.0000   1.0000   1.0000
     1.0000   1.0000   1.0000   1.0000   1.0000   1.0000   1.0000   1.0000
     1.0000   1.0000   1.0000   1.0000   1.0000   1.0000   1.0000   1.0000
     1.0000   1.0000   1.0000   1.0000   1.0000   1.0000   1.0000   1.0000
     1.0000   1.0000   1.0000   1.0000   1.0129   1.0165   0.8455   0.7825
     0.1694   0.1241   0.0360   0.0295  -0.0028  -0.0020  -0.0005  -0.0003
    -0.0000  -0.0000  -0.0000  -0.0000  -0.0000  -0.0000

          k = 0.0000 0.2500-0.5000 (  9686 PWs)   bands (ev):

   -56.4997 -56.4997 -56.4997 -56.4997 -56.4785 -56.4785 -56.4785 -56.4785
   -28.5833 -28.5833 -28.5782 -28.5782 -28.5288 -28.5288 -28.5258 -28.5258
   -27.6288 -27.6288 -27.5773 -27.5773 -27.5559 -27.5559 -27.5335 -27.5335
   -27.5167 -27.5167 -27.4882 -27.4882 -27.4545 -27.4545 -27.4341 -27.4341
     4.6914   4.6914   4.6924   4.6924   7.4835   7.4835   7.4896   7.4896
    10.1293  10.1293  10.1324  10.1324  11.1999  11.1999  11.2116  11.2116
    11.9552  11.9552  11.9572  11.9572  12.4186  12.4186  12.4311  12.4311
    13.3476  13.3476  13.3540  13.3540  13.5160  13.5160  13.5221  13.5221
    13.9870  13.9870  13.9926  13.9926  14.6540  14.6540  14.6845  14.6845
    15.0855  15.0855  15.0972  15.0972  15.6038  15.6038  15.6326  15.6326
    16.3326  16.3326  16.3436  16.3436  17.3590  17.3620

     occupation numbers 
     1.0000   1.0000   1.0000   1.0000   1.0000   1.0000   1.0000   1.0000
     1.0000   1.0000   1.0000   1.0000   1.0000   1.0000   1.0000   1.0000
     1.0000   1.0000   1.0000   1.0000   1.0000   1.0000   1.0000   1.0000
     1.0000   1.0000   1.0000   1.0000   1.0000   1.0000   1.0000   1.0000
     1.0000   1.0000   1.0000   1.0000   1.0000   1.0000   1.0000   1.0000
     1.0000   1.0000   1.0000   1.0000   1.0000   1.0000   1.0000   1.0000
     1.0000   1.0000   1.0000   1.0000   1.0000   1.0000   1.0000   1.0000
     1.0000   1.0000   1.0000   1.0000   1.0000   1.0000   1.0000   1.0000
     1.0000   1.0000   1.0000   1.0000   1.0328   1.0328   1.0243   1.0243
     0.1402   0.1402   0.1168   0.1168  -0.0019  -0.0019  -0.0012  -0.0012
    -0.0000  -0.0000  -0.0000  -0.0000  -0.0000  -0.0000

          k = 0.0000 0.3750 0.3750 (  9632 PWs)   bands (ev):

   -56.5013 -56.5013 -56.4961 -56.4961 -56.4805 -56.4805 -56.4785 -56.4785
   -28.5829 -28.5797 -28.5748 -28.5739 -28.5389 -28.5371 -28.5237 -28.5228
   -27.6226 -27.6221 -27.5863 -27.5821 -27.5532 -27.5476 -27.5361 -27.5338
   -27.5243 -27.5069 -27.5048 -27.4951 -27.4524 -27.4428 -27.4349 -27.4320
     4.5096   4.5101   5.5231   5.5246   6.5727   6.5748   7.4025   7.4055
    10.2463  10.2476  10.4516  10.4528  10.9115  10.9124  11.2395  11.2425
    11.7867  11.7896  12.0558  12.0597  12.2635  12.2659  12.4684  12.4760
    13.2338  13.2414  13.3898  13.3914  13.6731  13.6736  13.8200  13.8250
    14.0551  14.0673  14.1496  14.1606  14.5566  14.5767  14.7407  14.7525
    14.8531  14.8722  14.9557  14.9789  15.4781  15.4976  15.5180  15.5452
    16.3217  16.3322  16.5105  16.5160  17.0902  17.1126

     occupation numbers 
     1.0000   1.0000   1.0000   1.0000   1.0000   1.0000   1.0000   1.0000
     1.0000   1.0000   1.0000   1.0000   1.0000   1.0000   1.0000   1.0000
     1.0000   1.0000   1.0000   1.0000   1.0000   1.0000   1.0000   1.0000
     1.0000   1.0000   1.0000   1.0000   1.0000   1.0000   1.0000   1.0000
     1.0000   1.0000   1.0000   1.0000   1.0000   1.0000   1.0000   1.0000
     1.0000   1.0000   1.0000   1.0000   1.0000   1.0000   1.0000   1.0000
     1.0000   1.0000   1.0000   1.0000   1.0000   1.0000   1.0000   1.0000
     1.0000   1.0000   1.0000   1.0000   1.0000   1.0000   1.0000   1.0000
     1.0000   1.0000   1.0001   1.0001   1.0293   1.0322   0.9863   0.9737
     0.7925   0.7435   0.4963   0.4245  -0.0101  -0.0081  -0.0063  -0.0044
    -0.0000  -0.0000  -0.0000  -0.0000  -0.0000  -0.0000

          k = 0.0000 0.3750-0.5000 (  9642 PWs)   bands (ev):

   -56.4983 -56.4983 -56.4983 -56.4983 -56.4799 -56.4799 -56.4799 -56.4799
   -28.5785 -28.5785 -28.5750 -28.5750 -28.5332 -28.5332 -28.5307 -28.5307
   -27.6178 -27.6178 -27.5895 -27.5895 -27.5467 -27.5467 -27.5323 -27.5323
   -27.5208 -27.5208 -27.5037 -27.5037 -27.4443 -27.4443 -27.4332 -27.4332
     5.0896   5.0896   5.0911   5.0911   6.8114   6.8114   6.8155   6.8155
    10.4498  10.4498  10.4512  10.4512  11.2417  11.2417  11.2497  11.2497
    11.6406  11.6406  11.6485  11.6485  12.3096  12.3096  12.3146  12.3146
    13.3654  13.3654  13.3711  13.3711  13.7687  13.7687  13.7778  13.7778
    14.2718  14.2718  14.2746  14.2746  14.5441  14.5441  14.5549  14.5549
    14.8849  14.8849  14.9038  14.9038  15.4588  15.4588  15.4785  15.4785
    16.4920  16.4920  16.5021  16.5021  17.1147  17.1178

     occupation numbers 
     1.0000   1.0000   1.0000   1.0000   1.0000   1.0000   1.0000   1.0000
     1.0000   1.0000   1.0000   1.0000   1.0000   1.0000   1.0000   1.0000
     1.0000   1.0000   1.0000   1.0000   1.0000   1.0000   1.0000   1.0000
     1.0000   1.0000   1.0000   1.0000   1.0000   1.0000   1.0000   1.0000
     1.0000   1.0000   1.0000   1.0000   1.0000   1.0000   1.0000   1.0000
     1.0000   1.0000   1.0000   1.0000   1.0000   1.0000   1.0000   1.0000
     1.0000   1.0000   1.0000   1.0000   1.0000   1.0000   1.0000   1.0000
     1.0000   1.0000   1.0000   1.0000   1.0000   1.0000   1.0000   1.0000
     1.0011   1.0011   1.0012   1.0012   1.0273   1.0273   1.0290   1.0290
     0.7088   0.7088   0.6546   0.6546  -0.0125  -0.0125  -0.0101  -0.0101
    -0.0000  -0.0000  -0.0000  -0.0000  -0.0000  -0.0000

          k = 0.0000-0.5000-0.5000 (  9580 PWs)   bands (ev):

   -56.4977 -56.4977 -56.4977 -56.4977 -56.4805 -56.4805 -56.4805 -56.4805
   -28.5748 -28.5748 -28.5748 -28.5748 -28.5342 -28.5342 -28.5342 -28.5342
   -27.6041 -27.6041 -27.6041 -27.6041 -27.5367 -27.5367 -27.5367 -27.5367
   -27.5165 -27.5165 -27.5165 -27.5165 -27.4367 -27.4367 -27.4367 -27.4367
     5.3712   5.3712   5.3712   5.3712   6.4276   6.4276   6.4276   6.4276
    10.7056  10.7056  10.7056  10.7056  11.2426  11.2426  11.2426  11.2426
    11.3851  11.3851  11.3851  11.3851  12.2842  12.2842  12.2842  12.2842
    13.3620  13.3620  13.3620  13.3620  14.0069  14.0069  14.0069  14.0069
    14.2938  14.2938  14.2938  14.2938  14.5250  14.5250  14.5250  14.5250
    14.7574  14.7574  14.7574  14.7574  15.4173  15.4173  15.4173  15.4173
    16.5871  16.5871  16.5871  16.5871  16.9843  16.9843

     occupation numbers 
     1.0000   1.0000   1.0000   1.0000   1.0000   1.0000   1.0000   1.0000
     1.0000   1.0000   1.0000   1.0000   1.0000   1.0000   1.0000   1.0000
     1.0000   1.0000   1.0000   1.0000   1.0000   1.0000   1.0000   1.0000
     1.0000   1.0000   1.0000   1.0000   1.0000   1.0000   1.0000   1.0000
     1.0000   1.0000   1.0000   1.0000   1.0000   1.0000   1.0000   1.0000
     1.0000   1.0000   1.0000   1.0000   1.0000   1.0000   1.0000   1.0000
     1.0000   1.0000   1.0000   1.0000   1.0000   1.0000   1.0000   1.0000
     1.0000   1.0000   1.0000   1.0000   1.0000   1.0000   1.0000   1.0000
     1.0016   1.0016   1.0016   1.0016   1.0241   1.0241   1.0241   1.0241
     0.9681   0.9681   0.9681   0.9681  -0.0185  -0.0185  -0.0185  -0.0185
    -0.0000  -0.0000  -0.0000  -0.0000  -0.0000  -0.0000

          k = 0.1250 0.1250 0.1250 (  9633 PWs)   bands (ev):

   -56.5122 -56.5122 -56.4870 -56.4870 -56.4808 -56.4808 -56.4764 -56.4764
   -28.5896 -28.5838 -28.5742 -28.5736 -28.5614 -28.5572 -28.4920 -28.4918
   -27.6303 -27.6287 -27.5951 -27.5897 -27.5515 -27.5453 -27.5444 -27.5414
   -27.5202 -27.5094 -27.4709 -27.4623 -27.4552 -27.4550 -27.4422 -27.4404
     3.0212   3.0213   6.5634   6.5700   7.1836   7.1909   8.2853   8.2895
     9.9223   9.9271  10.6114  10.6116  10.6509  10.6510  11.2991  11.3046
    11.9439  11.9450  12.3497  12.3609  12.7359  12.7378  12.8157  12.8247
    13.0617  13.0653  13.1644  13.1649  13.2426  13.2484  13.3418  13.3505
    13.4556  13.4637  13.7038  13.7082  14.0636  14.0711  15.3206  15.3248
    15.3556  15.3569  15.5750  15.5761  15.6384  15.6528  15.8128  15.8247
    16.3132  16.3328  16.6475  16.6560  16.9606  16.9959

     occupation numbers 
     1.0000   1.0000   1.0000   1.0000   1.0000   1.0000   1.0000   1.0000
     1.0000   1.0000   1.0000   1.0000   1.0000   1.0000   1.0000   1.0000
     1.0000   1.0000   1.0000   1.0000   1.0000   1.0000   1.0000   1.0000
     1.0000   1.0000   1.0000   1.0000   1.0000   1.0000   1.0000   1.0000
     1.0000   1.0000   1.0000   1.0000   1.0000   1.0000   1.0000   1.0000
     1.0000   1.0000   1.0000   1.0000   1.0000   1.0000   1.0000   1.0000
     1.0000   1.0000   1.0000   1.0000   1.0000   1.0000   1.0000   1.0000
     1.0000   1.0000   1.0000   1.0000   1.0000   1.0000   1.0000   1.0000
     1.0000   1.0000   1.0000   1.0000   1.0000   1.0000  -0.0336  -0.0331
    -0.0288  -0.0286  -0.0029  -0.0029  -0.0011  -0.0009  -0.0000  -0.0000
    -0.0000  -0.0000  -0.0000  -0.0000  -0.0000  -0.0000

          k = 0.1250 0.1250 0.2500 (  9648 PWs)   bands (ev):

   -56.5095 -56.5095 -56.4903 -56.4903 -56.4805 -56.4805 -56.4762 -56.4762
   -28.5903 -28.5849 -28.5753 -28.5744 -28.5529 -28.5495 -28.4998 -28.4994
   -27.6340 -27.6290 -27.5877 -27.5804 -27.5557 -27.5487 -27.5441 -27.5415
   -27.5178 -27.4999 -27.4804 -27.4668 -27.4620 -27.4555 -27.4395 -27.4375
     3.3366   3.3367   6.0623   6.0655   7.2201   7.2245   8.4042   8.4083
     9.6713   9.6734  10.4338  10.4377  10.6894  10.6932  11.4161  11.4202
    11.8413  11.8462  12.2992  12.3026  12.7366  12.7419  13.0067  13.0117
    13.0823  13.0891  13.1144  13.1221  13.2811  13.2857  13.4386  13.4480
    13.6244  13.6329  13.8383  13.8470  14.1515  14.1576  15.0814  15.1066
    15.2832  15.2984  15.4456  15.4592  15.5892  15.6064  15.8104  15.8294
    16.2009  16.2166  16.5424  16.5562  17.1166  17.1523

     occupation numbers 
     1.0000   1.0000   1.0000   1.0000   1.0000   1.0000   1.0000   1.0000
     1.0000   1.0000   1.0000   1.0000   1.0000   1.0000   1.0000   1.0000
     1.0000   1.0000   1.0000   1.0000   1.0000   1.0000   1.0000   1.0000
     1.0000   1.0000   1.0000   1.0000   1.0000   1.0000   1.0000   1.0000
     1.0000   1.0000   1.0000   1.0000   1.0000   1.0000   1.0000   1.0000
     1.0000   1.0000   1.0000   1.0000   1.0000   1.0000   1.0000   1.0000
     1.0000   1.0000   1.0000   1.0000   1.0000   1.0000   1.0000   1.0000
     1.0000   1.0000   1.0000   1.0000   1.0000   1.0000   1.0000   1.0000
     1.0000   1.0000   1.0000   1.0000   1.0001   1.0001   0.1490   0.0993
    -0.0354  -0.0352  -0.0143  -0.0124  -0.0024  -0.0018  -0.0000  -0.0000
    -0.0000  -0.0000  -0.0000  -0.0000  -0.0000  -0.0000

          k = 0.1250 0.1250 0.3750 (  9660 PWs)   bands (ev):

   -56.5054 -56.5054 -56.4951 -56.4951 -56.4793 -56.4793 -56.4767 -56.4767
   -28.5889 -28.5843 -28.5793 -28.5771 -28.5400 -28.5377 -28.5114 -28.5106
   -27.6353 -27.6307 -27.5784 -27.5724 -27.5640 -27.5502 -27.5423 -27.5328
   -27.5217 -27.4997 -27.4824 -27.4699 -27.4663 -27.4591 -27.4379 -27.4362
     3.8443   3.8445   5.2901   5.2912   7.5132   7.5155   8.3089   8.3132
     9.5580   9.5590  10.2040  10.2073  10.9208  10.9251  11.4066  11.4126
    11.7850  11.7883  12.2117  12.2155  12.7420  12.7477  12.9492  12.9568
    13.0584  13.0667  13.2276  13.2348  13.3258  13.3293  13.4308  13.4372
    13.6944  13.6974  13.9772  13.9845  14.3492  14.3692  14.8298  14.8625
    15.2454  15.2617  15.3179  15.3312  15.6100  15.6299  15.7677  15.7910
    16.1534  16.1628  16.3768  16.3913  17.3093  17.3328

     occupation numbers 
     1.0000   1.0000   1.0000   1.0000   1.0000   1.0000   1.0000   1.0000
     1.0000   1.0000   1.0000   1.0000   1.0000   1.0000   1.0000   1.0000
     1.0000   1.0000   1.0000   1.0000   1.0000   1.0000   1.0000   1.0000
     1.0000   1.0000   1.0000   1.0000   1.0000   1.0000   1.0000   1.0000
     1.0000   1.0000   1.0000   1.0000   1.0000   1.0000   1.0000   1.0000
     1.0000   1.0000   1.0000   1.0000   1.0000   1.0000   1.0000   1.0000
     1.0000   1.0000   1.0000   1.0000   1.0000   1.0000   1.0000   1.0000
     1.0000   1.0000   1.0000   1.0000   1.0000   1.0000   1.0000   1.0000
     1.0000   1.0000   1.0000   1.0000   1.0036   1.0048   0.8464   0.7688
    -0.0309  -0.0339  -0.0338  -0.0323  -0.0017  -0.0013  -0.0001  -0.0001
    -0.0000  -0.0000  -0.0000  -0.0000  -0.0000  -0.0000

          k = 0.1250 0.1250-0.5000 (  9650 PWs)   bands (ev):

   -56.5004 -56.5004 -56.5004 -56.5004 -56.4778 -56.4778 -56.4778 -56.4778
   -28.5857 -28.5857 -28.5801 -28.5801 -28.5262 -28.5262 -28.5233 -28.5233
   -27.6336 -27.6336 -27.5715 -27.5715 -27.5608 -27.5608 -27.5342 -27.5342
   -27.5136 -27.5136 -27.4752 -27.4752 -27.4640 -27.4640 -27.4367 -27.4367
     4.5138   4.5138   4.5144   4.5144   7.9200   7.9200   7.9263   7.9263
     9.8402   9.8402   9.8416   9.8416  11.1808  11.1808  11.1905  11.1905
    12.0267  12.0267  12.0305  12.0305  12.7782  12.7782  12.7910  12.7910
    13.1760  13.1760  13.1841  13.1841  13.3658  13.3658  13.3687  13.3687
    13.8484  13.8484  13.8545  13.8545  14.6279  14.6279  14.6600  14.6600
    15.2466  15.2466  15.2658  15.2658  15.6844  15.6844  15.7105  15.7105
    16.2235  16.2235  16.2338  16.2338  17.6142  17.6157

     occupation numbers 
     1.0000   1.0000   1.0000   1.0000   1.0000   1.0000   1.0000   1.0000
     1.0000   1.0000   1.0000   1.0000   1.0000   1.0000   1.0000   1.0000
     1.0000   1.0000   1.0000   1.0000   1.0000   1.0000   1.0000   1.0000
     1.0000   1.0000   1.0000   1.0000   1.0000   1.0000   1.0000   1.0000
     1.0000   1.0000   1.0000   1.0000   1.0000   1.0000   1.0000   1.0000
     1.0000   1.0000   1.0000   1.0000   1.0000   1.0000   1.0000   1.0000
     1.0000   1.0000   1.0000   1.0000   1.0000   1.0000   1.0000   1.0000
     1.0000   1.0000   1.0000   1.0000   1.0000   1.0000   1.0000   1.0000
     1.0000   1.0000   1.0000   1.0000   1.0354   1.0354   1.0317   1.0317
    -0.0312  -0.0312  -0.0343  -0.0343  -0.0005  -0.0005  -0.0003  -0.0003
    -0.0000  -0.0000  -0.0000  -0.0000  -0.0000  -0.0000

          k = 0.1250 0.2500 0.2500 (  9649 PWs)   bands (ev):

   -56.5071 -56.5071 -56.4917 -56.4917 -56.4811 -56.4811 -56.4765 -56.4765
   -28.5892 -28.5843 -28.5734 -28.5728 -28.5499 -28.5467 -28.5068 -28.5062
   -27.6315 -27.6283 -27.5838 -27.5752 -27.5561 -27.5520 -27.5455 -27.5436
   -27.5144 -27.5017 -27.4831 -27.4705 -27.4691 -27.4531 -27.4370 -27.4346
     3.6444   3.6445   6.0131   6.0176   6.9142   6.9206   8.2970   8.3008
     9.4082   9.4110  10.4284  10.4301  10.6902  10.6927  11.4592  11.4641
    11.9038  11.9064  12.3022  12.3041  12.6210  12.6275  12.9565  12.9628
    13.1175  13.1225  13.1938  13.2044  13.2830  13.2885  13.5797  13.5865
    13.7500  13.7576  13.9709  13.9800  14.2864  14.2934  15.0250  15.0422
    15.1593  15.1799  15.2856  15.2982  15.4997  15.5117  15.7209  15.7414
    16.1687  16.1796  16.5170  16.5295  17.1463  17.1869

     occupation numbers 
     1.0000   1.0000   1.0000   1.0000   1.0000   1.0000   1.0000   1.0000
     1.0000   1.0000   1.0000   1.0000   1.0000   1.0000   1.0000   1.0000
     1.0000   1.0000   1.0000   1.0000   1.0000   1.0000   1.0000   1.0000
     1.0000   1.0000   1.0000   1.0000   1.0000   1.0000   1.0000   1.0000
     1.0000   1.0000   1.0000   1.0000   1.0000   1.0000   1.0000   1.0000
     1.0000   1.0000   1.0000   1.0000   1.0000   1.0000   1.0000   1.0000
     1.0000   1.0000   1.0000   1.0000   1.0000   1.0000   1.0000   1.0000
     1.0000   1.0000   1.0000   1.0000   1.0000   1.0000   1.0000   1.0000
     1.0000   1.0000   1.0000   1.0000   1.0014   1.0016   0.2888   0.2423
     0.0231   0.0031  -0.0354  -0.0352  -0.0079  -0.0068  -0.0003  -0.0002
    -0.0000  -0.0000  -0.0000  -0.0000  -0.0000  -0.0000

          k = 0.1250 0.2500 0.3750 (  9647 PWs)   bands (ev):

   -56.5035 -56.5035 -56.4949 -56.4949 -56.4805 -56.4805 -56.4776 -56.4776
   -28.5861 -28.5821 -28.5756 -28.5739 -28.5414 -28.5393 -28.5172 -28.5164
   -27.6292 -27.6263 -27.5801 -27.5721 -27.5631 -27.5530 -27.5410 -27.5360
   -27.5193 -27.5090 -27.4849 -27.4781 -27.4646 -27.4529 -27.4353 -27.4330
     4.1378   4.1382   5.4905   5.4926   7.0389   7.0428   7.9713   7.9745
     9.4101   9.4125  10.1455  10.1478  11.0641  11.0672  11.5738  11.5797
    11.8039  11.8114  12.0654  12.0671  12.5155  12.5255  12.7882  12.7959
    13.2090  13.2143  13.2906  13.3030  13.3530  13.3586  13.5996  13.6089
    13.8632  13.8747  14.0966  14.1081  14.5021  14.5302  14.8372  14.8640
    15.0710  15.0807  15.1474  15.1609  15.5088  15.5215  15.6336  15.6564
    16.2023  16.2092  16.4437  16.4545  17.1769  17.2035

     occupation numbers 
     1.0000   1.0000   1.0000   1.0000   1.0000   1.0000   1.0000   1.0000
     1.0000   1.0000   1.0000   1.0000   1.0000   1.0000   1.0000   1.0000
     1.0000   1.0000   1.0000   1.0000   1.0000   1.0000   1.0000   1.0000
     1.0000   1.0000   1.0000   1.0000   1.0000   1.0000   1.0000   1.0000
     1.0000   1.0000   1.0000   1.0000   1.0000   1.0000   1.0000   1.0000
     1.0000   1.0000   1.0000   1.0000   1.0000   1.0000   1.0000   1.0000
     1.0000   1.0000   1.0000   1.0000   1.0000   1.0000   1.0000   1.0000
     1.0000   1.0000   1.0000   1.0000   1.0000   1.0000   1.0000   1.0000
     1.0000   1.0000   1.0000   1.0000   1.0202   1.0249   0.8299   0.7650
     0.1720   0.1505   0.0371   0.0213  -0.0071  -0.0060  -0.0012  -0.0008
    -0.0000  -0.0000  -0.0000  -0.0000  -0.0000  -0.0000

          k = 0.1250 0.2500-0.5000 (  9646 PWs)   bands (ev):

   -56.4991 -56.4991 -56.4991 -56.4991 -56.4791 -56.4791 -56.4791 -56.4791
   -28.5820 -28.5820 -28.5769 -28.5769 -28.5306 -28.5306 -28.5272 -28.5272
   -27.6268 -27.6268 -27.5760 -27.5760 -27.5594 -27.5594 -27.5324 -27.5324
   -27.5199 -27.5199 -27.4834 -27.4834 -27.4573 -27.4573 -27.4336 -27.4336
     4.7803   4.7803   4.7814   4.7814   7.4685   7.4685   7.4748   7.4748
     9.7441   9.7441   9.7465   9.7465  11.5278  11.5278  11.5354  11.5354
    11.7439  11.7439  11.7477  11.7477  12.6001  12.6001  12.6116  12.6116
    13.2928  13.2928  13.2991  13.2991  13.4706  13.4706  13.4821  13.4821
    14.0239  14.0239  14.0320  14.0320  14.6931  14.6931  14.7256  14.7256
    15.0673  15.0673  15.0837  15.0837  15.5567  15.5567  15.5803  15.5803
    16.3197  16.3197  16.3286  16.3286  17.3792  17.3827

     occupation numbers 
     1.0000   1.0000   1.0000   1.0000   1.0000   1.0000   1.0000   1.0000
     1.0000   1.0000   1.0000   1.0000   1.0000   1.0000   1.0000   1.0000
     1.0000   1.0000   1.0000   1.0000   1.0000   1.0000   1.0000   1.0000
     1.0000   1.0000   1.0000   1.0000   1.0000   1.0000   1.0000   1.0000
     1.0000   1.0000   1.0000   1.0000   1.0000   1.0000   1.0000   1.0000
     1.0000   1.0000   1.0000   1.0000   1.0000   1.0000   1.0000   1.0000
     1.0000   1.0000   1.0000   1.0000   1.0000   1.0000   1.0000   1.0000
     1.0000   1.0000   1.0000   1.0000   1.0000   1.0000   1.0000   1.0000
     1.0000   1.0000   1.0000   1.0000   1.0205   1.0205   0.9999   0.9999
     0.1805   0.1805   0.1441   0.1441  -0.0038  -0.0038  -0.0027  -0.0027
    -0.0000  -0.0000  -0.0000  -0.0000  -0.0000  -0.0000

          k = 0.1250 0.3750 0.3750 (  9632 PWs)   bands (ev):

   -56.5006 -56.5006 -56.4956 -56.4956 -56.4811 -56.4811 -56.4790 -56.4790
   -28.5817 -28.5785 -28.5733 -28.5725 -28.5403 -28.5386 -28.5256 -28.5245
   -27.6214 -27.6197 -27.5852 -27.5807 -27.5584 -27.5507 -27.5393 -27.5318
   -27.5231 -27.5142 -27.4944 -27.4891 -27.4549 -27.4463 -27.4352 -27.4321
     4.6016   4.6021   5.5957   5.5979   6.6176   6.6211   7.4188   7.4220
     9.5842   9.5867  10.2020  10.2054  10.9492  10.9512  11.5404  11.5429
    11.7639  11.7684  12.1097  12.1115  12.3539  12.3584  12.6180  12.6246
    13.1923  13.1979  13.3136  13.3188  13.5609  13.5697  13.7647  13.7807
    14.0192  14.0327  14.2995  14.3085  14.5621  14.5808  14.7913  14.8059
    14.8770  14.8820  14.9917  15.0215  15.4335  15.4342  15.5040  15.5158
    16.3021  16.3115  16.4774  16.4838  17.0649  17.0861

     occupation numbers 
     1.0000   1.0000   1.0000   1.0000   1.0000   1.0000   1.0000   1.0000
     1.0000   1.0000   1.0000   1.0000   1.0000   1.0000   1.0000   1.0000
     1.0000   1.0000   1.0000   1.0000   1.0000   1.0000   1.0000   1.0000
     1.0000   1.0000   1.0000   1.0000   1.0000   1.0000   1.0000   1.0000
     1.0000   1.0000   1.0000   1.0000   1.0000   1.0000   1.0000   1.0000
     1.0000   1.0000   1.0000   1.0000   1.0000   1.0000   1.0000   1.0000
     1.0000   1.0000   1.0000   1.0000   1.0000   1.0000   1.0000   1.0000
     1.0000   1.0000   1.0000   1.0000   1.0000   1.0000   1.0000   1.0000
     1.0000   1.0000   1.0017   1.0020   1.0301   1.0327   0.9198   0.8943
     0.7305   0.7167   0.3856   0.2984  -0.0160  -0.0159  -0.0075  -0.0065
    -0.0000  -0.0000  -0.0000  -0.0000  -0.0000  -0.0000

          k = 0.1250 0.3750-0.5000 (  9656 PWs)   bands (ev):

   -56.4977 -56.4977 -56.4977 -56.4977 -56.4805 -56.4805 -56.4805 -56.4805
   -28.5771 -28.5771 -28.5737 -28.5737 -28.5350 -28.5350 -28.5323 -28.5323
   -27.6162 -27.6162 -27.5880 -27.5880 -27.5528 -27.5528 -27.5329 -27.5329
   -27.5208 -27.5208 -27.4963 -27.4963 -27.4472 -27.4472 -27.4338 -27.4338
     5.1728   5.1728   5.1743   5.1743   6.8549   6.8549   6.8593   6.8593
     9.9260   9.9260   9.9291   9.9291  11.2680  11.2680  11.2700  11.2700
    11.8655  11.8655  11.8730  11.8730  12.4202  12.4202  12.4279  12.4279
    13.2925  13.2925  13.2963  13.2963  13.6812  13.6812  13.6954  13.6954
    14.2866  14.2866  14.2932  14.2932  14.6335  14.6335  14.6460  14.6460
    14.9017  14.9017  14.9207  14.9207  15.4311  15.4311  15.4469  15.4469
    16.4459  16.4459  16.4536  16.4536  17.0943  17.0976

     occupation numbers 
     1.0000   1.0000   1.0000   1.0000   1.0000   1.0000   1.0000   1.0000
     1.0000   1.0000   1.0000   1.0000   1.0000   1.0000   1.0000   1.0000
     1.0000   1.0000   1.0000   1.0000   1.0000   1.0000   1.0000   1.0000
     1.0000   1.0000   1.0000   1.0000   1.0000   1.0000   1.0000   1.0000
     1.0000   1.0000   1.0000   1.0000   1.0000   1.0000   1.0000   1.0000
     1.0000   1.0000   1.0000   1.0000   1.0000   1.0000   1.0000   1.0000
     1.0000   1.0000   1.0000   1.0000   1.0000   1.0000   1.0000   1.0000
     1.0000   1.0000   1.0000   1.0000   1.0000   1.0000   1.0000   1.0000
     1.0014   1.0014   1.0016   1.0016   1.0351   1.0351   1.0340   1.0340
     0.6608   0.6608   0.6042   0.6042  -0.0164  -0.0164  -0.0141  -0.0141
    -0.0000  -0.0000  -0.0000  -0.0000  -0.0000  -0.0000

          k = 0.1250-0.5000-0.5000 (  9632 PWs)   bands (ev):

   -56.4970 -56.4970 -56.4970 -56.4970 -56.4812 -56.4812 -56.4812 -56.4812
   -28.5735 -28.5735 -28.5734 -28.5734 -28.5360 -28.5360 -28.5358 -28.5358
   -27.6053 -27.6053 -27.5999 -27.5999 -27.5484 -27.5484 -27.5353 -27.5353
   -27.5176 -27.5176 -27.5039 -27.5039 -27.4410 -27.4410 -27.4364 -27.4364
     5.4484   5.4484   5.4494   5.4494   6.4884   6.4884   6.4903   6.4903
    10.0927  10.0927  10.0963  10.0963  11.0432  11.0432  11.0448  11.0448
    11.9595  11.9595  11.9619  11.9619  12.3352  12.3352  12.3377  12.3377
    13.2747  13.2747  13.2755  13.2755  13.8463  13.8463  13.8597  13.8597
    14.3459  14.3459  14.3514  14.3514  14.6307  14.6307  14.6472  14.6472
    14.8008  14.8008  14.8028  14.8028  15.3854  15.3854  15.3857  15.3857
    16.5203  16.5203  16.5218  16.5218  16.9704  16.9719

     occupation numbers 
     1.0000   1.0000   1.0000   1.0000   1.0000   1.0000   1.0000   1.0000
     1.0000   1.0000   1.0000   1.0000   1.0000   1.0000   1.0000   1.0000
     1.0000   1.0000   1.0000   1.0000   1.0000   1.0000   1.0000   1.0000
     1.0000   1.0000   1.0000   1.0000   1.0000   1.0000   1.0000   1.0000
     1.0000   1.0000   1.0000   1.0000   1.0000   1.0000   1.0000   1.0000
     1.0000   1.0000   1.0000   1.0000   1.0000   1.0000   1.0000   1.0000
     1.0000   1.0000   1.0000   1.0000   1.0000   1.0000   1.0000   1.0000
     1.0000   1.0000   1.0000   1.0000   1.0000   1.0000   1.0000   1.0000
     1.0035   1.0035   1.0037   1.0037   1.0353   1.0353   1.0339   1.0339
     0.9036   0.9036   0.9000   0.9000  -0.0238  -0.0238  -0.0238  -0.0238
    -0.0000  -0.0000  -0.0000  -0.0000  -0.0000  -0.0000

          k = 0.2500 0.2500 0.2500 (  9651 PWs)   bands (ev):

   -56.5049 -56.5049 -56.4922 -56.4922 -56.4820 -56.4820 -56.4773 -56.4773
   -28.5870 -28.5825 -28.5708 -28.5705 -28.5493 -28.5462 -28.5134 -28.5125
   -27.6284 -27.6247 -27.5828 -27.5708 -27.5587 -27.5557 -27.5463 -27.5436
   -27.5127 -27.5088 -27.4776 -27.4753 -27.4644 -27.4595 -27.4356 -27.4330
     3.9442   3.9443   6.0540   6.0607   6.7947   6.8050   8.0512   8.0521
     9.0663   9.0690  10.0625  10.0661  11.1542  11.1585  11.1984  11.1988
    11.9201  11.9214  12.3556  12.3572  12.8099  12.8165  12.8818  12.8826
    13.1331  13.1409  13.1419  13.1535  13.1851  13.1900  13.7582  13.7669
    13.7743  13.7866  14.0638  14.0712  14.4484  14.4657  14.9859  15.0020
    15.1297  15.1328  15.2661  15.2667  15.3058  15.3115  15.6144  15.6335
    16.1821  16.1903  16.4814  16.4927  17.1253  17.1551

     occupation numbers 
     1.0000   1.0000   1.0000   1.0000   1.0000   1.0000   1.0000   1.0000
     1.0000   1.0000   1.0000   1.0000   1.0000   1.0000   1.0000   1.0000
     1.0000   1.0000   1.0000   1.0000   1.0000   1.0000   1.0000   1.0000
     1.0000   1.0000   1.0000   1.0000   1.0000   1.0000   1.0000   1.0000
     1.0000   1.0000   1.0000   1.0000   1.0000   1.0000   1.0000   1.0000
     1.0000   1.0000   1.0000   1.0000   1.0000   1.0000   1.0000   1.0000
     1.0000   1.0000   1.0000   1.0000   1.0000   1.0000   1.0000   1.0000
     1.0000   1.0000   1.0000   1.0000   1.0000   1.0000   1.0000   1.0000
     1.0000   1.0000   1.0000   1.0000   1.0122   1.0146   0.4030   0.3546
     0.0613   0.0567  -0.0344  -0.0344  -0.0348  -0.0344  -0.0016  -0.0012
    -0.0000  -0.0000  -0.0000  -0.0000  -0.0000  -0.0000

          k = 0.2500 0.2500 0.3750 (  9650 PWs)   bands (ev):

   -56.5015 -56.5015 -56.4942 -56.4942 -56.4819 -56.4819 -56.4787 -56.4787
   -28.5830 -28.5793 -28.5720 -28.5707 -28.5438 -28.5416 -28.5230 -28.5217
   -27.6242 -27.6210 -27.5793 -27.5709 -27.5657 -27.5608 -27.5428 -27.5332
   -27.5234 -27.5100 -27.4814 -27.4715 -27.4666 -27.4577 -27.4353 -27.4326
     4.4224   4.4228   5.6836   5.6866   6.9122   6.9181   7.7713   7.7741
     8.9807   8.9845   9.7546   9.7585  11.0333  11.0363  11.5967  11.5995
    11.6772  11.6805  12.2578  12.2625  12.7414  12.7511  12.8771  12.8843
    13.1098  13.1218  13.2126  13.2239  13.2935  13.2976  13.6220  13.6298
    13.9380  13.9480  14.2615  14.2728  14.6145  14.6470  14.8445  14.8638
    15.0205  15.0308  15.1812  15.2075  15.3268  15.3417  15.5260  15.5428
    16.2218  16.2285  16.4120  16.4202  17.1198  17.1349

     occupation numbers 
     1.0000   1.0000   1.0000   1.0000   1.0000   1.0000   1.0000   1.0000
     1.0000   1.0000   1.0000   1.0000   1.0000   1.0000   1.0000   1.0000
     1.0000   1.0000   1.0000   1.0000   1.0000   1.0000   1.0000   1.0000
     1.0000   1.0000   1.0000   1.0000   1.0000   1.0000   1.0000   1.0000
     1.0000   1.0000   1.0000   1.0000   1.0000   1.0000   1.0000   1.0000
     1.0000   1.0000   1.0000   1.0000   1.0000   1.0000   1.0000   1.0000
     1.0000   1.0000   1.0000   1.0000   1.0000   1.0000   1.0000   1.0000
     1.0000   1.0000   1.0000   1.0000   1.0000   1.0000   1.0000   1.0000
     1.0000   1.0000   1.0009   1.0011   1.0354   1.0339   0.8132   0.7654
     0.3014   0.2728   0.0019  -0.0162  -0.0329  -0.0309  -0.0057  -0.0046
    -0.0000  -0.0000  -0.0000  -0.0000  -0.0000  -0.0000

          k = 0.2500 0.2500-0.5000 (  9666 PWs)   bands (ev):

   -56.4977 -56.4977 -56.4977 -56.4977 -56.4805 -56.4805 -56.4805 -56.4805
   -28.5783 -28.5783 -28.5735 -28.5735 -28.5350 -28.5350 -28.5313 -28.5313
   -27.6208 -27.6208 -27.5749 -27.5749 -27.5659 -27.5659 -27.5348 -27.5348
   -27.5194 -27.5194 -27.4784 -27.4784 -27.4599 -27.4599 -27.4340 -27.4340
     5.0366   5.0366   5.0379   5.0379   7.3193   7.3193   7.3254   7.3254
     9.3111   9.3111   9.3153   9.3153  11.2767  11.2767  11.2791  11.2791
    11.9764  11.9764  11.9846  11.9846  12.8034  12.8034  12.8137  12.8137
    13.1737  13.1737  13.1864  13.1864  13.4388  13.4388  13.4460  13.4460
    14.1680  14.1680  14.1777  14.1777  14.7498  14.7498  14.7772  14.7772
    15.0557  15.0557  15.0746  15.0746  15.4324  15.4324  15.4486  15.4486
    16.3111  16.3111  16.3207  16.3207  17.2566  17.2577

     occupation numbers 
     1.0000   1.0000   1.0000   1.0000   1.0000   1.0000   1.0000   1.0000
     1.0000   1.0000   1.0000   1.0000   1.0000   1.0000   1.0000   1.0000
     1.0000   1.0000   1.0000   1.0000   1.0000   1.0000   1.0000   1.0000
     1.0000   1.0000   1.0000   1.0000   1.0000   1.0000   1.0000   1.0000
     1.0000   1.0000   1.0000   1.0000   1.0000   1.0000   1.0000   1.0000
     1.0000   1.0000   1.0000   1.0000   1.0000   1.0000   1.0000   1.0000
     1.0000   1.0000   1.0000   1.0000   1.0000   1.0000   1.0000   1.0000
     1.0000   1.0000   1.0000   1.0000   1.0000   1.0000   1.0000   1.0000
     1.0002   1.0002   1.0002   1.0002   0.9768   0.9768   0.9418   0.9418
     0.2082   0.2082   0.1638   0.1638  -0.0162  -0.0162  -0.0138  -0.0138
    -0.0000  -0.0000  -0.0000  -0.0000  -0.0000  -0.0000

          k = 0.2500 0.3750 0.3750 (  9650 PWs)   bands (ev):

   -56.4988 -56.4988 -56.4943 -56.4943 -56.4828 -56.4828 -56.4805 -56.4805
   -28.5782 -28.5752 -28.5695 -28.5687 -28.5440 -28.5422 -28.5308 -28.5294
   -27.6169 -27.6141 -27.5825 -27.5775 -27.5666 -27.5622 -27.5442 -27.5329
   -27.5232 -27.5071 -27.4858 -27.4762 -27.4598 -27.4545 -27.4371 -27.4341
     4.8696   4.8702   5.7965   5.8004   6.6822   6.6890   7.3945   7.3977
     8.9589   8.9634   9.5731   9.5785  10.6885  10.6923  11.2071  11.2089
    12.0018  12.0047  12.4204  12.4245  12.6320  12.6375  12.8200  12.8258
    13.1285  13.1368  13.1823  13.1908  13.3827  13.3922  13.5839  13.5958
    14.1425  14.1511  14.4966  14.5137  14.6842  14.7078  14.8378  14.8568
    14.9336  14.9376  15.1309  15.1633  15.2752  15.2869  15.4312  15.4447
    16.2773  16.2848  16.4044  16.4089  16.9738  16.9840

     occupation numbers 
     1.0000   1.0000   1.0000   1.0000   1.0000   1.0000   1.0000   1.0000
     1.0000   1.0000   1.0000   1.0000   1.0000   1.0000   1.0000   1.0000
     1.0000   1.0000   1.0000   1.0000   1.0000   1.0000   1.0000   1.0000
     1.0000   1.0000   1.0000   1.0000   1.0000   1.0000   1.0000   1.0000
     1.0000   1.0000   1.0000   1.0000   1.0000   1.0000   1.0000   1.0000
     1.0000   1.0000   1.0000   1.0000   1.0000   1.0000   1.0000   1.0000
     1.0000   1.0000   1.0000   1.0000   1.0000   1.0000   1.0000   1.0000
     1.0000   1.0000   1.0000   1.0000   1.0000   1.0000   1.0000   1.0000
     1.0001   1.0001   1.0193   1.0222   1.0244   1.0126   0.8286   0.7832
     0.5649   0.5523   0.0595   0.0188  -0.0351  -0.0355  -0.0163  -0.0144
    -0.0000  -0.0000  -0.0000  -0.0000  -0.0000  -0.0000

          k = 0.2500 0.3750-0.5000 (  9644 PWs)   bands (ev):

   -56.4960 -56.4960 -56.4960 -56.4960 -56.4822 -56.4822 -56.4822 -56.4822
   -28.5733 -28.5733 -28.5699 -28.5699 -28.5397 -28.5397 -28.5367 -28.5367
   -27.6113 -27.6113 -27.5845 -27.5845 -27.5638 -27.5638 -27.5403 -27.5403
   -27.5126 -27.5126 -27.4839 -27.4839 -27.4537 -27.4537 -27.4369 -27.4369
     5.4121   5.4121   5.4139   5.4139   6.9217   6.9217   6.9270   6.9270
     9.2727   9.2727   9.2778   9.2778  10.7883  10.7883  10.7909  10.7909
    12.2809  12.2809  12.2895  12.2895  12.6862  12.6862  12.6936  12.6936
    13.1722  13.1722  13.1800  13.1800  13.4762  13.4762  13.4892  13.4892
    14.4066  14.4066  14.4154  14.4154  14.7924  14.7924  14.8098  14.8098
    14.9887  14.9887  15.0106  15.0106  15.3487  15.3487  15.3592  15.3592
    16.3660  16.3660  16.3732  16.3732  16.9857  16.9894

     occupation numbers 
     1.0000   1.0000   1.0000   1.0000   1.0000   1.0000   1.0000   1.0000
     1.0000   1.0000   1.0000   1.0000   1.0000   1.0000   1.0000   1.0000
     1.0000   1.0000   1.0000   1.0000   1.0000   1.0000   1.0000   1.0000
     1.0000   1.0000   1.0000   1.0000   1.0000   1.0000   1.0000   1.0000
     1.0000   1.0000   1.0000   1.0000   1.0000   1.0000   1.0000   1.0000
     1.0000   1.0000   1.0000   1.0000   1.0000   1.0000   1.0000   1.0000
     1.0000   1.0000   1.0000   1.0000   1.0000   1.0000   1.0000   1.0000
     1.0000   1.0000   1.0000   1.0000   1.0000   1.0000   1.0000   1.0000
     1.0076   1.0076   1.0085   1.0085   0.9182   0.9182   0.8870   0.8870
     0.3947   0.3947   0.3295   0.3295  -0.0299  -0.0299  -0.0282  -0.0282
    -0.0000  -0.0000  -0.0000  -0.0000  -0.0000  -0.0000

          k = 0.2500-0.5000-0.5000 (  9644 PWs)   bands (ev):

   -56.4952 -56.4952 -56.4952 -56.4952 -56.4830 -56.4830 -56.4830 -56.4830
   -28.5696 -28.5696 -28.5693 -28.5693 -28.5409 -28.5409 -28.5405 -28.5405
   -27.6027 -27.6027 -27.5941 -27.5941 -27.5616 -27.5616 -27.5430 -27.5430
   -27.5080 -27.5080 -27.4890 -27.4890 -27.4482 -27.4482 -27.4403 -27.4403
     5.6731   5.6731   5.6753   5.6753   6.6209   6.6209   6.6250   6.6250
     9.3818   9.3818   9.3872   9.3872  10.5093  10.5093  10.5126  10.5126
    12.4776  12.4776  12.4808  12.4808  12.5638  12.5638  12.5659  12.5659
    13.1156  13.1156  13.1159  13.1159  13.5548  13.5548  13.5677  13.5677
    14.5096  14.5096  14.5184  14.5184  14.8358  14.8358  14.8504  14.8504
    14.9372  14.9372  14.9383  14.9383  15.3107  15.3107  15.3136  15.3136
    16.4148  16.4148  16.4156  16.4156  16.8626  16.8654

     occupation numbers 
     1.0000   1.0000   1.0000   1.0000   1.0000   1.0000   1.0000   1.0000
     1.0000   1.0000   1.0000   1.0000   1.0000   1.0000   1.0000   1.0000
     1.0000   1.0000   1.0000   1.0000   1.0000   1.0000   1.0000   1.0000
     1.0000   1.0000   1.0000   1.0000   1.0000   1.0000   1.0000   1.0000
     1.0000   1.0000   1.0000   1.0000   1.0000   1.0000   1.0000   1.0000
     1.0000   1.0000   1.0000   1.0000   1.0000   1.0000   1.0000   1.0000
     1.0000   1.0000   1.0000   1.0000   1.0000   1.0000   1.0000   1.0000
     1.0000   1.0000   1.0000   1.0000   1.0000   1.0000   1.0000   1.0000
     1.0215   1.0215   1.0229   1.0229   0.8332   0.8332   0.7989   0.7989
     0.5536   0.5536   0.5503   0.5503  -0.0345  -0.0345  -0.0342  -0.0342
    -0.0000  -0.0000  -0.0000  -0.0000  -0.0000  -0.0000

          k = 0.3750 0.3750 0.3750 (  9682 PWs)   bands (ev):

   -56.4962 -56.4962 -56.4931 -56.4931 -56.4845 -56.4845 -56.4826 -56.4826
   -28.5729 -28.5704 -28.5653 -28.5651 -28.5472 -28.5457 -28.5380 -28.5364
   -27.6097 -27.6069 -27.5816 -27.5754 -27.5746 -27.5724 -27.5475 -27.5414
   -27.5127 -27.5011 -27.4803 -27.4659 -27.4635 -27.4611 -27.4409 -27.4385
     5.2846   5.2854   5.9998   6.0061   6.6313   6.6412   7.1889   7.1924
     8.7560   8.7618   9.2626   9.2700  10.1956  10.2006  10.6465  10.6488
    12.3231  12.3262  12.5914  12.5958  12.7692  12.7725  12.8675  12.8693
    13.1094  13.1197  13.1693  13.1745  13.2711  13.2714  13.3954  13.4001
    14.3620  14.3648  14.7230  14.7435  14.7842  14.7924  14.9230  14.9578
    15.0670  15.0735  15.0978  15.1032  15.2537  15.2842  15.3084  15.3299
    16.2851  16.2927  16.3589  16.3606  16.8107  16.8150

     occupation numbers 
     1.0000   1.0000   1.0000   1.0000   1.0000   1.0000   1.0000   1.0000
     1.0000   1.0000   1.0000   1.0000   1.0000   1.0000   1.0000   1.0000
     1.0000   1.0000   1.0000   1.0000   1.0000   1.0000   1.0000   1.0000
     1.0000   1.0000   1.0000   1.0000   1.0000   1.0000   1.0000   1.0000
[...]
   -28.5897 -28.5849 -28.5811 -28.5786 -28.5392 -28.5368 -28.5094 -28.5085
   -27.6375 -27.6322 -27.5778 -27.5749 -27.5642 -27.5473 -27.5420 -27.5301
   -27.5237 -27.4942 -27.4854 -27.4718 -27.4628 -27.4568 -27.4411 -27.4381
     3.7444   3.7445   5.2133   5.2139   7.6681   7.6705   8.4236   8.4305
     9.7494   9.7523  10.2953  10.3013  10.9489  10.9561  10.9938  10.9970
    11.9114  11.9151  12.2299  12.2348  12.8380  12.8461  13.0351  13.0380
    13.0607  13.0629  13.1348  13.1400  13.2983  13.3028  13.3906  13.3963
    13.5798  13.5799  13.9424  13.9492  14.2815  14.2979  14.8142  14.8483
    15.3087  15.3246  15.3845  15.4032  15.6835  15.7115  15.8024  15.8271
    16.1476  16.1608  16.3426  16.3574  17.3381  17.3573

     occupation numbers 
     1.0000   1.0000   1.0000   1.0000   1.0000   1.0000   1.0000   1.0000
     1.0000   1.0000   1.0000   1.0000   1.0000   1.0000   1.0000   1.0000
     1.0000   1.0000   1.0000   1.0000   1.0000   1.0000   1.0000   1.0000
     1.0000   1.0000   1.0000   1.0000   1.0000   1.0000   1.0000   1.0000
     1.0000   1.0000   1.0000   1.0000   1.0000   1.0000   1.0000   1.0000
     1.0000   1.0000   1.0000   1.0000   1.0000   1.0000   1.0000   1.0000
     1.0000   1.0000   1.0000   1.0000   1.0000   1.0000   1.0000   1.0000
     1.0000   1.0000   1.0000   1.0000   1.0000   1.0000   1.0000   1.0000
     1.0000   1.0000   1.0000   1.0000   1.0013   1.0017   0.8785   0.8042
    -0.0346  -0.0331  -0.0240  -0.0208  -0.0005  -0.0003  -0.0000  -0.0000
    -0.0000  -0.0000  -0.0000  -0.0000  -0.0000  -0.0000

          k = 0.0000-0.5000 0.1250 (  9664 PWs)   bands (ev):

   -56.5009 -56.5009 -56.5009 -56.5009 -56.4774 -56.4774 -56.4774 -56.4774
   -28.5870 -28.5870 -28.5813 -28.5813 -28.5244 -28.5244 -28.5220 -28.5220
   -27.6359 -27.6359 -27.5720 -27.5720 -27.5592 -27.5592 -27.5349 -27.5349
   -27.5093 -27.5093 -27.4778 -27.4778 -27.4611 -27.4611 -27.4393 -27.4393
     4.4215   4.4215   4.4219   4.4219   8.0595   8.0595   8.0648   8.0648
    10.0562  10.0562  10.0611  10.0611  10.8858  10.8858  10.8945  10.8945
    12.1686  12.1686  12.1736  12.1736  12.8615  12.8615  12.8688  12.8688
    13.1014  13.1014  13.1069  13.1069  13.3090  13.3090  13.3163  13.3163
    13.7929  13.7929  13.7975  13.7975  14.5902  14.5902  14.6202  14.6202
    15.3201  15.3201  15.3409  15.3409  15.7323  15.7323  15.7614  15.7614
    16.1912  16.1912  16.2034  16.2034  17.6031  17.6039

     occupation numbers 
     1.0000   1.0000   1.0000   1.0000   1.0000   1.0000   1.0000   1.0000
     1.0000   1.0000   1.0000   1.0000   1.0000   1.0000   1.0000   1.0000
     1.0000   1.0000   1.0000   1.0000   1.0000   1.0000   1.0000   1.0000
     1.0000   1.0000   1.0000   1.0000   1.0000   1.0000   1.0000   1.0000
     1.0000   1.0000   1.0000   1.0000   1.0000   1.0000   1.0000   1.0000
     1.0000   1.0000   1.0000   1.0000   1.0000   1.0000   1.0000   1.0000
     1.0000   1.0000   1.0000   1.0000   1.0000   1.0000   1.0000   1.0000
     1.0000   1.0000   1.0000   1.0000   1.0000   1.0000   1.0000   1.0000
     1.0000   1.0000   1.0000   1.0000   1.0338   1.0338   1.0355   1.0355
    -0.0336  -0.0336  -0.0310  -0.0310  -0.0002  -0.0002  -0.0001  -0.0001
    -0.0000  -0.0000  -0.0000  -0.0000  -0.0000  -0.0000

          k = 0.0000 0.3750 0.2500 (  9639 PWs)   bands (ev):

   -56.5041 -56.5041 -56.4952 -56.4952 -56.4799 -56.4799 -56.4772 -56.4772
   -28.5872 -28.5831 -28.5770 -28.5755 -28.5405 -28.5380 -28.5154 -28.5144
   -27.6311 -27.6283 -27.5790 -27.5749 -27.5602 -27.5518 -27.5415 -27.5330
   -27.5221 -27.5024 -27.4905 -27.4827 -27.4619 -27.4491 -27.4363 -27.4337
     4.0405   4.0408   5.4165   5.4173   7.0480   7.0490   8.0210   8.0256
     9.9594   9.9627  10.2695  10.2748  10.9113  10.9151  11.0723  11.0744
    11.9252  11.9297  12.2413  12.2449  12.5545  12.5586  12.7985  12.8036
    13.1005  13.1070  13.3332  13.3381  13.5322  13.5373  13.6281  13.6345
    13.7281  13.7392  13.9984  14.0096  14.4333  14.4575  14.8073  14.8385
    15.1052  15.1237  15.1492  15.1671  15.5611  15.5879  15.6542  15.6824
    16.1877  16.1973  16.4137  16.4248  17.2846  17.3156

     occupation numbers 
     1.0000   1.0000   1.0000   1.0000   1.0000   1.0000   1.0000   1.0000
     1.0000   1.0000   1.0000   1.0000   1.0000   1.0000   1.0000   1.0000
     1.0000   1.0000   1.0000   1.0000   1.0000   1.0000   1.0000   1.0000
     1.0000   1.0000   1.0000   1.0000   1.0000   1.0000   1.0000   1.0000
     1.0000   1.0000   1.0000   1.0000   1.0000   1.0000   1.0000   1.0000
     1.0000   1.0000   1.0000   1.0000   1.0000   1.0000   1.0000   1.0000
     1.0000   1.0000   1.0000   1.0000   1.0000   1.0000   1.0000   1.0000
     1.0000   1.0000   1.0000   1.0000   1.0000   1.0000   1.0000   1.0000
     1.0000   1.0000   1.0000   1.0000   1.0104   1.0134   0.8917   0.8270
     0.1019   0.0704   0.0348   0.0149  -0.0036  -0.0024  -0.0008  -0.0005
    -0.0000  -0.0000  -0.0000  -0.0000  -0.0000  -0.0000

          k = 0.0000-0.5000 0.2500 (  9686 PWs)   bands (ev):

   -56.4997 -56.4997 -56.4997 -56.4997 -56.4785 -56.4785 -56.4785 -56.4785
   -28.5833 -28.5833 -28.5782 -28.5782 -28.5290 -28.5290 -28.5256 -28.5256
   -27.6291 -27.6291 -27.5762 -27.5762 -27.5568 -27.5568 -27.5334 -27.5334
   -27.5171 -27.5171 -27.4880 -27.4880 -27.4543 -27.4543 -27.4343 -27.4343
     4.6910   4.6910   4.6917   4.6917   7.4869   7.4869   7.4904   7.4904
    10.2657  10.2657  10.2705  10.2705  10.8446  10.8446  10.8490  10.8490
    12.0952  12.0952  12.1009  12.1009  12.6608  12.6608  12.6713  12.6713
    13.1883  13.1883  13.1954  13.1954  13.6626  13.6626  13.6724  13.6724
    13.8549  13.8549  13.8621  13.8621  14.6376  14.6376  14.6709  14.6709
    15.0909  15.0909  15.1175  15.1175  15.5700  15.5700  15.5970  15.5970
    16.2848  16.2848  16.2960  16.2960  17.4771  17.4883

     occupation numbers 
     1.0000   1.0000   1.0000   1.0000   1.0000   1.0000   1.0000   1.0000
     1.0000   1.0000   1.0000   1.0000   1.0000   1.0000   1.0000   1.0000
     1.0000   1.0000   1.0000   1.0000   1.0000   1.0000   1.0000   1.0000
     1.0000   1.0000   1.0000   1.0000   1.0000   1.0000   1.0000   1.0000
     1.0000   1.0000   1.0000   1.0000   1.0000   1.0000   1.0000   1.0000
     1.0000   1.0000   1.0000   1.0000   1.0000   1.0000   1.0000   1.0000
     1.0000   1.0000   1.0000   1.0000   1.0000   1.0000   1.0000   1.0000
     1.0000   1.0000   1.0000   1.0000   1.0000   1.0000   1.0000   1.0000
     1.0000   1.0000   1.0000   1.0000   1.0349   1.0349   1.0290   1.0290
     0.1292   0.1292   0.0804   0.0804  -0.0031  -0.0031  -0.0021  -0.0021
    -0.0000  -0.0000  -0.0000  -0.0000  -0.0000  -0.0000

          k = 0.0000-0.5000 0.3750 (  9642 PWs)   bands (ev):

   -56.4983 -56.4983 -56.4983 -56.4983 -56.4799 -56.4799 -56.4799 -56.4799
   -28.5785 -28.5785 -28.5750 -28.5750 -28.5334 -28.5334 -28.5306 -28.5306
   -27.6181 -27.6181 -27.5889 -27.5889 -27.5472 -27.5472 -27.5314 -27.5314
   -27.5220 -27.5220 -27.5033 -27.5033 -27.4442 -27.4442 -27.4333 -27.4333
     5.0893   5.0893   5.0902   5.0902   6.8138   6.8138   6.8159   6.8159
    10.6240  10.6240  10.6263  10.6263  10.8527  10.8527  10.8562  10.8562
    11.8731  11.8731  11.8764  11.8764  12.3350  12.3350  12.3428  12.3428
    13.3021  13.3021  13.3076  13.3076  13.9492  13.9492  13.9557  13.9557
    14.0787  14.0787  14.0867  14.0867  14.6214  14.6214  14.6534  14.6534
    14.8221  14.8221  14.8623  14.8623  15.4469  15.4469  15.4660  15.4660
    16.4439  16.4439  16.4561  16.4561  17.1889  17.1893

     occupation numbers 
     1.0000   1.0000   1.0000   1.0000   1.0000   1.0000   1.0000   1.0000
     1.0000   1.0000   1.0000   1.0000   1.0000   1.0000   1.0000   1.0000
     1.0000   1.0000   1.0000   1.0000   1.0000   1.0000   1.0000   1.0000
     1.0000   1.0000   1.0000   1.0000   1.0000   1.0000   1.0000   1.0000
     1.0000   1.0000   1.0000   1.0000   1.0000   1.0000   1.0000   1.0000
     1.0000   1.0000   1.0000   1.0000   1.0000   1.0000   1.0000   1.0000
     1.0000   1.0000   1.0000   1.0000   1.0000   1.0000   1.0000   1.0000
     1.0000   1.0000   1.0000   1.0000   1.0000   1.0000   1.0000   1.0000
     1.0000   1.0000   1.0000   1.0000   1.0355   1.0355   1.0329   1.0329
     0.8627   0.8627   0.7692   0.7692  -0.0141  -0.0141  -0.0116  -0.0116
    -0.0000  -0.0000  -0.0000  -0.0000  -0.0000  -0.0000

          k =-0.1250 0.3750 0.2500 (  9647 PWs)   bands (ev):

   -56.5035 -56.5035 -56.4949 -56.4949 -56.4805 -56.4805 -56.4776 -56.4776
   -28.5861 -28.5822 -28.5755 -28.5740 -28.5416 -28.5391 -28.5174 -28.5163
   -27.6293 -27.6264 -27.5790 -27.5732 -27.5618 -27.5541 -27.5411 -27.5361
   -27.5188 -27.5096 -27.4845 -27.4782 -27.4647 -27.4526 -27.4354 -27.4331
     4.1377   4.1380   5.4902   5.4916   7.0410   7.0438   7.9713   7.9756
     9.4172   9.4198  10.2015  10.2028  10.9145  10.9161  11.5448  11.5484
    11.7465  11.7486  12.1891  12.1928  12.6584  12.6629  12.8605  12.8660
    13.0835  13.0881  13.2585  13.2703  13.4134  13.4166  13.6456  13.6570
    13.7955  13.8044  14.0773  14.0862  14.4875  14.5145  14.8190  14.8469
    15.0851  15.1043  15.1642  15.1818  15.4847  15.4968  15.6242  15.6426
    16.1954  16.2037  16.4163  16.4278  17.2539  17.2833

     occupation numbers 
     1.0000   1.0000   1.0000   1.0000   1.0000   1.0000   1.0000   1.0000
     1.0000   1.0000   1.0000   1.0000   1.0000   1.0000   1.0000   1.0000
     1.0000   1.0000   1.0000   1.0000   1.0000   1.0000   1.0000   1.0000
     1.0000   1.0000   1.0000   1.0000   1.0000   1.0000   1.0000   1.0000
     1.0000   1.0000   1.0000   1.0000   1.0000   1.0000   1.0000   1.0000
     1.0000   1.0000   1.0000   1.0000   1.0000   1.0000   1.0000   1.0000
     1.0000   1.0000   1.0000   1.0000   1.0000   1.0000   1.0000   1.0000
     1.0000   1.0000   1.0000   1.0000   1.0000   1.0000   1.0000   1.0000
     1.0000   1.0000   1.0000   1.0000   1.0179   1.0223   0.8690   0.8074
     0.1411   0.1035   0.0179   0.0015  -0.0094  -0.0082  -0.0014  -0.0010
    -0.0000  -0.0000  -0.0000  -0.0000  -0.0000  -0.0000

          k =-0.1250-0.5000 0.2500 (  9646 PWs)   bands (ev):

   -56.4991 -56.4991 -56.4991 -56.4991 -56.4791 -56.4791 -56.4791 -56.4791
   -28.5820 -28.5820 -28.5769 -28.5769 -28.5307 -28.5307 -28.5271 -28.5271
   -27.6269 -27.6269 -27.5750 -27.5750 -27.5602 -27.5602 -27.5322 -27.5322
   -27.5203 -27.5203 -27.4832 -27.4832 -27.4572 -27.4572 -27.4337 -27.4337
     4.7800   4.7800   4.7809   4.7809   7.4708   7.4708   7.4753   7.4753
     9.7731   9.7731   9.7741   9.7741  11.2719  11.2719  11.2769  11.2769
    11.9369  11.9369  11.9420  11.9420  12.7540  12.7540  12.7641  12.7641
    13.1584  13.1584  13.1671  13.1671  13.5595  13.5595  13.5678  13.5678
    13.9629  13.9629  13.9723  13.9723  14.6789  14.6789  14.7124  14.7124
    15.0790  15.0790  15.1040  15.1040  15.5318  15.5318  15.5537  15.5537
    16.2888  16.2888  16.2994  16.2994  17.4690  17.4781

     occupation numbers 
     1.0000   1.0000   1.0000   1.0000   1.0000   1.0000   1.0000   1.0000
     1.0000   1.0000   1.0000   1.0000   1.0000   1.0000   1.0000   1.0000
     1.0000   1.0000   1.0000   1.0000   1.0000   1.0000   1.0000   1.0000
     1.0000   1.0000   1.0000   1.0000   1.0000   1.0000   1.0000   1.0000
     1.0000   1.0000   1.0000   1.0000   1.0000   1.0000   1.0000   1.0000
     1.0000   1.0000   1.0000   1.0000   1.0000   1.0000   1.0000   1.0000
     1.0000   1.0000   1.0000   1.0000   1.0000   1.0000   1.0000   1.0000
     1.0000   1.0000   1.0000   1.0000   1.0000   1.0000   1.0000   1.0000
     1.0000   1.0000   1.0000   1.0000   1.0264   1.0264   1.0096   1.0096
     0.1541   0.1541   0.1039   0.1039  -0.0053  -0.0053  -0.0039  -0.0039
    -0.0000  -0.0000  -0.0000  -0.0000  -0.0000  -0.0000

          k =-0.1250-0.5000 0.3750 (  9656 PWs)   bands (ev):

   -56.4977 -56.4977 -56.4977 -56.4977 -56.4805 -56.4805 -56.4805 -56.4805
   -28.5771 -28.5771 -28.5736 -28.5736 -28.5351 -28.5351 -28.5322 -28.5322
   -27.6164 -27.6164 -27.5876 -27.5876 -27.5531 -27.5531 -27.5324 -27.5324
   -27.5214 -27.5214 -27.4961 -27.4961 -27.4471 -27.4471 -27.4339 -27.4339
     5.1725   5.1725   5.1736   5.1736   6.8568   6.8568   6.8596   6.8596
     9.9473   9.9473   9.9499   9.9499  11.1547  11.1547  11.1580  11.1580
    11.9548  11.9548  11.9603  11.9603  12.4570  12.4570  12.4663  12.4663
    13.2324  13.2324  13.2383  13.2383  13.7796  13.7796  13.7927  13.7927
    14.1915  14.1915  14.2000  14.2000  14.6773  14.6773  14.7041  14.7041
    14.8669  14.8669  14.9057  14.9057  15.4176  15.4176  15.4339  15.4339
    16.4125  16.4125  16.4238  16.4238  17.1495  17.1501

     occupation numbers 
     1.0000   1.0000   1.0000   1.0000   1.0000   1.0000   1.0000   1.0000
     1.0000   1.0000   1.0000   1.0000   1.0000   1.0000   1.0000   1.0000
     1.0000   1.0000   1.0000   1.0000   1.0000   1.0000   1.0000   1.0000
     1.0000   1.0000   1.0000   1.0000   1.0000   1.0000   1.0000   1.0000
     1.0000   1.0000   1.0000   1.0000   1.0000   1.0000   1.0000   1.0000
     1.0000   1.0000   1.0000   1.0000   1.0000   1.0000   1.0000   1.0000
     1.0000   1.0000   1.0000   1.0000   1.0000   1.0000   1.0000   1.0000
     1.0000   1.0000   1.0000   1.0000   1.0000   1.0000   1.0000   1.0000
     1.0003   1.0003   1.0003   1.0003   1.0270   1.0270   1.0147   1.0147
     0.7574   0.7574   0.6492   0.6492  -0.0185  -0.0185  -0.0159  -0.0159
    -0.0000  -0.0000  -0.0000  -0.0000  -0.0000  -0.0000

          k =-0.2500-0.5000 0.3750 (  9644 PWs)   bands (ev):

   -56.4960 -56.4960 -56.4960 -56.4960 -56.4822 -56.4822 -56.4822 -56.4822
   -28.5733 -28.5733 -28.5699 -28.5699 -28.5397 -28.5397 -28.5367 -28.5367
   -27.6114 -27.6114 -27.5843 -27.5843 -27.5640 -27.5640 -27.5403 -27.5403
   -27.5127 -27.5127 -27.4839 -27.4839 -27.4537 -27.4537 -27.4369 -27.4369
     5.4120   5.4120   5.4136   5.4136   6.9225   6.9225   6.9272   6.9272
     9.2751   9.2751   9.2799   9.2799  10.7785  10.7785  10.7811  10.7811
    12.2799  12.2799  12.2882  12.2882  12.7222  12.7222  12.7322  12.7322
    13.1098  13.1098  13.1188  13.1188  13.5277  13.5277  13.5394  13.5394
    14.3813  14.3813  14.3885  14.3885  14.7982  14.7982  14.8166  14.8166
    14.9949  14.9949  15.0265  15.0265  15.3345  15.3345  15.3486  15.3486
    16.3551  16.3551  16.3650  16.3650  17.0033  17.0039

     occupation numbers 
     1.0000   1.0000   1.0000   1.0000   1.0000   1.0000   1.0000   1.0000
     1.0000   1.0000   1.0000   1.0000   1.0000   1.0000   1.0000   1.0000
     1.0000   1.0000   1.0000   1.0000   1.0000   1.0000   1.0000   1.0000
     1.0000   1.0000   1.0000   1.0000   1.0000   1.0000   1.0000   1.0000
     1.0000   1.0000   1.0000   1.0000   1.0000   1.0000   1.0000   1.0000
     1.0000   1.0000   1.0000   1.0000   1.0000   1.0000   1.0000   1.0000
     1.0000   1.0000   1.0000   1.0000   1.0000   1.0000   1.0000   1.0000
     1.0000   1.0000   1.0000   1.0000   1.0000   1.0000   1.0000   1.0000
     1.0056   1.0056   1.0061   1.0061   0.9081   0.9081   0.8738   0.8738
     0.3758   0.3758   0.2845   0.2845  -0.0319  -0.0319  -0.0299  -0.0299
    -0.0000  -0.0000  -0.0000  -0.0000  -0.0000  -0.0000

     the Fermi energy is    14.9545 ev

!    total energy              =   -1180.35069162 Ry

     total all-electron energy =    -10727.811528 Ry
     estimated scf accuracy    <       0.00000039 Ry
     smearing contrib. (-TS)   =      -0.00080974 Ry
     internal energy E=F+TS    =   -1180.34988188 Ry

     The total energy is F=E-TS. E is the sum of the following terms:
     one-electron contribution =    -336.79995457 Ry
     hartree contribution      =     207.04508612 Ry
     xc contribution           =    -114.36230605 Ry
     ewald contribution        =    -496.51183961 Ry
     one-center paw contrib.   =    -439.72086778 Ry
      -> PAW hartree energy AE =     126.71702379 Ry
      -> PAW hartree energy PS =    -125.74966830 Ry
      -> PAW xc energy AE      =     -96.23998325 Ry
      -> PAW xc energy PS      =      20.93260787 Ry
      -> total E_H with PAW    =     208.01244161 Ry
      -> total E_XC with PAW   =    -189.66968142 Ry

     convergence has been achieved in   8 iterations

     Writing output data file /zfs_data/vergnior/martin/Scratch/OAL/CrSi/convergence/cutoff/8x8x8/90/tmp/CrSi.save/
 
     init_run     :      7.38s CPU      7.66s WALL (       1 calls)
     electrons    :    222.54s CPU    227.31s WALL (       1 calls)

     Called by init_run:
     wfcinit      :      6.18s CPU      6.33s WALL (       1 calls)
     wfcinit:atom :      0.06s CPU      0.06s WALL (      45 calls)
     wfcinit:wfcr :      5.88s CPU      6.02s WALL (      45 calls)
     potinit      :      0.19s CPU      0.23s WALL (       1 calls)
     hinit0       :      0.18s CPU      0.18s WALL (       1 calls)

     Called by electrons:
     c_bands      :    184.24s CPU    187.20s WALL (       9 calls)
     sum_band     :     33.05s CPU     34.25s WALL (       9 calls)
     v_of_rho     :      0.20s CPU      0.21s WALL (       9 calls)
     v_h          :      0.01s CPU      0.02s WALL (       9 calls)
     v_xc         :      0.19s CPU      0.20s WALL (       9 calls)
     newd         :      4.33s CPU      4.93s WALL (       9 calls)
     PAW_pot      :      1.12s CPU      1.14s WALL (       9 calls)
     mix_rho      :      0.12s CPU      0.13s WALL (       9 calls)

     Called by c_bands:
     init_us_2    :      0.96s CPU      0.98s WALL (     855 calls)
     cegterg      :    168.38s CPU    171.23s WALL (     405 calls)

     Called by sum_band:
     sum_band:wei :      0.06s CPU      0.06s WALL (       9 calls)
     sum_band:loo :     29.81s CPU     30.25s WALL (       9 calls)
     sum_band:buf :      0.29s CPU      0.31s WALL (     405 calls)
     sum_band:ini :      0.46s CPU      0.47s WALL (     405 calls)
     sum_band:cal :      2.13s CPU      2.14s WALL (     405 calls)
     sum_band:bec :      5.16s CPU      5.18s WALL (     405 calls)
     addusdens    :      3.01s CPU      3.76s WALL (       9 calls)
     addusd:skk   :      0.01s CPU      0.01s WALL (      18 calls)
     addusd:dgemm :      1.17s CPU      1.90s WALL (      18 calls)
     addusd:qvan2 :      1.79s CPU      1.80s WALL (      18 calls)

     Called by *egterg:
     cdiaghg      :     16.27s CPU     16.33s WALL (    2295 calls)
     cegterg:over :      9.06s CPU      9.10s WALL (    1935 calls)
     cegterg:upda :      4.59s CPU      4.61s WALL (    1935 calls)
     cegterg:last :      9.40s CPU      9.44s WALL (    1251 calls)
     h_psi        :    113.62s CPU    116.37s WALL (    2385 calls)
     s_psi        :     16.91s CPU     16.97s WALL (    2385 calls)
     g_psi        :      0.27s CPU      0.27s WALL (    1935 calls)

     Called by h_psi:
     h_psi:calbec :      8.00s CPU      8.06s WALL (    2385 calls)
     vloc_psi     :     89.33s CPU     91.92s WALL (    2385 calls)
     add_vuspsi   :     15.71s CPU     15.79s WALL (    2385 calls)

     General routines
     calbec       :     10.10s CPU     10.18s WALL (    2790 calls)
     fft          :      0.18s CPU      0.19s WALL (     188 calls)
     ffts         :      0.03s CPU      0.06s WALL (      72 calls)
     fftw         :     80.92s CPU     83.18s WALL (  576760 calls)
     interpolate  :      0.06s CPU      0.09s WALL (      36 calls)
 
     Parallel routines
     fft_scatt_xy :      8.12s CPU      8.35s WALL (  577020 calls)
     fft_scatt_yz :     30.07s CPU     30.87s WALL (  577020 calls)

     PAW routines
     PAW_pot      :      1.12s CPU      1.14s WALL (       9 calls)
     PAW_symme    :      0.02s CPU      0.02s WALL (      18 calls)
 
     PWSCF        :   3m53.26s CPU   4m 0.08s WALL

 
   This run was terminated on:  19:10:33  30Jul2021            

=------------------------------------------------------------------------------=
   JOB DONE.
=------------------------------------------------------------------------------=
