MPI startup(): Warning: I_MPI_PMI_LIBRARY will be ignored since the hydra process manager was found
MPI startup(): Warning: I_MPI_PMI_LIBRARY will be ignored since the hydra process manager was found
MPI startup(): Warning: I_MPI_PMI_LIBRARY will be ignored since the hydra process manager was found
MPI startup(): Warning: I_MPI_PMI_LIBRARY will be ignored since the hydra process manager was found
MPI startup(): Warning: I_MPI_PMI_LIBRARY will be ignored since the hydra process manager was found
MPI startup(): Warning: I_MPI_PMI_LIBRARY will be ignored since the hydra process manager was found
MPI startup(): Warning: I_MPI_PMI_LIBRARY will be ignored since the hydra process manager was found
MPI startup(): Warning: I_MPI_PMI_LIBRARY will be ignored since the hydra process manager was found
MPI startup(): Warning: I_MPI_PMI_LIBRARY will be ignored since the hydra process manager was found
MPI startup(): Warning: I_MPI_PMI_LIBRARY will be ignored since the hydra process manager was found
MPI startup(): Warning: I_MPI_PMI_LIBRARY will be ignored since the hydra process manager was found
MPI startup(): Warning: I_MPI_PMI_LIBRARY will be ignored since the hydra process manager was found
MPI startup(): Warning: I_MPI_PMI_LIBRARY will be ignored since the hydra process manager was found
MPI startup(): Warning: I_MPI_PMI_LIBRARY will be ignored since the hydra process manager was found
MPI startup(): Warning: I_MPI_PMI_LIBRARY will be ignored since the hydra process manager was found
MPI startup(): Warning: I_MPI_PMI_LIBRARY will be ignored since the hydra process manager was found
MPI startup(): Warning: I_MPI_PMI_LIBRARY will be ignored since the hydra process manager was found
MPI startup(): Warning: I_MPI_PMI_LIBRARY will be ignored since the hydra process manager was found
MPI startup(): Warning: I_MPI_PMI_LIBRARY will be ignored since the hydra process manager was found
MPI startup(): Warning: I_MPI_PMI_LIBRARY will be ignored since the hydra process manager was found
MPI startup(): Warning: I_MPI_PMI_LIBRARY will be ignored since the hydra process manager was found
MPI startup(): Warning: I_MPI_PMI_LIBRARY will be ignored since the hydra process manager was found
MPI startup(): Warning: I_MPI_PMI_LIBRARY will be ignored since the hydra process manager was found
MPI startup(): Warning: I_MPI_PMI_LIBRARY will be ignored since the hydra process manager was found

     Program PWSCF v.6.7MaX starts on 30Jul2021 at 18:36:10 

     This program is part of the open-source Quantum ESPRESSO suite
     for quantum simulation of materials; please cite
         "P. Giannozzi et al., J. Phys.:Condens. Matter 21 395502 (2009);
         "P. Giannozzi et al., J. Phys.:Condens. Matter 29 465901 (2017);
          URL http://www.quantum-espresso.org", 
     in publications or presentations arising from this work. More details at
     http://www.quantum-espresso.org/quote

     Parallel version (MPI), running on    24 processors

     MPI processes distributed on     1 nodes
     R & G space division:  proc/nbgrp/npool/nimage =      24
     Waiting for input...
     Reading input from standard input

     Current dimensions of program PWSCF are:
     Max number of different atomic species (ntypx) = 10
     Max number of k-points (npk) =  40000
     Max angular momentum in pseudopotentials (lmaxx) =  3
     file Cr.rel-pbe-spn-kjpaw_psl.1.0.0.UPF: wavefunction(s)  3S 3P 3P 3D 3D renormalized
     file Si.rel-pbe-n-kjpaw_psl.1.0.0.UPF: wavefunction(s)  3S 3P 3P renormalized

     Subspace diagonalization in iterative solution of the eigenvalue problem:
     a serial algorithm will be used

     Message from routine setup:
     using ibrav=0 with symmetry is DISCOURAGED, use correct ibrav instead
 
     Parallelization info
     --------------------
     sticks:   dense  smooth     PW     G-vecs:    dense   smooth      PW
     Min         177      70     20                 8717     2202     340
     Max         178      71     21                 8720     2207     345
     Sum        4257    1701    489               209233    52923    8217
 


     bravais-lattice index     =            0
     lattice parameter (alat)  =       8.7475  a.u.
     unit-cell volume          =     669.3575 (a.u.)^3
     number of atoms/cell      =            8
     number of atomic types    =            2
     number of electrons       =        72.00
     number of Kohn-Sham states=           86
     kinetic-energy cutoff     =      70.0000  Ry
     charge density cutoff     =     700.0000  Ry
     scf convergence threshold =      1.0E-06
     mixing beta               =       0.7000
     number of iterations used =            8  plain     mixing
     Exchange-correlation= SLA  PW   PBX  PBC
                           (   1   4   3   4   0   0   0)
     Non magnetic calculation with spin-orbit


     celldm(1)=   8.747542  celldm(2)=   0.000000  celldm(3)=   0.000000
     celldm(4)=   0.000000  celldm(5)=   0.000000  celldm(6)=   0.000000

     crystal axes: (cart. coord. in units of alat)
               a(1) = (   1.000000   0.000000   0.000000 )  
               a(2) = (   0.000000   1.000000   0.000000 )  
               a(3) = (   0.000000   0.000000   1.000000 )  

     reciprocal axes: (cart. coord. in units 2 pi/alat)
               b(1) = (  1.000000  0.000000  0.000000 )  
               b(2) = (  0.000000  1.000000  0.000000 )  
               b(3) = (  0.000000  0.000000  1.000000 )  


     PseudoPot. # 1 for Cr read from file:
     ../../../../pseudo/Cr.rel-pbe-spn-kjpaw_psl.1.0.0.UPF
     MD5 check sum: 1e24e2b5251376a8b945118fca0c7981
     Pseudo is Projector augmented-wave + core cor, Zval = 14.0
     Generated using &quot;atomic&quot; code by A. Dal Corso  v.6.3
     Shape of augmentation charge: PSQ
     Using radial grid of 1183 points, 10 beta functions with: 
                l(1) =   0
                l(2) =   0
                l(3) =   1
                l(4) =   1
                l(5) =   1
                l(6) =   1
                l(7) =   2
                l(8) =   2
                l(9) =   2
               l(10) =   2
     Q(r) pseudized with 0 coefficients 


     PseudoPot. # 2 for Si read from file:
     ../../../../pseudo/Si.rel-pbe-n-kjpaw_psl.1.0.0.UPF
     MD5 check sum: d74f6caf6830ea4c2076867160cab1b0
     Pseudo is Projector augmented-wave + core cor, Zval =  4.0
     Generated using &quot;atomic&quot; code by A. Dal Corso  v.6.3
     Shape of augmentation charge: PSQ
     Using radial grid of 1141 points, 10 beta functions with: 
                l(1) =   0
                l(2) =   0
                l(3) =   1
                l(4) =   1
                l(5) =   1
                l(6) =   1
                l(7) =   2
                l(8) =   2
                l(9) =   2
               l(10) =   2
     Q(r) pseudized with 0 coefficients 


     atomic species   valence    mass     pseudopotential
        Cr            14.00    51.99600     Cr( 1.00)
        Si             4.00    28.08500     Si( 1.00)

     12 Sym. Ops. (no inversion) found ( 9 have fractional translation)


                                    s                        frac. trans.

      isym =  1     identity                                     

 cryst.   s( 1) = (     1          0          0      )
                  (     0          1          0      )
                  (     0          0          1      )

 cart.    s( 1) = (  1.0000000  0.0000000  0.0000000 )
                  (  0.0000000  1.0000000  0.0000000 )
                  (  0.0000000  0.0000000  1.0000000 )


      isym =  2     180 deg rotation - cart. axis [0,0,1]        

 cryst.   s( 2) = (    -1          0          0      )    f =(  0.5000000 )
                  (     0         -1          0      )       (  0.0000000 )
                  (     0          0          1      )       ( -0.5000000 )

 cart.    s( 2) = ( -1.0000000  0.0000000  0.0000000 )    f =(  0.5000000 )
                  (  0.0000000 -1.0000000  0.0000000 )       (  0.0000000 )
                  (  0.0000000  0.0000000  1.0000000 )       ( -0.5000000 )


      isym =  3     180 deg rotation - cart. axis [0,1,0]        

 cryst.   s( 3) = (    -1          0          0      )    f =(  0.0000000 )
                  (     0          1          0      )       ( -0.5000000 )
                  (     0          0         -1      )       (  0.5000000 )

 cart.    s( 3) = ( -1.0000000  0.0000000  0.0000000 )    f =(  0.0000000 )
                  (  0.0000000  1.0000000  0.0000000 )       ( -0.5000000 )
                  (  0.0000000  0.0000000 -1.0000000 )       (  0.5000000 )


      isym =  4     180 deg rotation - cart. axis [1,0,0]        

 cryst.   s( 4) = (     1          0          0      )    f =(  0.5000000 )
                  (     0         -1          0      )       (  0.5000000 )
                  (     0          0         -1      )       (  0.0000000 )

 cart.    s( 4) = (  1.0000000  0.0000000  0.0000000 )    f =(  0.5000000 )
                  (  0.0000000 -1.0000000  0.0000000 )       (  0.5000000 )
                  (  0.0000000  0.0000000 -1.0000000 )       (  0.0000000 )


      isym =  5     120 deg rotation - cart. axis [-1,-1,-1]     

 cryst.   s( 5) = (     0          0          1      )
                  (     1          0          0      )
                  (     0          1          0      )

 cart.    s( 5) = (  0.0000000  1.0000000  0.0000000 )
                  (  0.0000000  0.0000000  1.0000000 )
                  (  1.0000000  0.0000000  0.0000000 )


      isym =  6     120 deg rotation - cart. axis [-1,1,1]       

 cryst.   s( 6) = (     0          0         -1      )    f =(  0.0000000 )
                  (    -1          0          0      )       ( -0.5000000 )
                  (     0          1          0      )       (  0.5000000 )

 cart.    s( 6) = (  0.0000000 -1.0000000  0.0000000 )    f =(  0.0000000 )
                  (  0.0000000  0.0000000  1.0000000 )       ( -0.5000000 )
                  ( -1.0000000  0.0000000  0.0000000 )       (  0.5000000 )


      isym =  7     120 deg rotation - cart. axis [1,1,-1]       

 cryst.   s( 7) = (     0          0         -1      )    f =(  0.5000000 )
                  (     1          0          0      )       (  0.5000000 )
                  (     0         -1          0      )       (  0.0000000 )

 cart.    s( 7) = (  0.0000000  1.0000000  0.0000000 )    f =(  0.5000000 )
                  (  0.0000000  0.0000000 -1.0000000 )       (  0.5000000 )
                  ( -1.0000000  0.0000000  0.0000000 )       (  0.0000000 )


      isym =  8     120 deg rotation - cart. axis [1,-1,1]       

 cryst.   s( 8) = (     0          0          1      )    f =(  0.5000000 )
                  (    -1          0          0      )       (  0.0000000 )
                  (     0         -1          0      )       ( -0.5000000 )

 cart.    s( 8) = (  0.0000000 -1.0000000  0.0000000 )    f =(  0.5000000 )
                  (  0.0000000  0.0000000 -1.0000000 )       (  0.0000000 )
                  (  1.0000000  0.0000000  0.0000000 )       ( -0.5000000 )


      isym =  9     120 deg rotation - cart. axis [1,1,1]        

 cryst.   s( 9) = (     0          1          0      )
                  (     0          0          1      )
                  (     1          0          0      )

 cart.    s( 9) = (  0.0000000  0.0000000  1.0000000 )
                  (  1.0000000  0.0000000  0.0000000 )
                  (  0.0000000  1.0000000  0.0000000 )


      isym = 10     120 deg rotation - cart. axis [-1,1,-1]      

 cryst.   s(10) = (     0         -1          0      )    f =(  0.5000000 )
                  (     0          0         -1      )       (  0.5000000 )
                  (     1          0          0      )       (  0.0000000 )

 cart.    s(10) = (  0.0000000  0.0000000  1.0000000 )    f =(  0.5000000 )
                  ( -1.0000000  0.0000000  0.0000000 )       (  0.5000000 )
                  (  0.0000000 -1.0000000  0.0000000 )       (  0.0000000 )


      isym = 11     120 deg rotation - cart. axis [1,-1,-1]      

 cryst.   s(11) = (     0         -1          0      )    f =(  0.5000000 )
                  (     0          0          1      )       (  0.0000000 )
                  (    -1          0          0      )       ( -0.5000000 )

 cart.    s(11) = (  0.0000000  0.0000000 -1.0000000 )    f =(  0.5000000 )
                  ( -1.0000000  0.0000000  0.0000000 )       (  0.0000000 )
                  (  0.0000000  1.0000000  0.0000000 )       ( -0.5000000 )


      isym = 12     120 deg rotation - cart. axis [-1,-1,1]      

 cryst.   s(12) = (     0          1          0      )    f =(  0.0000000 )
                  (     0          0         -1      )       ( -0.5000000 )
                  (    -1          0          0      )       (  0.5000000 )

 cart.    s(12) = (  0.0000000  0.0000000 -1.0000000 )    f =(  0.0000000 )
                  (  1.0000000  0.0000000  0.0000000 )       ( -0.5000000 )
                  (  0.0000000 -1.0000000  0.0000000 )       (  0.5000000 )


   Cartesian axes

     site n.     atom                  positions (alat units)
         1           Cr  tau(   1) = (   0.8640000   0.3640000   0.1360000  )
         2           Cr  tau(   2) = (   0.3640000   0.1360000   0.8640000  )
         3           Cr  tau(   3) = (   0.1360000   0.8640000   0.3640000  )
         4           Cr  tau(   4) = (   0.6360000   0.6360000   0.6360000  )
         5           Si  tau(   5) = (   0.1540000   0.6540000   0.8460000  )
         6           Si  tau(   6) = (   0.6540000   0.8460000   0.1540000  )
         7           Si  tau(   7) = (   0.8460000   0.1540000   0.6540000  )
         8           Si  tau(   8) = (   0.3460000   0.3460000   0.3460000  )

   Crystallographic axes

     site n.     atom                  positions (cryst. coord.)
         1           Cr  tau(   1) = (  0.8640000  0.3640000  0.1360000  )
         2           Cr  tau(   2) = (  0.3640000  0.1360000  0.8640000  )
         3           Cr  tau(   3) = (  0.1360000  0.8640000  0.3640000  )
         4           Cr  tau(   4) = (  0.6360000  0.6360000  0.6360000  )
         5           Si  tau(   5) = (  0.1540000  0.6540000  0.8460000  )
         6           Si  tau(   6) = (  0.6540000  0.8460000  0.1540000  )
         7           Si  tau(   7) = (  0.8460000  0.1540000  0.6540000  )
         8           Si  tau(   8) = (  0.3460000  0.3460000  0.3460000  )

     number of k points=    24  Methfessel-Paxton smearing, width (Ry)=  0.0200
                       cart. coord. in units 2pi/alat
        k(    1) = (   0.0000000   0.0000000   0.0000000), wk =   0.0046296
        k(    2) = (   0.0000000   0.0000000   0.1666667), wk =   0.0277778
        k(    3) = (   0.0000000   0.0000000   0.3333333), wk =   0.0277778
        k(    4) = (   0.0000000   0.0000000  -0.5000000), wk =   0.0138889
        k(    5) = (   0.0000000   0.1666667   0.1666667), wk =   0.0555556
        k(    6) = (   0.0000000   0.1666667   0.3333333), wk =   0.0555556
        k(    7) = (   0.0000000   0.1666667  -0.5000000), wk =   0.0277778
        k(    8) = (   0.0000000   0.3333333   0.3333333), wk =   0.0555556
        k(    9) = (   0.0000000   0.3333333  -0.5000000), wk =   0.0277778
        k(   10) = (   0.0000000  -0.5000000  -0.5000000), wk =   0.0138889
        k(   11) = (   0.1666667   0.1666667   0.1666667), wk =   0.0370370
        k(   12) = (   0.1666667   0.1666667   0.3333333), wk =   0.1111111
        k(   13) = (   0.1666667   0.1666667  -0.5000000), wk =   0.0555556
        k(   14) = (   0.1666667   0.3333333   0.3333333), wk =   0.1111111
        k(   15) = (   0.1666667   0.3333333  -0.5000000), wk =   0.0555556
        k(   16) = (   0.1666667  -0.5000000  -0.5000000), wk =   0.0277778
        k(   17) = (   0.3333333   0.3333333   0.3333333), wk =   0.0370370
        k(   18) = (   0.3333333   0.3333333  -0.5000000), wk =   0.0555556
        k(   19) = (   0.3333333  -0.5000000  -0.5000000), wk =   0.0277778
        k(   20) = (  -0.5000000  -0.5000000  -0.5000000), wk =   0.0046296
        k(   21) = (   0.0000000   0.3333333   0.1666667), wk =   0.0555556
        k(   22) = (   0.0000000  -0.5000000   0.1666667), wk =   0.0277778
        k(   23) = (   0.0000000  -0.5000000   0.3333333), wk =   0.0277778
        k(   24) = (  -0.1666667  -0.5000000   0.3333333), wk =   0.0555556

                       cryst. coord.
        k(    1) = (   0.0000000   0.0000000   0.0000000), wk =   0.0046296
        k(    2) = (   0.0000000   0.0000000   0.1666667), wk =   0.0277778
        k(    3) = (   0.0000000   0.0000000   0.3333333), wk =   0.0277778
        k(    4) = (   0.0000000   0.0000000  -0.5000000), wk =   0.0138889
        k(    5) = (   0.0000000   0.1666667   0.1666667), wk =   0.0555556
        k(    6) = (   0.0000000   0.1666667   0.3333333), wk =   0.0555556
        k(    7) = (   0.0000000   0.1666667  -0.5000000), wk =   0.0277778
        k(    8) = (   0.0000000   0.3333333   0.3333333), wk =   0.0555556
        k(    9) = (   0.0000000   0.3333333  -0.5000000), wk =   0.0277778
        k(   10) = (   0.0000000  -0.5000000  -0.5000000), wk =   0.0138889
        k(   11) = (   0.1666667   0.1666667   0.1666667), wk =   0.0370370
        k(   12) = (   0.1666667   0.1666667   0.3333333), wk =   0.1111111
        k(   13) = (   0.1666667   0.1666667  -0.5000000), wk =   0.0555556
        k(   14) = (   0.1666667   0.3333333   0.3333333), wk =   0.1111111
        k(   15) = (   0.1666667   0.3333333  -0.5000000), wk =   0.0555556
        k(   16) = (   0.1666667  -0.5000000  -0.5000000), wk =   0.0277778
        k(   17) = (   0.3333333   0.3333333   0.3333333), wk =   0.0370370
        k(   18) = (   0.3333333   0.3333333  -0.5000000), wk =   0.0555556
        k(   19) = (   0.3333333  -0.5000000  -0.5000000), wk =   0.0277778
        k(   20) = (  -0.5000000  -0.5000000  -0.5000000), wk =   0.0046296
        k(   21) = (   0.0000000   0.3333333   0.1666667), wk =   0.0555556
        k(   22) = (   0.0000000  -0.5000000   0.1666667), wk =   0.0277778
        k(   23) = (   0.0000000  -0.5000000   0.3333333), wk =   0.0277778
        k(   24) = (  -0.1666667  -0.5000000   0.3333333), wk =   0.0555556

     Dense  grid:   209233 G-vectors     FFT dimensions: (  80,  80,  80)

     Smooth grid:    52923 G-vectors     FFT dimensions: (  48,  48,  48)

     Dynamical RAM for                 wfc:       0.72 MB

     Dynamical RAM for     wfc (w. buffer):      18.04 MB

     Dynamical RAM for           str. fact:       0.27 MB

     Dynamical RAM for           local pot:       0.00 MB

     Dynamical RAM for          nlocal pot:       1.14 MB

     Dynamical RAM for                qrad:      11.12 MB

     Dynamical RAM for          rho,v,vnew:       3.94 MB

     Dynamical RAM for               rhoin:       1.31 MB

     Dynamical RAM for            rho*nmix:       8.52 MB

     Dynamical RAM for           G-vectors:       0.52 MB

     Dynamical RAM for          h,s,v(r/c):       1.35 MB

     Dynamical RAM for          <psi|beta>:       0.71 MB

     Dynamical RAM for                 psi:       1.44 MB

     Dynamical RAM for                hpsi:       1.44 MB

     Dynamical RAM for                spsi:       1.44 MB

     Dynamical RAM for      wfcinit/wfcrot:       1.70 MB

     Dynamical RAM for           addusdens:      81.70 MB

     Estimated static dynamical RAM per process >      46.81 MB

     Estimated max dynamical RAM per process >     128.51 MB

     Estimated total dynamical RAM >       3.01 GB

     Initial potential from superposition of free atoms

     starting charge   71.99469, renormalised to   72.00000
     Starting wfcs are  112 randomized atomic wfcs
     Checking if some PAW data can be deallocated... 
       PAW data deallocated on   12 nodes for type:  1
       PAW data deallocated on   12 nodes for type:  2

     total cpu time spent up to now is        5.8 secs

     Self-consistent Calculation

     iteration #  1     ecut=    70.00 Ry     beta= 0.70
     Davidson diagonalization with overlap
     ethr =  1.00E-02,  avg # of iterations =  2.0

     Threshold (ethr) on eigenvalues was too large:
     Diagonalizing with lowered threshold

     Davidson diagonalization with overlap
     ethr =  2.09E-04,  avg # of iterations =  4.4

     total cpu time spent up to now is       21.7 secs

     total energy              =   -1180.30339507 Ry
     estimated scf accuracy    <       0.18881420 Ry

     iteration #  2     ecut=    70.00 Ry     beta= 0.70
     Davidson diagonalization with overlap
     ethr =  2.62E-04,  avg # of iterations =  3.2

     total cpu time spent up to now is       30.2 secs

     total energy              =   -1180.30728712 Ry
     estimated scf accuracy    <       0.08386333 Ry

     iteration #  3     ecut=    70.00 Ry     beta= 0.70
     Davidson diagonalization with overlap
     ethr =  1.16E-04,  avg # of iterations =  5.0

     total cpu time spent up to now is       40.5 secs

     total energy              =   -1180.31946378 Ry
     estimated scf accuracy    <       0.16403372 Ry

     iteration #  4     ecut=    70.00 Ry     beta= 0.70
     Davidson diagonalization with overlap
     ethr =  1.16E-04,  avg # of iterations =  4.1

     total cpu time spent up to now is       48.8 secs

     total energy              =   -1180.34335552 Ry
     estimated scf accuracy    <       0.00022394 Ry

     iteration #  5     ecut=    70.00 Ry     beta= 0.70
     Davidson diagonalization with overlap
     ethr =  3.11E-07,  avg # of iterations =  8.9

     total cpu time spent up to now is       62.4 secs

     total energy              =   -1180.34402212 Ry
     estimated scf accuracy    <       0.00048676 Ry

     iteration #  6     ecut=    70.00 Ry     beta= 0.70
     Davidson diagonalization with overlap
     ethr =  3.11E-07,  avg # of iterations =  4.0

     total cpu time spent up to now is       70.9 secs

     total energy              =   -1180.34410271 Ry
     estimated scf accuracy    <       0.00000511 Ry

     iteration #  7     ecut=    70.00 Ry     beta= 0.70
     Davidson diagonalization with overlap
     ethr =  7.09E-09,  avg # of iterations =  4.8

     total cpu time spent up to now is       79.2 secs

     total energy              =   -1180.34410300 Ry
     estimated scf accuracy    <       0.00000342 Ry

     iteration #  8     ecut=    70.00 Ry     beta= 0.70
     Davidson diagonalization with overlap
     ethr =  4.74E-09,  avg # of iterations =  3.5

     total cpu time spent up to now is       87.0 secs

     End of self-consistent calculation

          k = 0.0000 0.0000 0.0000 (  6619 PWs)   bands (ev):

   -56.5117 -56.5117 -56.4770 -56.4770 -56.4770 -56.4770 -56.4770 -56.4770
   -28.5787 -28.5787 -28.5713 -28.5713 -28.5713 -28.5713 -28.4819 -28.4819
   -27.6133 -27.6133 -27.6133 -27.6133 -27.5367 -27.5367 -27.5367 -27.5367
   -27.5325 -27.5325 -27.4501 -27.4501 -27.4495 -27.4495 -27.4495 -27.4495
     2.6987   2.6987   7.4570   7.4570   7.4570   7.4570   7.4661   7.4661
    10.5374  10.5374  10.5453  10.5453  10.5453  10.5453  11.9114  11.9114
    11.9114  11.9114  11.9225  11.9225  12.6026  12.6026  12.7724  12.7724
    12.7724  12.7724  13.1449  13.1449  13.1449  13.1449  13.1460  13.1460
    13.6729  13.6729  13.6729  13.6729  13.6767  13.6767  15.5530  15.5530
    15.5843  15.5843  15.5843  15.5843  15.7681  15.7681  15.7681  15.7681
    16.6663  16.6663  16.6966  16.6966  16.6966  16.6966

     occupation numbers 
     1.0000   1.0000   1.0000   1.0000   1.0000   1.0000   1.0000   1.0000
     1.0000   1.0000   1.0000   1.0000   1.0000   1.0000   1.0000   1.0000
     1.0000   1.0000   1.0000   1.0000   1.0000   1.0000   1.0000   1.0000
     1.0000   1.0000   1.0000   1.0000   1.0000   1.0000   1.0000   1.0000
     1.0000   1.0000   1.0000   1.0000   1.0000   1.0000   1.0000   1.0000
     1.0000   1.0000   1.0000   1.0000   1.0000   1.0000   1.0000   1.0000
     1.0000   1.0000   1.0000   1.0000   1.0000   1.0000   1.0000   1.0000
     1.0000   1.0000   1.0000   1.0000   1.0000   1.0000   1.0000   1.0000
     1.0000   1.0000   1.0000   1.0000   1.0000   1.0000  -0.0038  -0.0038
    -0.0024  -0.0024  -0.0024  -0.0024  -0.0001  -0.0001  -0.0001  -0.0001
    -0.0000  -0.0000  -0.0000  -0.0000  -0.0000  -0.0000

          k = 0.0000 0.0000 0.1667 (  6627 PWs)   bands (ev):

   -56.5100 -56.5100 -56.4826 -56.4826 -56.4765 -56.4765 -56.4737 -56.4737
   -28.5865 -28.5796 -28.5756 -28.5749 -28.5607 -28.5575 -28.4869 -28.4868
   -27.6301 -27.6220 -27.6002 -27.5925 -27.5494 -27.5435 -27.5399 -27.5303
   -27.5276 -27.5155 -27.4604 -27.4581 -27.4551 -27.4482 -27.4472 -27.4420
     2.8908   2.8908   6.5401   6.5426   7.5631   7.5651   8.1198   8.1291
     9.9484   9.9526  10.6630  10.6655  11.0720  11.0749  11.2875  11.2882
    11.5003  11.5051  12.4495  12.4598  12.7396  12.7619  12.8030  12.8096
    13.0117  13.0150  13.1091  13.1116  13.1982  13.2002  13.2289  13.2292
    13.5326  13.5427  13.6332  13.6358  13.9645  13.9650  15.2948  15.3157
    15.4185  15.4260  15.6949  15.7044  15.7501  15.7685  15.7934  15.8190
    16.4080  16.4235  16.5962  16.6037  16.9915  17.0120

     occupation numbers 
     1.0000   1.0000   1.0000   1.0000   1.0000   1.0000   1.0000   1.0000
     1.0000   1.0000   1.0000   1.0000   1.0000   1.0000   1.0000   1.0000
     1.0000   1.0000   1.0000   1.0000   1.0000   1.0000   1.0000   1.0000
     1.0000   1.0000   1.0000   1.0000   1.0000   1.0000   1.0000   1.0000
     1.0000   1.0000   1.0000   1.0000   1.0000   1.0000   1.0000   1.0000
     1.0000   1.0000   1.0000   1.0000   1.0000   1.0000   1.0000   1.0000
     1.0000   1.0000   1.0000   1.0000   1.0000   1.0000   1.0000   1.0000
     1.0000   1.0000   1.0000   1.0000   1.0000   1.0000   1.0000   1.0000
     1.0000   1.0000   1.0000   1.0000   1.0000   1.0000  -0.0353  -0.0338
    -0.0178  -0.0167  -0.0004  -0.0003  -0.0001  -0.0001  -0.0001  -0.0000
    -0.0000  -0.0000  -0.0000  -0.0000  -0.0000  -0.0000

          k = 0.0000 0.0000 0.3333 (  6607 PWs)   bands (ev):

   -56.5050 -56.5050 -56.4900 -56.4900 -56.4750 -56.4750 -56.4727 -56.4727
   -28.5891 -28.5824 -28.5812 -28.5775 -28.5417 -28.5392 -28.5008 -28.5003
   -27.6378 -27.6299 -27.5819 -27.5774 -27.5620 -27.5419 -27.5368 -27.5279
   -27.5262 -27.4961 -27.4776 -27.4647 -27.4617 -27.4508 -27.4463 -27.4402
     3.4512   3.4512   5.4202   5.4210   7.8603   7.8643   8.5101   8.5197
     9.6516   9.6532  10.6591  10.6614  10.7716  10.7840  11.0449  11.0478
    11.8632  11.8652  12.1347  12.1505  12.8390  12.8551  12.9334  12.9429
    13.1155  13.1214  13.1710  13.1762  13.2592  13.2620  13.3949  13.3972
    13.4525  13.4546  13.9167  13.9205  14.1182  14.1249  14.8902  14.9243
    15.3595  15.3679  15.5377  15.5560  15.7460  15.7743  15.8558  15.8798
    16.1957  16.2116  16.3715  16.3851  17.3070  17.3230

     occupation numbers 
     1.0000   1.0000   1.0000   1.0000   1.0000   1.0000   1.0000   1.0000
     1.0000   1.0000   1.0000   1.0000   1.0000   1.0000   1.0000   1.0000
     1.0000   1.0000   1.0000   1.0000   1.0000   1.0000   1.0000   1.0000
     1.0000   1.0000   1.0000   1.0000   1.0000   1.0000   1.0000   1.0000
     1.0000   1.0000   1.0000   1.0000   1.0000   1.0000   1.0000   1.0000
     1.0000   1.0000   1.0000   1.0000   1.0000   1.0000   1.0000   1.0000
     1.0000   1.0000   1.0000   1.0000   1.0000   1.0000   1.0000   1.0000
     1.0000   1.0000   1.0000   1.0000   1.0000   1.0000   1.0000   1.0000
     1.0000   1.0000   1.0000   1.0000   1.0001   1.0001   0.6854   0.5840
    -0.0277  -0.0263  -0.0047  -0.0037  -0.0001  -0.0001  -0.0000  -0.0000
    -0.0000  -0.0000  -0.0000  -0.0000  -0.0000  -0.0000

          k = 0.0000 0.0000-0.5000 (  6568 PWs)   bands (ev):

   -56.4979 -56.4979 -56.4979 -56.4979 -56.4735 -56.4735 -56.4735 -56.4735
   -28.5865 -28.5865 -28.5809 -28.5809 -28.5203 -28.5203 -28.5189 -28.5189
   -27.6366 -27.6366 -27.5717 -27.5717 -27.5564 -27.5564 -27.5332 -27.5332
   -27.5026 -27.5026 -27.4784 -27.4784 -27.4564 -27.4564 -27.4429 -27.4429
     4.3287   4.3287   4.3289   4.3289   8.2828   8.2828   8.2892   8.2892
    10.0169  10.0169  10.0209  10.0209  10.8984  10.8984  10.9095  10.9095
    12.2477  12.2477  12.2542  12.2542  12.6862  12.6862  12.6986  12.6986
    13.1428  13.1428  13.1432  13.1432  13.2383  13.2383  13.2420  13.2420
    13.7833  13.7833  13.7865  13.7865  14.5658  14.5658  14.5944  14.5944
    15.4032  15.4032  15.4210  15.4210  15.8077  15.8077  15.8374  15.8374
    16.1669  16.1669  16.1806  16.1806  17.5447  17.5471

     occupation numbers 
     1.0000   1.0000   1.0000   1.0000   1.0000   1.0000   1.0000   1.0000
     1.0000   1.0000   1.0000   1.0000   1.0000   1.0000   1.0000   1.0000
     1.0000   1.0000   1.0000   1.0000   1.0000   1.0000   1.0000   1.0000
     1.0000   1.0000   1.0000   1.0000   1.0000   1.0000   1.0000   1.0000
     1.0000   1.0000   1.0000   1.0000   1.0000   1.0000   1.0000   1.0000
     1.0000   1.0000   1.0000   1.0000   1.0000   1.0000   1.0000   1.0000
     1.0000   1.0000   1.0000   1.0000   1.0000   1.0000   1.0000   1.0000
     1.0000   1.0000   1.0000   1.0000   1.0000   1.0000   1.0000   1.0000
     1.0000   1.0000   1.0000   1.0000   1.0311   1.0311   1.0344   1.0344
    -0.0203  -0.0203  -0.0175  -0.0175  -0.0000  -0.0000  -0.0000  -0.0000
    -0.0000  -0.0000  -0.0000  -0.0000  -0.0000  -0.0000

          k = 0.0000 0.1667 0.1667 (  6623 PWs)   bands (ev):

   -56.5083 -56.5083 -56.4845 -56.4845 -56.4770 -56.4770 -56.4729 -56.4729
   -28.5883 -28.5825 -28.5733 -28.5731 -28.5570 -28.5532 -28.4916 -28.4915
   -27.6309 -27.6268 -27.5910 -27.5870 -27.5507 -27.5473 -27.5432 -27.5359
   -27.5195 -27.5063 -27.4691 -27.4654 -27.4581 -27.4492 -27.4425 -27.4383
     3.0804   3.0804   6.3974   6.4017   7.2078   7.2122   8.4070   8.4124
     9.8328   9.8361  10.5101  10.5126  10.7873  10.7886  11.3574  11.3604
    11.7801  11.7805  12.4123  12.4180  12.5880  12.5957  12.9953  12.9966
    13.0913  13.0994  13.1729  13.1736  13.2443  13.2510  13.3367  13.3417
    13.4680  13.4758  13.7332  13.7473  14.0762  14.0835  15.2528  15.2745
    15.3023  15.3217  15.5371  15.5492  15.6972  15.7182  15.8154  15.8399
    16.2782  16.2951  16.6078  16.6176  17.0338  17.0683

     occupation numbers 
     1.0000   1.0000   1.0000   1.0000   1.0000   1.0000   1.0000   1.0000
     1.0000   1.0000   1.0000   1.0000   1.0000   1.0000   1.0000   1.0000
     1.0000   1.0000   1.0000   1.0000   1.0000   1.0000   1.0000   1.0000
     1.0000   1.0000   1.0000   1.0000   1.0000   1.0000   1.0000   1.0000
     1.0000   1.0000   1.0000   1.0000   1.0000   1.0000   1.0000   1.0000
     1.0000   1.0000   1.0000   1.0000   1.0000   1.0000   1.0000   1.0000
     1.0000   1.0000   1.0000   1.0000   1.0000   1.0000   1.0000   1.0000
     1.0000   1.0000   1.0000   1.0000   1.0000   1.0000   1.0000   1.0000
     1.0000   1.0000   1.0000   1.0000   1.0000   1.0000  -0.0330  -0.0352
    -0.0349  -0.0331  -0.0047  -0.0040  -0.0004  -0.0002  -0.0000  -0.0000
    -0.0000  -0.0000  -0.0000  -0.0000  -0.0000  -0.0000

          k = 0.0000 0.1667 0.3333 (  6618 PWs)   bands (ev):

   -56.5037 -56.5037 -56.4901 -56.4901 -56.4761 -56.4761 -56.4729 -56.4729
   -28.5882 -28.5831 -28.5770 -28.5749 -28.5423 -28.5398 -28.5047 -28.5044
   -27.6341 -27.6288 -27.5800 -27.5745 -27.5607 -27.5472 -27.5404 -27.5327
   -27.5208 -27.4924 -27.4865 -27.4707 -27.4638 -27.4523 -27.4389 -27.4351
     3.6329   3.6331   5.5378   5.5395   7.3631   7.3657   8.4328   8.4361
     9.7331   9.7363  10.1895  10.1938  10.9879  10.9909  11.3854  11.3950
    11.7524  11.7567  12.1893  12.1981  12.5947  12.6023  12.8767  12.8855
    13.1131  13.1226  13.2522  13.2580  13.3799  13.3812  13.5266  13.5366
    13.5897  13.6028  13.9894  14.0000  14.2440  14.2565  14.9100  14.9410
    15.2260  15.2446  15.3465  15.3565  15.6555  15.6806  15.8073  15.8376
    16.1525  16.1620  16.4402  16.4532  17.2372  17.2701

     occupation numbers 
     1.0000   1.0000   1.0000   1.0000   1.0000   1.0000   1.0000   1.0000
     1.0000   1.0000   1.0000   1.0000   1.0000   1.0000   1.0000   1.0000
     1.0000   1.0000   1.0000   1.0000   1.0000   1.0000   1.0000   1.0000
     1.0000   1.0000   1.0000   1.0000   1.0000   1.0000   1.0000   1.0000
     1.0000   1.0000   1.0000   1.0000   1.0000   1.0000   1.0000   1.0000
     1.0000   1.0000   1.0000   1.0000   1.0000   1.0000   1.0000   1.0000
     1.0000   1.0000   1.0000   1.0000   1.0000   1.0000   1.0000   1.0000
     1.0000   1.0000   1.0000   1.0000   1.0000   1.0000   1.0000   1.0000
     1.0000   1.0000   1.0000   1.0000   1.0007   1.0009   0.6275   0.5327
    -0.0260  -0.0314  -0.0297  -0.0282  -0.0008  -0.0005  -0.0000  -0.0000
    -0.0000  -0.0000  -0.0000  -0.0000  -0.0000  -0.0000

          k = 0.0000 0.1667-0.5000 (  6630 PWs)   bands (ev):

   -56.4971 -56.4971 -56.4971 -56.4971 -56.4743 -56.4743 -56.4743 -56.4743
   -28.5844 -28.5844 -28.5789 -28.5789 -28.5238 -28.5238 -28.5213 -28.5213
   -27.6325 -27.6325 -27.5719 -27.5719 -27.5572 -27.5572 -27.5329 -27.5329
   -27.5106 -27.5106 -27.4788 -27.4788 -27.4593 -27.4593 -27.4361 -27.4361
     4.4934   4.4934   4.4941   4.4941   7.8952   7.8952   7.9020   7.9020
    10.0150  10.0150  10.0190  10.0190  11.1036  11.1036  11.1176  11.1176
    12.0904  12.0904  12.0950  12.0950  12.5404  12.5404  12.5562  12.5562
    13.2766  13.2766  13.2775  13.2775  13.3917  13.3917  13.3929  13.3929
    13.8670  13.8670  13.8710  13.8710  14.6210  14.6210  14.6523  14.6523
    15.2390  15.2390  15.2537  15.2537  15.7157  15.7157  15.7454  15.7454
    16.2405  16.2405  16.2512  16.2512  17.4851  17.4888

     occupation numbers 
     1.0000   1.0000   1.0000   1.0000   1.0000   1.0000   1.0000   1.0000
     1.0000   1.0000   1.0000   1.0000   1.0000   1.0000   1.0000   1.0000
     1.0000   1.0000   1.0000   1.0000   1.0000   1.0000   1.0000   1.0000
     1.0000   1.0000   1.0000   1.0000   1.0000   1.0000   1.0000   1.0000
     1.0000   1.0000   1.0000   1.0000   1.0000   1.0000   1.0000   1.0000
     1.0000   1.0000   1.0000   1.0000   1.0000   1.0000   1.0000   1.0000
     1.0000   1.0000   1.0000   1.0000   1.0000   1.0000   1.0000   1.0000
     1.0000   1.0000   1.0000   1.0000   1.0000   1.0000   1.0000   1.0000
     1.0000   1.0000   1.0000   1.0000   1.0354   1.0354   1.0326   1.0326
    -0.0300  -0.0300  -0.0331  -0.0331  -0.0003  -0.0003  -0.0001  -0.0001
    -0.0000  -0.0000  -0.0000  -0.0000  -0.0000  -0.0000

          k = 0.0000 0.3333 0.3333 (  6628 PWs)   bands (ev):

   -56.5000 -56.5000 -56.4915 -56.4915 -56.4771 -56.4771 -56.4742 -56.4742
   -28.5843 -28.5803 -28.5733 -28.5723 -28.5401 -28.5378 -28.5156 -28.5149
   -27.6256 -27.6244 -27.5811 -27.5754 -27.5565 -27.5488 -27.5372 -27.5359
   -27.5196 -27.5004 -27.4980 -27.4866 -27.4578 -27.4440 -27.4346 -27.4314
     4.1584   4.1588   5.6400   5.6421   6.6786   6.6813   7.8199   7.8237
    10.0317  10.0344  10.3053  10.3083  10.9410  10.9428  11.2585  11.2606
    11.8950  11.9015  12.1584  12.1628  12.3097  12.3193  12.6287  12.6365
    13.1798  13.1882  13.3917  13.3967  13.5605  13.5633  13.7209  13.7262
    13.8837  13.8954  14.0948  14.1075  14.4882  14.5139  14.8488  14.8605
    14.9417  14.9620  15.0585  15.0751  15.5235  15.5466  15.6038  15.6337
    16.2333  16.2421  16.4906  16.4975  17.1479  17.1785

     occupation numbers 
     1.0000   1.0000   1.0000   1.0000   1.0000   1.0000   1.0000   1.0000
     1.0000   1.0000   1.0000   1.0000   1.0000   1.0000   1.0000   1.0000
     1.0000   1.0000   1.0000   1.0000   1.0000   1.0000   1.0000   1.0000
     1.0000   1.0000   1.0000   1.0000   1.0000   1.0000   1.0000   1.0000
     1.0000   1.0000   1.0000   1.0000   1.0000   1.0000   1.0000   1.0000
     1.0000   1.0000   1.0000   1.0000   1.0000   1.0000   1.0000   1.0000
     1.0000   1.0000   1.0000   1.0000   1.0000   1.0000   1.0000   1.0000
     1.0000   1.0000   1.0000   1.0000   1.0000   1.0000   1.0000   1.0000
     1.0000   1.0000   1.0000   1.0001   1.0184   1.0227   0.7955   0.7664
     0.5304   0.4674   0.1941   0.1560  -0.0057  -0.0042  -0.0018  -0.0011
    -0.0000  -0.0000  -0.0000  -0.0000  -0.0000  -0.0000

          k = 0.0000 0.3333-0.5000 (  6604 PWs)   bands (ev):

   -56.4953 -56.4953 -56.4953 -56.4953 -56.4761 -56.4761 -56.4761 -56.4761
   -28.5784 -28.5784 -28.5742 -28.5742 -28.5302 -28.5302 -28.5273 -28.5273
   -27.6203 -27.6203 -27.5833 -27.5833 -27.5488 -27.5488 -27.5308 -27.5308
   -27.5189 -27.5189 -27.4975 -27.4975 -27.4464 -27.4464 -27.4318 -27.4318
     4.9496   4.9496   4.9509   4.9509   7.0287   7.0287   7.0336   7.0336
    10.3308  10.3308  10.3328  10.3328  11.2381  11.2381  11.2465  11.2465
    11.7610  11.7610  11.7665  11.7665  12.3342  12.3342  12.3416  12.3416
    13.3675  13.3675  13.3745  13.3745  13.6755  13.6755  13.6842  13.6842
    14.1709  14.1709  14.1765  14.1765  14.6114  14.6114  14.6305  14.6305
    14.9442  14.9442  14.9591  14.9591  15.4992  15.4992  15.5234  15.5234
    16.4412  16.4412  16.4520  16.4520  17.1964  17.1998

     occupation numbers 
     1.0000   1.0000   1.0000   1.0000   1.0000   1.0000   1.0000   1.0000
     1.0000   1.0000   1.0000   1.0000   1.0000   1.0000   1.0000   1.0000
     1.0000   1.0000   1.0000   1.0000   1.0000   1.0000   1.0000   1.0000
     1.0000   1.0000   1.0000   1.0000   1.0000   1.0000   1.0000   1.0000
     1.0000   1.0000   1.0000   1.0000   1.0000   1.0000   1.0000   1.0000
     1.0000   1.0000   1.0000   1.0000   1.0000   1.0000   1.0000   1.0000
     1.0000   1.0000   1.0000   1.0000   1.0000   1.0000   1.0000   1.0000
     1.0000   1.0000   1.0000   1.0000   1.0000   1.0000   1.0000   1.0000
     1.0002   1.0002   1.0002   1.0002   1.0354   1.0354   1.0351   1.0351
     0.5227   0.5227   0.4764   0.4764  -0.0077  -0.0077  -0.0057  -0.0057
    -0.0000  -0.0000  -0.0000  -0.0000  -0.0000  -0.0000

          k = 0.0000-0.5000-0.5000 (  6632 PWs)   bands (ev):

   -56.4943 -56.4943 -56.4943 -56.4943 -56.4771 -56.4771 -56.4771 -56.4771
   -28.5732 -28.5732 -28.5732 -28.5732 -28.5325 -28.5325 -28.5325 -28.5325
   -27.6025 -27.6025 -27.6025 -27.6025 -27.5353 -27.5353 -27.5353 -27.5353
   -27.5155 -27.5155 -27.5155 -27.5155 -27.4356 -27.4356 -27.4356 -27.4356
     5.3714   5.3714   5.3714   5.3714   6.4279   6.4279   6.4279   6.4279
    10.7060  10.7060  10.7060  10.7060  11.2430  11.2430  11.2430  11.2430
    11.3855  11.3855  11.3855  11.3855  12.2846  12.2846  12.2846  12.2846
    13.3628  13.3628  13.3628  13.3628  14.0076  14.0076  14.0076  14.0076
    14.2950  14.2950  14.2950  14.2950  14.5257  14.5257  14.5257  14.5257
    14.7581  14.7581  14.7581  14.7581  15.4186  15.4186  15.4186  15.4186
    16.5882  16.5882  16.5882  16.5882  16.9857  16.9857

     occupation numbers 
     1.0000   1.0000   1.0000   1.0000   1.0000   1.0000   1.0000   1.0000
     1.0000   1.0000   1.0000   1.0000   1.0000   1.0000   1.0000   1.0000
     1.0000   1.0000   1.0000   1.0000   1.0000   1.0000   1.0000   1.0000
     1.0000   1.0000   1.0000   1.0000   1.0000   1.0000   1.0000   1.0000
     1.0000   1.0000   1.0000   1.0000   1.0000   1.0000   1.0000   1.0000
     1.0000   1.0000   1.0000   1.0000   1.0000   1.0000   1.0000   1.0000
     1.0000   1.0000   1.0000   1.0000   1.0000   1.0000   1.0000   1.0000
     1.0000   1.0000   1.0000   1.0000   1.0000   1.0000   1.0000   1.0000
     1.0017   1.0017   1.0017   1.0017   1.0247   1.0247   1.0247   1.0247
     0.9635   0.9635   0.9635   0.9635  -0.0178  -0.0178  -0.0178  -0.0178
    -0.0000  -0.0000  -0.0000  -0.0000  -0.0000  -0.0000

          k = 0.1667 0.1667 0.1667 (  6652 PWs)   bands (ev):

   -56.5067 -56.5067 -56.4856 -56.4856 -56.4777 -56.4777 -56.4727 -56.4727
   -28.5887 -28.5833 -28.5714 -28.5714 -28.5550 -28.5510 -28.4964 -28.4961
   -27.6303 -27.6279 -27.5886 -27.5796 -27.5511 -27.5469 -27.5461 -27.5431
   -27.5139 -27.5011 -27.4787 -27.4657 -27.4588 -27.4550 -27.4376 -27.4370
     3.2675   3.2675   6.3451   6.3518   7.0384   7.0471   8.3235   8.3257
     9.7323   9.7350  10.5176  10.5184  10.5475  10.5488  11.3856  11.3911
    11.9879  11.9884  12.3202  12.3284  12.8287  12.8341  12.8347  12.8409
    13.1026  13.1080  13.1346  13.1347  13.2103  13.2163  13.5218  13.5268
    13.6010  13.6105  13.7839  13.7893  14.1530  14.1616  15.2054  15.2200
    15.2730  15.2877  15.4717  15.4729  15.5238  15.5394  15.7932  15.8080
    16.2244  16.2412  16.6034  16.6149  17.0479  17.0881

     occupation numbers 
     1.0000   1.0000   1.0000   1.0000   1.0000   1.0000   1.0000   1.0000
     1.0000   1.0000   1.0000   1.0000   1.0000   1.0000   1.0000   1.0000
     1.0000   1.0000   1.0000   1.0000   1.0000   1.0000   1.0000   1.0000
     1.0000   1.0000   1.0000   1.0000   1.0000   1.0000   1.0000   1.0000
     1.0000   1.0000   1.0000   1.0000   1.0000   1.0000   1.0000   1.0000
     1.0000   1.0000   1.0000   1.0000   1.0000   1.0000   1.0000   1.0000
     1.0000   1.0000   1.0000   1.0000   1.0000   1.0000   1.0000   1.0000
     1.0000   1.0000   1.0000   1.0000   1.0000   1.0000   1.0000   1.0000
     1.0000   1.0000   1.0000   1.0000   1.0001   1.0002  -0.0167  -0.0237
    -0.0352  -0.0354  -0.0105  -0.0104  -0.0056  -0.0046  -0.0001  -0.0000
    -0.0000  -0.0000  -0.0000  -0.0000  -0.0000  -0.0000

          k = 0.1667 0.1667 0.3333 (  6622 PWs)   bands (ev):

   -56.5024 -56.5024 -56.4900 -56.4900 -56.4771 -56.4771 -56.4734 -56.4734
   -28.5868 -28.5822 -28.5741 -28.5725 -28.5434 -28.5407 -28.5088 -28.5081
   -27.6309 -27.6266 -27.5796 -27.5714 -27.5593 -27.5500 -27.5428 -27.5382
   -27.5154 -27.5023 -27.4798 -27.4697 -27.4674 -27.4558 -27.4352 -27.4336
     3.8118   3.8120   5.6524   5.6545   7.1828   7.1868   8.2391   8.2426
     9.3522   9.3546  10.2216  10.2240  10.9247  10.9284  11.4678  11.4711
    11.8291  11.8333  12.2176  12.2197  12.7508  12.7598  12.9444  12.9505
    13.0784  13.0870  13.1965  13.2050  13.2927  13.2962  13.5439  13.5507
    13.7622  13.7674  14.0127  14.0216  14.3520  14.3694  14.9066  14.9340
    15.1903  15.2054  15.2827  15.2926  15.5030  15.5176  15.7135  15.7343
    16.1660  16.1754  16.4532  16.4670  17.2174  17.2486

     occupation numbers 
     1.0000   1.0000   1.0000   1.0000   1.0000   1.0000   1.0000   1.0000
     1.0000   1.0000   1.0000   1.0000   1.0000   1.0000   1.0000   1.0000
     1.0000   1.0000   1.0000   1.0000   1.0000   1.0000   1.0000   1.0000
     1.0000   1.0000   1.0000   1.0000   1.0000   1.0000   1.0000   1.0000
     1.0000   1.0000   1.0000   1.0000   1.0000   1.0000   1.0000   1.0000
     1.0000   1.0000   1.0000   1.0000   1.0000   1.0000   1.0000   1.0000
     1.0000   1.0000   1.0000   1.0000   1.0000   1.0000   1.0000   1.0000
     1.0000   1.0000   1.0000   1.0000   1.0000   1.0000   1.0000   1.0000
     1.0000   1.0000   1.0000   1.0000   1.0039   1.0050   0.6376   0.5543
    -0.0073  -0.0167  -0.0354  -0.0353  -0.0073  -0.0061  -0.0003  -0.0002
    -0.0000  -0.0000  -0.0000  -0.0000  -0.0000  -0.0000

          k = 0.1667 0.1667-0.5000 (  6642 PWs)   bands (ev):

   -56.4963 -56.4963 -56.4963 -56.4963 -56.4751 -56.4751 -56.4751 -56.4751
   -28.5821 -28.5821 -28.5767 -28.5767 -28.5270 -28.5270 -28.5237 -28.5237
   -27.6286 -27.6286 -27.5701 -27.5701 -27.5611 -27.5611 -27.5316 -27.5316
   -27.5168 -27.5168 -27.4750 -27.4750 -27.4622 -27.4622 -27.4335 -27.4335
     4.6546   4.6546   4.6554   4.6554   7.7184   7.7184   7.7247   7.7247
     9.6726   9.6726   9.6739   9.6739  11.3991  11.3991  11.4073  11.4073
    11.8731  11.8731  11.8767  11.8767  12.7973  12.7973  12.8093  12.8093
    13.1815  13.1815  13.1920  13.1920  13.4176  13.4176  13.4217  13.4217
    13.9223  13.9223  13.9302  13.9302  14.6725  14.6725  14.7064  14.7064
    15.1626  15.1626  15.1827  15.1827  15.6039  15.6039  15.6266  15.6266
    16.2598  16.2598  16.2695  16.2695  17.5704  17.5714

     occupation numbers 
     1.0000   1.0000   1.0000   1.0000   1.0000   1.0000   1.0000   1.0000
     1.0000   1.0000   1.0000   1.0000   1.0000   1.0000   1.0000   1.0000
     1.0000   1.0000   1.0000   1.0000   1.0000   1.0000   1.0000   1.0000
     1.0000   1.0000   1.0000   1.0000   1.0000   1.0000   1.0000   1.0000
     1.0000   1.0000   1.0000   1.0000   1.0000   1.0000   1.0000   1.0000
     1.0000   1.0000   1.0000   1.0000   1.0000   1.0000   1.0000   1.0000
     1.0000   1.0000   1.0000   1.0000   1.0000   1.0000   1.0000   1.0000
     1.0000   1.0000   1.0000   1.0000   1.0000   1.0000   1.0000   1.0000
     1.0000   1.0000   1.0000   1.0000   1.0276   1.0276   1.0115   1.0115
     0.0164   0.0164  -0.0016  -0.0016  -0.0018  -0.0018  -0.0013  -0.0013
    -0.0000  -0.0000  -0.0000  -0.0000  -0.0000  -0.0000

          k = 0.1667 0.3333 0.3333 (  6612 PWs)   bands (ev):

   -56.4988 -56.4988 -56.4908 -56.4908 -56.4782 -56.4782 -56.4749 -56.4749
   -28.5822 -28.5785 -28.5706 -28.5697 -28.5421 -28.5398 -28.5192 -28.5181
   -27.6232 -27.6204 -27.5801 -27.5728 -27.5611 -27.5525 -27.5416 -27.5345
   -27.5187 -27.5095 -27.4860 -27.4778 -27.4616 -27.4501 -27.4344 -27.4311
     4.3284   4.3287   5.7582   5.7616   6.7215   6.7270   7.7769   7.7805
     9.2005   9.2039  10.0628  10.0664  10.9683  10.9705  11.5786  11.5828
    11.7447  11.7468  12.2590  12.2625  12.4932  12.4995  12.8111  12.8176
    13.1511  13.1553  13.2526  13.2648  13.3996  13.4070  13.6919  13.7071
    13.9168  13.9330  14.2281  14.2389  14.5640  14.5922  14.8635  14.8776
    14.9475  14.9586  15.1231  15.1499  15.4063  15.4090  15.5525  15.5680
    16.2283  16.2359  16.4575  16.4655  17.0971  17.1220

     occupation numbers 
     1.0000   1.0000   1.0000   1.0000   1.0000   1.0000   1.0000   1.0000
     1.0000   1.0000   1.0000   1.0000   1.0000   1.0000   1.0000   1.0000
     1.0000   1.0000   1.0000   1.0000   1.0000   1.0000   1.0000   1.0000
     1.0000   1.0000   1.0000   1.0000   1.0000   1.0000   1.0000   1.0000
     1.0000   1.0000   1.0000   1.0000   1.0000   1.0000   1.0000   1.0000
     1.0000   1.0000   1.0000   1.0000   1.0000   1.0000   1.0000   1.0000
     1.0000   1.0000   1.0000   1.0000   1.0000   1.0000   1.0000   1.0000
     1.0000   1.0000   1.0000   1.0000   1.0000   1.0000   1.0000   1.0000
     1.0000   1.0000   1.0006   1.0007   1.0309   1.0342   0.7584   0.7207
     0.5123   0.4778   0.0667   0.0304  -0.0198  -0.0194  -0.0038  -0.0031
    -0.0000  -0.0000  -0.0000  -0.0000  -0.0000  -0.0000

          k = 0.1667 0.3333-0.5000 (  6600 PWs)   bands (ev):

   -56.4943 -56.4943 -56.4943 -56.4943 -56.4771 -56.4771 -56.4771 -56.4771
   -28.5760 -28.5760 -28.5719 -28.5719 -28.5332 -28.5332 -28.5300 -28.5300
   -27.6171 -27.6171 -27.5809 -27.5809 -27.5567 -27.5567 -27.5327 -27.5327
   -27.5185 -27.5185 -27.4873 -27.4873 -27.4511 -27.4511 -27.4327 -27.4327
     5.1002   5.1002   5.1017   5.1017   7.0734   7.0734   7.0787   7.0787
     9.6227   9.6227   9.6264   9.6264  11.2869  11.2869  11.2887  11.2887
    11.9344  11.9344  11.9433  11.9433  12.5632  12.5632  12.5725  12.5725
    13.2651  13.2651  13.2712  13.2712  13.5484  13.5484  13.5634  13.5634
    14.2341  14.2341  14.2430  14.2430  14.7090  14.7090  14.7303  14.7303
    14.9619  14.9619  14.9797  14.9797  15.4432  15.4432  15.4601  15.4601
    16.3840  16.3840  16.3915  16.3915  17.1591  17.1598

     occupation numbers 
     1.0000   1.0000   1.0000   1.0000   1.0000   1.0000   1.0000   1.0000
     1.0000   1.0000   1.0000   1.0000   1.0000   1.0000   1.0000   1.0000
     1.0000   1.0000   1.0000   1.0000   1.0000   1.0000   1.0000   1.0000
     1.0000   1.0000   1.0000   1.0000   1.0000   1.0000   1.0000   1.0000
     1.0000   1.0000   1.0000   1.0000   1.0000   1.0000   1.0000   1.0000
     1.0000   1.0000   1.0000   1.0000   1.0000   1.0000   1.0000   1.0000
     1.0000   1.0000   1.0000   1.0000   1.0000   1.0000   1.0000   1.0000
     1.0000   1.0000   1.0000   1.0000   1.0000   1.0000   1.0000   1.0000
     1.0006   1.0006   1.0007   1.0007   1.0098   1.0098   0.9933   0.9933
     0.4676   0.4676   0.4127   0.4127  -0.0142  -0.0142  -0.0119  -0.0119
    -0.0000  -0.0000  -0.0000  -0.0000  -0.0000  -0.0000

          k = 0.1667-0.5000-0.5000 (  6576 PWs)   bands (ev):

   -56.4931 -56.4931 -56.4931 -56.4931 -56.4782 -56.4782 -56.4782 -56.4782
   -28.5706 -28.5706 -28.5705 -28.5705 -28.5354 -28.5354 -28.5352 -28.5352
   -27.6031 -27.6031 -27.5962 -27.5962 -27.5510 -27.5510 -27.5367 -27.5367
   -27.5129 -27.5129 -27.4980 -27.4980 -27.4419 -27.4419 -27.4360 -27.4360
     5.5079   5.5079   5.5094   5.5094   6.5307   6.5307   6.5333   6.5333
     9.8344   9.8344   9.8385   9.8385  10.8959  10.8959  10.8981  10.8981
    12.1892  12.1892  12.1918  12.1918  12.3742  12.3742  12.3773  12.3773
    13.2216  13.2216  13.2223  13.2223  13.7556  13.7556  13.7695  13.7695
    14.3909  14.3909  14.3979  14.3979  14.6955  14.6955  14.7129  14.7129
    14.8369  14.8369  14.8388  14.8388  15.3653  15.3653  15.3655  15.3655
    16.4848  16.4849  16.4864  16.4864  16.9515  16.9536

     occupation numbers 
     1.0000   1.0000   1.0000   1.0000   1.0000   1.0000   1.0000   1.0000
     1.0000   1.0000   1.0000   1.0000   1.0000   1.0000   1.0000   1.0000
     1.0000   1.0000   1.0000   1.0000   1.0000   1.0000   1.0000   1.0000
     1.0000   1.0000   1.0000   1.0000   1.0000   1.0000   1.0000   1.0000
     1.0000   1.0000   1.0000   1.0000   1.0000   1.0000   1.0000   1.0000
     1.0000   1.0000   1.0000   1.0000   1.0000   1.0000   1.0000   1.0000
     1.0000   1.0000   1.0000   1.0000   1.0000   1.0000   1.0000   1.0000
     1.0000   1.0000   1.0000   1.0000   1.0000   1.0000   1.0000   1.0000
     1.0065   1.0065   1.0071   1.0071   1.0178   1.0178   1.0072   1.0072
     0.8237   0.8237   0.8194   0.8194  -0.0267  -0.0267  -0.0267  -0.0267
    -0.0000  -0.0000  -0.0000  -0.0000  -0.0000  -0.0000

          k = 0.3333 0.3333 0.3333 (  6641 PWs)   bands (ev):

   -56.4956 -56.4956 -56.4900 -56.4900 -56.4801 -56.4801 -56.4771 -56.4771
   -28.5768 -28.5736 -28.5658 -28.5657 -28.5449 -28.5430 -28.5285 -28.5270
   -27.6157 -27.6120 -27.5789 -27.5689 -27.5687 -27.5672 -27.5456 -27.5325
   -27.5221 -27.5020 -27.4818 -27.4634 -27.4632 -27.4626 -27.4366 -27.4333
     4.8145   4.8149   5.9667   5.9732   6.6628   6.6732   7.5020   7.5046
     8.7483   8.7533   9.4978   9.5042  10.5491  10.5536  11.1928  11.1947
    12.0053  12.0070  12.4958  12.4989  12.7672  12.7713  12.8474  12.8491
    13.1367  13.1485  13.1945  13.2013  13.2641  13.2664  13.5430  13.5462
    14.1381  14.1427  14.4898  14.4981  14.7902  14.8270  14.8484  14.8601
    14.9937  15.0046  15.1350  15.1409  15.2611  15.2881  15.4113  15.4305
    16.2525  16.2595  16.3867  16.3895  16.9530  16.9613

     occupation numbers 
     1.0000   1.0000   1.0000   1.0000   1.0000   1.0000   1.0000   1.0000
     1.0000   1.0000   1.0000   1.0000   1.0000   1.0000   1.0000   1.0000
     1.0000   1.0000   1.0000   1.0000   1.0000   1.0000   1.0000   1.0000
     1.0000   1.0000   1.0000   1.0000   1.0000   1.0000   1.0000   1.0000
     1.0000   1.0000   1.0000   1.0000   1.0000   1.0000   1.0000   1.0000
     1.0000   1.0000   1.0000   1.0000   1.0000   1.0000   1.0000   1.0000
     1.0000   1.0000   1.0000   1.0000   1.0000   1.0000   1.0000   1.0000
     1.0000   1.0000   1.0000   1.0000   1.0000   1.0000   1.0000   1.0000
     1.0001   1.0001   1.0187   1.0200   0.9167   0.8459   0.7966   0.7673
     0.3704   0.3382   0.0494   0.0415  -0.0342  -0.0354  -0.0190  -0.0160
    -0.0000  -0.0000  -0.0000  -0.0000  -0.0000  -0.0000

          k = 0.3333 0.3333-0.5000 (  6610 PWs)   bands (ev):

   -56.4918 -56.4918 -56.4918 -56.4918 -56.4796 -56.4796 -56.4796 -56.4796
   -28.5698 -28.5698 -28.5662 -28.5662 -28.5402 -28.5402 -28.5370 -28.5370
   -27.6078 -27.6078 -27.5790 -27.5790 -27.5686 -27.5686 -27.5422 -27.5422
   -27.5075 -27.5075 -27.4759 -27.4759 -27.4575 -27.4575 -27.4375 -27.4375
     5.5137   5.5137   5.5156   5.5156   6.9762   6.9762   6.9820   6.9820
     9.0502   9.0502   9.0561   9.0561  10.5631  10.5631  10.5660  10.5660
    12.3836  12.3836  12.3920  12.3920  12.8171  12.8171  12.8248  12.8248
    13.1312  13.1312  13.1421  13.1421  13.3759  13.3759  13.3843  13.3843
    14.4639  14.4639  14.4722  14.4722  14.8590  14.8590  14.8747  14.8747
    15.0787  15.0787  15.0980  15.0980  15.2946  15.2946  15.3108  15.3108
    16.3287  16.3287  16.3382  16.3382  16.9270  16.9291

     occupation numbers 
     1.0000   1.0000   1.0000   1.0000   1.0000   1.0000   1.0000   1.0000
     1.0000   1.0000   1.0000   1.0000   1.0000   1.0000   1.0000   1.0000
     1.0000   1.0000   1.0000   1.0000   1.0000   1.0000   1.0000   1.0000
     1.0000   1.0000   1.0000   1.0000   1.0000   1.0000   1.0000   1.0000
     1.0000   1.0000   1.0000   1.0000   1.0000   1.0000   1.0000   1.0000
     1.0000   1.0000   1.0000   1.0000   1.0000   1.0000   1.0000   1.0000
     1.0000   1.0000   1.0000   1.0000   1.0000   1.0000   1.0000   1.0000
     1.0000   1.0000   1.0000   1.0000   1.0000   1.0000   1.0000   1.0000
     1.0147   1.0147   1.0160   1.0160   0.7700   0.7700   0.7286   0.7286
     0.1484   0.1484   0.1097   0.1097  -0.0353  -0.0353  -0.0342  -0.0342
    -0.0000  -0.0000  -0.0000  -0.0000  -0.0000  -0.0000

          k = 0.3333-0.5000-0.5000 (  6636 PWs)   bands (ev):

   -56.4900 -56.4900 -56.4900 -56.4900 -56.4814 -56.4814 -56.4814 -56.4814
   -28.5640 -28.5640 -28.5637 -28.5637 -28.5437 -28.5437 -28.5433 -28.5433
   -27.5972 -27.5972 -27.5888 -27.5888 -27.5689 -27.5689 -27.5466 -27.5466
   -27.4999 -27.4999 -27.4779 -27.4779 -27.4525 -27.4525 -27.4443 -27.4443
     5.8921   5.8921   5.8951   5.8951   6.6648   6.6648   6.6703   6.6703
     9.0936   9.0936   9.1002   9.1002  10.0571  10.0571  10.0612  10.0612
    12.6127  12.6127  12.6167  12.6167  12.7982  12.7982  12.8003  12.8003
    13.0411  13.0411  13.0412  13.0412  13.3505  13.3505  13.3612  13.3612
    14.6544  14.6544  14.6620  14.6620  14.9707  14.9707  14.9782  14.9782
    15.0628  15.0628  15.0683  15.0683  15.2533  15.2533  15.2651  15.2651
    16.3658  16.3658  16.3671  16.3671  16.7184  16.7190

     occupation numbers 
     1.0000   1.0000   1.0000   1.0000   1.0000   1.0000   1.0000   1.0000
     1.0000   1.0000   1.0000   1.0000   1.0000   1.0000   1.0000   1.0000
     1.0000   1.0000   1.0000   1.0000   1.0000   1.0000   1.0000   1.0000
     1.0000   1.0000   1.0000   1.0000   1.0000   1.0000   1.0000   1.0000
     1.0000   1.0000   1.0000   1.0000   1.0000   1.0000   1.0000   1.0000
     1.0000   1.0000   1.0000   1.0000   1.0000   1.0000   1.0000   1.0000
     1.0000   1.0000   1.0000   1.0000   1.0000   1.0000   1.0000   1.0000
     1.0000   1.0000   1.0000   1.0000   1.0000   1.0000   1.0000   1.0000
     1.0322   1.0322   1.0305   1.0305   0.4403   0.4403   0.4173   0.4173
     0.1839   0.1839   0.1712   0.1712  -0.0331  -0.0331  -0.0346  -0.0346
    -0.0000  -0.0000  -0.0000  -0.0000  -0.0000  -0.0000

          k =-0.5000-0.5000-0.5000 (  6704 PWs)   bands (ev):

   -56.4857 -56.4857 -56.4857 -56.4857 -56.4857 -56.4857 -56.4857 -56.4857
   -28.5548 -28.5548 -28.5539 -28.5539 -28.5539 -28.5539 -28.5539 -28.5539
   -27.5852 -27.5852 -27.5852 -27.5852 -27.5852 -27.5852 -27.5509 -27.5509
   -27.4930 -27.4930 -27.4592 -27.4592 -27.4592 -27.4592 -27.4592 -27.4592
     6.3990   6.3990   6.3990   6.3990   6.3990   6.3990   6.4093   6.4093
     9.2382   9.2382   9.2506   9.2506   9.2506   9.2506   9.2506   9.2506
    12.9159  12.9159  12.9224  12.9224  12.9224  12.9224  12.9224  12.9224
    12.9990  12.9990  13.0037  13.0037  13.0037  13.0037  13.0037  13.0037
    14.9322  14.9322  14.9341  14.9341  14.9341  14.9341  14.9341  14.9341
    15.2349  15.2349  15.2349  15.2349  15.2349  15.2349  15.2780  15.2780
    16.4083  16.4092  16.4205  16.4205  16.4205  16.4205

     occupation numbers 
     1.0000   1.0000   1.0000   1.0000   1.0000   1.0000   1.0000   1.0000
     1.0000   1.0000   1.0000   1.0000   1.0000   1.0000   1.0000   1.0000
     1.0000   1.0000   1.0000   1.0000   1.0000   1.0000   1.0000   1.0000
     1.0000   1.0000   1.0000   1.0000   1.0000   1.0000   1.0000   1.0000
     1.0000   1.0000   1.0000   1.0000   1.0000   1.0000   1.0000   1.0000
     1.0000   1.0000   1.0000   1.0000   1.0000   1.0000   1.0000   1.0000
     1.0000   1.0000   1.0000   1.0000   1.0000   1.0000   1.0000   1.0000
     1.0000   1.0000   1.0000   1.0000   1.0000   1.0000   1.0000   1.0000
     0.5599   0.5599   0.5540   0.5540   0.5540   0.5540   0.5540   0.5540
    -0.0289  -0.0289  -0.0289  -0.0289  -0.0289  -0.0289  -0.0354  -0.0354
    -0.0000  -0.0000  -0.0000  -0.0000  -0.0000  -0.0000

          k = 0.0000 0.3333 0.1667 (  6618 PWs)   bands (ev):

   -56.5037 -56.5037 -56.4901 -56.4901 -56.4761 -56.4761 -56.4729 -56.4729
   -28.5881 -28.5831 -28.5768 -28.5750 -28.5425 -28.5397 -28.5050 -28.5042
   -27.6342 -27.6288 -27.5778 -27.5768 -27.5594 -27.5471 -27.5416 -27.5329
   -27.5203 -27.4942 -27.4837 -27.4725 -27.4633 -27.4521 -27.4388 -27.4355
     3.6328   3.6329   5.5375   5.5385   7.3651   7.3663   8.4326   8.4391
     9.7432   9.7457  10.2566  10.2628  10.9713  10.9744  11.0973  11.0999
    11.8630  11.8653  12.2420  12.2460  12.7971  12.8022  12.9751  12.9803
    13.0657  13.0720  13.2440  13.2503  13.3401  13.3448  13.4881  13.4928
    13.5381  13.5405  13.9658  13.9758  14.2292  14.2412  14.8895  14.9214
    15.2773  15.2956  15.3374  15.3544  15.6452  15.6728  15.7843  15.8101
    16.1545  16.1669  16.4218  16.4360  17.2710  17.3008

     occupation numbers 
     1.0000   1.0000   1.0000   1.0000   1.0000   1.0000   1.0000   1.0000
     1.0000   1.0000   1.0000   1.0000   1.0000   1.0000   1.0000   1.0000
     1.0000   1.0000   1.0000   1.0000   1.0000   1.0000   1.0000   1.0000
     1.0000   1.0000   1.0000   1.0000   1.0000   1.0000   1.0000   1.0000
     1.0000   1.0000   1.0000   1.0000   1.0000   1.0000   1.0000   1.0000
     1.0000   1.0000   1.0000   1.0000   1.0000   1.0000   1.0000   1.0000
     1.0000   1.0000   1.0000   1.0000   1.0000   1.0000   1.0000   1.0000
     1.0000   1.0000   1.0000   1.0000   1.0000   1.0000   1.0000   1.0000
     1.0000   1.0000   1.0000   1.0000   1.0006   1.0007   0.6874   0.5929
    -0.0353  -0.0352  -0.0311  -0.0285  -0.0009  -0.0006  -0.0001  -0.0000
    -0.0000  -0.0000  -0.0000  -0.0000  -0.0000  -0.0000

          k = 0.0000-0.5000 0.1667 (  6630 PWs)   bands (ev):

   -56.4971 -56.4971 -56.4971 -56.4971 -56.4743 -56.4743 -56.4743 -56.4743
   -28.5843 -28.5843 -28.5788 -28.5788 -28.5240 -28.5240 -28.5212 -28.5212
   -27.6326 -27.6326 -27.5709 -27.5709 -27.5580 -27.5580 -27.5330 -27.5330
   -27.5108 -27.5108 -27.4787 -27.4787 -27.4591 -27.4591 -27.4362 -27.4362
     4.4931   4.4931   4.4936   4.4936   7.8971   7.8971   7.9018   7.9018
    10.1027  10.1027  10.1077  10.1077  10.8750  10.8750  10.8822  10.8822
    12.1415  12.1415  12.1464  12.1464  12.8621  12.8621  12.8712  12.8712
    13.1083  13.1083  13.1163  13.1163  13.3969  13.3969  13.4061  13.4061
    13.8074  13.8074  13.8128  13.8128  14.6072  14.6072  14.6382  14.6382
    15.2591  15.2591  15.2814  15.2814  15.6831  15.6831  15.7115  15.7115
    16.2154  16.2154  16.2271  16.2271  17.5919  17.5927

     occupation numbers 
     1.0000   1.0000   1.0000   1.0000   1.0000   1.0000   1.0000   1.0000
     1.0000   1.0000   1.0000   1.0000   1.0000   1.0000   1.0000   1.0000
     1.0000   1.0000   1.0000   1.0000   1.0000   1.0000   1.0000   1.0000
     1.0000   1.0000   1.0000   1.0000   1.0000   1.0000   1.0000   1.0000
     1.0000   1.0000   1.0000   1.0000   1.0000   1.0000   1.0000   1.0000
     1.0000   1.0000   1.0000   1.0000   1.0000   1.0000   1.0000   1.0000
     1.0000   1.0000   1.0000   1.0000   1.0000   1.0000   1.0000   1.0000
     1.0000   1.0000   1.0000   1.0000   1.0000   1.0000   1.0000   1.0000
     1.0000   1.0000   1.0000   1.0000   1.0352   1.0352   1.0345   1.0345
    -0.0339  -0.0339  -0.0354  -0.0354  -0.0005  -0.0005  -0.0003  -0.0003
    -0.0000  -0.0000  -0.0000  -0.0000  -0.0000  -0.0000

          k = 0.0000-0.5000 0.3333 (  6604 PWs)   bands (ev):

   -56.4953 -56.4953 -56.4953 -56.4953 -56.4761 -56.4761 -56.4761 -56.4761
   -28.5784 -28.5784 -28.5741 -28.5741 -28.5303 -28.5303 -28.5272 -28.5272
   -27.6205 -27.6205 -27.5825 -27.5825 -27.5493 -27.5493 -27.5301 -27.5301
   -27.5199 -27.5199 -27.4970 -27.4970 -27.4463 -27.4463 -27.4319 -27.4319
     4.9491   4.9491   4.9500   4.9500   7.0319   7.0319   7.0343   7.0343
    10.5072  10.5072  10.5106  10.5106  10.8273  10.8273  10.8295  10.8295
    11.9940  11.9940  11.9994  11.9994  12.4097  12.4097  12.4202  12.4202
    13.2673  13.2673  13.2737  13.2737  13.9140  13.9140  13.9205  13.9205
    13.9557  13.9557  13.9689  13.9689  14.6427  14.6427  14.6762  14.6762
    14.9022  14.9022  14.9380  14.9380  15.4791  15.4791  15.5022  15.5022
    16.3860  16.3860  16.3979  16.3979  17.2940  17.3002

     occupation numbers 
     1.0000   1.0000   1.0000   1.0000   1.0000   1.0000   1.0000   1.0000
     1.0000   1.0000   1.0000   1.0000   1.0000   1.0000   1.0000   1.0000
     1.0000   1.0000   1.0000   1.0000   1.0000   1.0000   1.0000   1.0000
     1.0000   1.0000   1.0000   1.0000   1.0000   1.0000   1.0000   1.0000
     1.0000   1.0000   1.0000   1.0000   1.0000   1.0000   1.0000   1.0000
     1.0000   1.0000   1.0000   1.0000   1.0000   1.0000   1.0000   1.0000
     1.0000   1.0000   1.0000   1.0000   1.0000   1.0000   1.0000   1.0000
     1.0000   1.0000   1.0000   1.0000   1.0000   1.0000   1.0000   1.0000
     1.0000   1.0000   1.0000   1.0000   1.0340   1.0340   1.0263   1.0263
     0.6507   0.6507   0.5418   0.5418  -0.0097  -0.0097  -0.0074  -0.0074
    -0.0000  -0.0000  -0.0000  -0.0000  -0.0000  -0.0000

          k =-0.1667-0.5000 0.3333 (  6600 PWs)   bands (ev):

   -56.4943 -56.4943 -56.4943 -56.4943 -56.4771 -56.4771 -56.4771 -56.4771
   -28.5760 -28.5760 -28.5718 -28.5718 -28.5333 -28.5333 -28.5299 -28.5299
   -27.6172 -27.6172 -27.5804 -27.5804 -27.5571 -27.5571 -27.5324 -27.5324
   -27.5190 -27.5190 -27.4871 -27.4871 -27.4510 -27.4510 -27.4327 -27.4327
     5.0999   5.0999   5.1011   5.1011   7.0753   7.0753   7.0792   7.0792
     9.6362   9.6362   9.6390   9.6390  11.1976  11.1976  11.2007  11.2007
    11.9966  11.9966  12.0032  12.0032  12.6308  12.6308  12.6411  12.6411
    13.1717  13.1717  13.1797  13.1797  13.6494  13.6494  13.6611  13.6611
    14.1694  14.1694  14.1787  14.1787  14.7156  14.7156  14.7408  14.7408
    14.9611  14.9611  14.9924  14.9924  15.4237  15.4237  15.4408  15.4408
    16.3554  16.3554  16.3662  16.3662  17.2149  17.2168

     occupation numbers 
     1.0000   1.0000   1.0000   1.0000   1.0000   1.0000   1.0000   1.0000
     1.0000   1.0000   1.0000   1.0000   1.0000   1.0000   1.0000   1.0000
     1.0000   1.0000   1.0000   1.0000   1.0000   1.0000   1.0000   1.0000
     1.0000   1.0000   1.0000   1.0000   1.0000   1.0000   1.0000   1.0000
     1.0000   1.0000   1.0000   1.0000   1.0000   1.0000   1.0000   1.0000
     1.0000   1.0000   1.0000   1.0000   1.0000   1.0000   1.0000   1.0000
     1.0000   1.0000   1.0000   1.0000   1.0000   1.0000   1.0000   1.0000
     1.0000   1.0000   1.0000   1.0000   1.0000   1.0000   1.0000   1.0000
     1.0002   1.0002   1.0002   1.0002   1.0053   1.0053   0.9832   0.9832
     0.4700   0.4700   0.3743   0.3743  -0.0170  -0.0170  -0.0145  -0.0145
    -0.0000  -0.0000  -0.0000  -0.0000  -0.0000  -0.0000

     the Fermi energy is    14.9515 ev

!    total energy              =   -1180.34410374 Ry

     total all-electron energy =    -10727.804940 Ry
     estimated scf accuracy    <       0.00000005 Ry
     smearing contrib. (-TS)   =      -0.00131167 Ry
     internal energy E=F+TS    =   -1180.34279207 Ry

     The total energy is F=E-TS. E is the sum of the following terms:
     one-electron contribution =    -336.79048945 Ry
     hartree contribution      =     207.03543827 Ry
     xc contribution           =    -114.35868597 Ry
     ewald contribution        =    -496.51183961 Ry
     one-center paw contrib.   =    -439.71721531 Ry
      -> PAW hartree energy AE =     126.67431146 Ry
      -> PAW hartree energy PS =    -125.70810988 Ry
      -> PAW xc energy AE      =     -96.23282157 Ry
      -> PAW xc energy PS      =      20.92753547 Ry
      -> total E_H with PAW    =     208.00163985 Ry
      -> total E_XC with PAW   =    -189.66397207 Ry

     convergence has been achieved in   8 iterations

     Writing output data file /zfs_data/vergnior/martin/Scratch/OAL/CrSi/convergence/cutoff/6x6x6/70/tmp/CrSi.save/
 
     init_run     :      3.11s CPU      3.27s WALL (       1 calls)
     electrons    :     78.53s CPU     81.26s WALL (       1 calls)

     Called by init_run:
     wfcinit      :      2.23s CPU      2.33s WALL (       1 calls)
     wfcinit:atom :      0.02s CPU      0.02s WALL (      24 calls)
     wfcinit:wfcr :      2.13s CPU      2.21s WALL (      24 calls)
     potinit      :      0.16s CPU      0.17s WALL (       1 calls)
     hinit0       :      0.15s CPU      0.16s WALL (       1 calls)

     Called by electrons:
     c_bands      :     61.43s CPU     62.93s WALL (       9 calls)
     sum_band     :     12.76s CPU     13.53s WALL (       9 calls)
     v_of_rho     :      0.14s CPU      0.15s WALL (       9 calls)
     v_h          :      0.01s CPU      0.01s WALL (       9 calls)
     v_xc         :      0.13s CPU      0.14s WALL (       9 calls)
     newd         :      3.43s CPU      3.87s WALL (       9 calls)
     PAW_pot      :      1.12s CPU      1.13s WALL (       9 calls)
     mix_rho      :      0.09s CPU      0.09s WALL (       9 calls)

     Called by c_bands:
     init_us_2    :      0.33s CPU      0.34s WALL (     456 calls)
     cegterg      :     55.76s CPU     57.21s WALL (     216 calls)

     Called by sum_band:
     sum_band:wei :      0.03s CPU      0.03s WALL (       9 calls)
     sum_band:loo :     10.62s CPU     10.85s WALL (       9 calls)
     sum_band:buf :      0.10s CPU      0.10s WALL (     216 calls)
     sum_band:ini :      0.16s CPU      0.16s WALL (     216 calls)
     sum_band:cal :      0.92s CPU      0.92s WALL (     216 calls)
     sum_band:bec :      2.74s CPU      2.75s WALL (     216 calls)
     addusdens    :      2.04s CPU      2.58s WALL (       9 calls)
     addusd:skk   :      0.00s CPU      0.01s WALL (      18 calls)
     addusd:dgemm :      0.80s CPU      1.31s WALL (      18 calls)
     addusd:qvan2 :      1.21s CPU      1.22s WALL (      18 calls)

     Called by *egterg:
     cdiaghg      :      7.94s CPU      8.02s WALL (    1151 calls)
     cegterg:over :      2.79s CPU      2.81s WALL (     959 calls)
     cegterg:upda :      1.49s CPU      1.50s WALL (     959 calls)
     cegterg:last :      2.63s CPU      2.65s WALL (     552 calls)
     h_psi        :     34.38s CPU     35.78s WALL (    1199 calls)
     s_psi        :      7.10s CPU      7.12s WALL (    1199 calls)
     g_psi        :      0.10s CPU      0.10s WALL (     959 calls)

     Called by h_psi:
     h_psi:calbec :      3.04s CPU      3.09s WALL (    1199 calls)
     vloc_psi     :     24.59s CPU     25.89s WALL (    1199 calls)
     add_vuspsi   :      6.57s CPU      6.62s WALL (    1199 calls)

     General routines
     calbec       :      3.95s CPU      4.00s WALL (    1415 calls)
     fft          :      0.12s CPU      0.13s WALL (     188 calls)
     ffts         :      0.01s CPU      0.01s WALL (      72 calls)
     fftw         :     21.65s CPU     22.71s WALL (  281468 calls)
     interpolate  :      0.03s CPU      0.03s WALL (      36 calls)
 
     Parallel routines
     fft_scatt_xy :      2.38s CPU      2.50s WALL (  281728 calls)
     fft_scatt_yz :     12.73s CPU     13.33s WALL (  281728 calls)

     PAW routines
     PAW_pot      :      1.12s CPU      1.13s WALL (       9 calls)
     PAW_symme    :      0.02s CPU      0.02s WALL (      18 calls)
 
     PWSCF        :   1m24.49s CPU   1m28.18s WALL

 
   This run was terminated on:  18:37:38  30Jul2021            

=------------------------------------------------------------------------------=
   JOB DONE.
=------------------------------------------------------------------------------=
