
     Program PWSCF v.6.7MaX starts on 18May2022 at 17:44: 3 

     This program is part of the open-source Quantum ESPRESSO suite
     for quantum simulation of materials; please cite
         "P. Giannozzi et al., J. Phys.:Condens. Matter 21 395502 (2009);
         "P. Giannozzi et al., J. Phys.:Condens. Matter 29 465901 (2017);
          URL http://www.quantum-espresso.org", 
     in publications or presentations arising from this work. More details at
     http://www.quantum-espresso.org/quote

     Parallel version (MPI), running on    48 processors

     MPI processes distributed on     1 nodes
     R & G space division:  proc/nbgrp/npool/nimage =      48
     Waiting for input...
     Reading input from standard input

     Current dimensions of program PWSCF are:
     Max number of different atomic species (ntypx) = 10
     Max number of k-points (npk) =  40000
     Max angular momentum in pseudopotentials (lmaxx) =  3
     file O.pbe-nl-kjpaw_psl.1.0.0.UPF: wavefunction(s)  2S 2P renormalized
     file Cl.pbe-nl-kjpaw_psl.1.0.0.UPF: wavefunction(s)  3S renormalized
     file Nb.pbe-spn-kjpaw_psl.1.0.0.UPF: wavefunction(s)  4S 4P 4D renormalized

     Subspace diagonalization in iterative solution of the eigenvalue problem:
     a serial algorithm will be used

     Message from routine setup:
     using ibrav=0 with symmetry is DISCOURAGED, use correct ibrav instead
 
     Parallelization info
     --------------------
     sticks:   dense  smooth     PW     G-vecs:    dense   smooth      PW
     Min         226      90     28                 8011     2025     357
     Max         227      91     29                 8013     2026     359
     Sum       10861    4353   1363               384583    97215   17183
 


     bravais-lattice index     =            0
     lattice parameter (alat)  =      12.6717  a.u.
     unit-cell volume          =     547.9313 (a.u.)^3
     number of atoms/cell      =            4
     number of atomic types    =            3
     number of electrons       =        33.00
     number of Kohn-Sham states=           21
     kinetic-energy cutoff     =     120.0000  Ry
     charge density cutoff     =    1200.0000  Ry
     scf convergence threshold =      1.0E-10
     mixing beta               =       0.7000
     number of iterations used =            8  plain     mixing
     Exchange-correlation= SLA  PW   PBX  PBC
                           (   1   4   3   4   0   0   0)

     celldm(1)=  12.671676  celldm(2)=   0.000000  celldm(3)=   0.000000
     celldm(4)=   0.000000  celldm(5)=   0.000000  celldm(6)=   0.000000

     crystal axes: (cart. coord. in units of alat)
               a(1) = (  -0.250426   0.291161   0.923316 )  
               a(2) = (   0.250426  -0.291161   0.923316 )  
               a(3) = (   0.250426   0.291161  -0.923316 )  

     reciprocal axes: (cart. coord. in units 2 pi/alat)
               b(1) = (  0.000000  1.717261  0.541527 )  
               b(2) = (  1.996594  0.000000  0.541527 )  
               b(3) = (  1.996594  1.717261  0.000000 )  


     PseudoPot. # 1 for O  read from file:
     /zfs_data/gutierre/Scratch/Cl2NbO/smearing/14x14x14/0.020/pseudo/O.pbe-nl-kjpaw_psl.1.0.0.UPF
     MD5 check sum: df3ddea38124b4e5de5e1084591730e4
     Pseudo is Projector augmented-wave + core cor, Zval =  6.0
     Generated using 'atomic' code by A. Dal Corso  v.6.7MaX
     Shape of augmentation charge: PSQ
     Using radial grid of 1095 points,  4 beta functions with: 
                l(1) =   0
                l(2) =   0
                l(3) =   1
                l(4) =   1
     Q(r) pseudized with 0 coefficients 


     PseudoPot. # 2 for Cl read from file:
     /zfs_data/gutierre/Scratch/Cl2NbO/smearing/14x14x14/0.020/pseudo/Cl.pbe-nl-kjpaw_psl.1.0.0.UPF
     MD5 check sum: 8cf6bde52c08f6236e0f72a8870677af
     Pseudo is Projector augmented-wave + core cor, Zval =  7.0
     Generated using 'atomic' code by A. Dal Corso  v.6.7MaX
     Shape of augmentation charge: PSQ
     Using radial grid of 1157 points,  4 beta functions with: 
                l(1) =   0
                l(2) =   0
                l(3) =   1
                l(4) =   1
     Q(r) pseudized with 0 coefficients 


     PseudoPot. # 3 for Nb read from file:
     /zfs_data/gutierre/Scratch/Cl2NbO/smearing/14x14x14/0.020/pseudo/Nb.pbe-spn-kjpaw_psl.1.0.0.UPF
     MD5 check sum: 1ec1a3aa7bf3cbf7f7e0d720422bce7a
     Pseudo is Projector augmented-wave + core cor, Zval = 13.0
     Generated using 'atomic' code by A. Dal Corso  v.6.7MaX
     Shape of augmentation charge: PSQ
     Using radial grid of 1227 points,  6 beta functions with: 
                l(1) =   0
                l(2) =   0
                l(3) =   1
                l(4) =   1
                l(5) =   2
                l(6) =   2
     Q(r) pseudized with 0 coefficients 


     atomic species   valence    mass     pseudopotential
        O              6.00    15.99940     O ( 1.00)
        Cl             7.00    35.45150     Cl( 1.00)
        Nb            13.00    92.90637     Nb( 1.00)

      8 Sym. Ops., with inversion, found


                                    s                        frac. trans.

      isym =  1     identity                                     

 cryst.   s( 1) = (     1          0          0      )
                  (     0          1          0      )
                  (     0          0          1      )

 cart.    s( 1) = (  1.0000000  0.0000000  0.0000000 )
                  (  0.0000000  1.0000000  0.0000000 )
                  (  0.0000000  0.0000000  1.0000000 )


      isym =  2     180 deg rotation - cart. axis [0,0,1]        

 cryst.   s( 2) = (     0          1          0      )
                  (     1          0          0      )
                  (    -1         -1         -1      )

 cart.    s( 2) = ( -1.0000000  0.0000000  0.0000000 )
                  (  0.0000000 -1.0000000  0.0000000 )
                  (  0.0000000  0.0000000  1.0000000 )


      isym =  3     180 deg rotation - cart. axis [0,1,0]        

 cryst.   s( 3) = (     0          0          1      )
                  (    -1         -1         -1      )
                  (     1          0          0      )

 cart.    s( 3) = ( -1.0000000  0.0000000  0.0000000 )
                  (  0.0000000  1.0000000  0.0000000 )
                  (  0.0000000  0.0000000 -1.0000000 )


      isym =  4     180 deg rotation - cart. axis [1,0,0]        

 cryst.   s( 4) = (    -1         -1         -1      )
                  (     0          0          1      )
                  (     0          1          0      )

 cart.    s( 4) = (  1.0000000  0.0000000  0.0000000 )
                  (  0.0000000 -1.0000000  0.0000000 )
                  (  0.0000000  0.0000000 -1.0000000 )


      isym =  5     inversion                                    

 cryst.   s( 5) = (    -1          0          0      )
                  (     0         -1          0      )
                  (     0          0         -1      )

 cart.    s( 5) = ( -1.0000000  0.0000000  0.0000000 )
                  (  0.0000000 -1.0000000  0.0000000 )
                  (  0.0000000  0.0000000 -1.0000000 )


      isym =  6     inv. 180 deg rotation - cart. axis [0,0,1]   

 cryst.   s( 6) = (     0         -1          0      )
                  (    -1          0          0      )
                  (     1          1          1      )

 cart.    s( 6) = (  1.0000000  0.0000000  0.0000000 )
                  (  0.0000000  1.0000000  0.0000000 )
                  (  0.0000000  0.0000000 -1.0000000 )


      isym =  7     inv. 180 deg rotation - cart. axis [0,1,0]   

 cryst.   s( 7) = (     0          0         -1      )
                  (     1          1          1      )
                  (    -1          0          0      )

 cart.    s( 7) = (  1.0000000  0.0000000  0.0000000 )
                  (  0.0000000 -1.0000000  0.0000000 )
                  (  0.0000000  0.0000000  1.0000000 )


      isym =  8     inv. 180 deg rotation - cart. axis [1,0,0]   

 cryst.   s( 8) = (     1          1          1      )
                  (     0          0         -1      )
                  (     0         -1          0      )

 cart.    s( 8) = ( -1.0000000  0.0000000  0.0000000 )
                  (  0.0000000  1.0000000  0.0000000 )
                  (  0.0000000  0.0000000  1.0000000 )


   Cartesian axes

     site n.     atom                  positions (alat units)
         1           O   tau(   1) = (   0.0000000   0.2911613   0.0000000  )
         2           Cl  tau(   2) = (  -0.0000000   0.2911613   0.6365338  )
         3           Cl  tau(   3) = (   0.2504264  -0.0000000   0.2867819  )
         4           Nb  tau(   4) = (   0.0000000   0.0000000   0.0000000  )

   Crystallographic axes

     site n.     atom                  positions (cryst. coord.)
         1           O   tau(   1) = (  0.5000000  0.0000000  0.5000000  )
         2           Cl  tau(   2) = (  0.8447000  0.3447000  0.5000000  )
         3           Cl  tau(   3) = (  0.1553000  0.6553000  0.5000000  )
         4           Nb  tau(   4) = (  0.0000000  0.0000000  0.0000000  )

     number of k points=   428  Methfessel-Paxton smearing, width (Ry)=  0.0200
                       cart. coord. in units 2pi/alat
        k(    1) = (   0.0000000   0.0000000   0.0000000), wk =   0.0007289
        k(    2) = (   0.1426139   0.1226615   0.0000000), wk =   0.0029155
        k(    3) = (   0.2852278   0.2453230   0.0000000), wk =   0.0029155
        k(    4) = (   0.4278416   0.3679846   0.0000000), wk =   0.0029155
        k(    5) = (   0.5704555   0.4906461   0.0000000), wk =   0.0029155
        k(    6) = (   0.7130694   0.6133076   0.0000000), wk =   0.0029155
        k(    7) = (   0.8556833   0.7359691   0.0000000), wk =   0.0029155
        k(    8) = (  -0.9982971  -0.8586307   0.0000000), wk =   0.0014577
        k(    9) = (   0.1426139   0.0000000   0.0386805), wk =   0.0029155
        k(   10) = (   0.2852278   0.1226615   0.0386805), wk =   0.0058309
        k(   11) = (   0.4278416   0.2453230   0.0386805), wk =   0.0058309
        k(   12) = (   0.5704555   0.3679846   0.0386805), wk =   0.0058309
        k(   13) = (   0.7130694   0.4906461   0.0386805), wk =   0.0058309
        k(   14) = (   0.8556833   0.6133076   0.0386805), wk =   0.0058309
        k(   15) = (   0.9982971   0.7359691   0.0386805), wk =   0.0058309
        k(   16) = (  -0.8556833  -0.8586307   0.0386805), wk =   0.0058309
        k(   17) = (  -0.7130694  -0.7359691   0.0386805), wk =   0.0058309
        k(   18) = (  -0.5704555  -0.6133076   0.0386805), wk =   0.0058309
        k(   19) = (  -0.4278416  -0.4906461   0.0386805), wk =   0.0058309
        k(   20) = (  -0.2852278  -0.3679846   0.0386805), wk =   0.0058309
        k(   21) = (  -0.1426139  -0.2453230   0.0386805), wk =   0.0058309
        k(   22) = (   0.0000000  -0.1226615   0.0386805), wk =   0.0029155
        k(   23) = (   0.2852278   0.0000000   0.0773609), wk =   0.0029155
        k(   24) = (   0.4278416   0.1226615   0.0773609), wk =   0.0058309
        k(   25) = (   0.5704555   0.2453230   0.0773609), wk =   0.0058309
        k(   26) = (   0.7130694   0.3679846   0.0773609), wk =   0.0058309
        k(   27) = (   0.8556833   0.4906461   0.0773609), wk =   0.0058309
        k(   28) = (   0.9982971   0.6133076   0.0773609), wk =   0.0058309
        k(   29) = (   1.1409110   0.7359691   0.0773609), wk =   0.0058309
        k(   30) = (  -0.7130694  -0.8586307   0.0773609), wk =   0.0058309
        k(   31) = (  -0.5704555  -0.7359691   0.0773609), wk =   0.0058309
        k(   32) = (  -0.4278416  -0.6133076   0.0773609), wk =   0.0058309
        k(   33) = (  -0.2852278  -0.4906461   0.0773609), wk =   0.0058309
        k(   34) = (  -0.1426139  -0.3679846   0.0773609), wk =   0.0058309
        k(   35) = (  -0.0000000  -0.2453230   0.0773609), wk =   0.0029155
        k(   36) = (   0.1426139  -0.1226615   0.0773609), wk =   0.0058309
        k(   37) = (   0.4278416   0.0000000   0.1160414), wk =   0.0029155
        k(   38) = (   0.5704555   0.1226615   0.1160414), wk =   0.0058309
        k(   39) = (   0.7130694   0.2453230   0.1160414), wk =   0.0058309
        k(   40) = (   0.8556833   0.3679846   0.1160414), wk =   0.0058309
        k(   41) = (   0.9982971   0.4906461   0.1160414), wk =   0.0058309
        k(   42) = (   1.1409110   0.6133076   0.1160414), wk =   0.0058309
        k(   43) = (   1.2835249   0.7359691   0.1160414), wk =   0.0058309
        k(   44) = (  -0.5704555  -0.8586307   0.1160414), wk =   0.0058309
        k(   45) = (  -0.4278416  -0.7359691   0.1160414), wk =   0.0058309
        k(   46) = (  -0.2852278  -0.6133076   0.1160414), wk =   0.0058309
        k(   47) = (  -0.1426139  -0.4906461   0.1160414), wk =   0.0058309
        k(   48) = (  -0.0000000  -0.3679846   0.1160414), wk =   0.0029155
        k(   49) = (   0.1426139  -0.2453230   0.1160414), wk =   0.0058309
        k(   50) = (   0.2852278  -0.1226615   0.1160414), wk =   0.0058309
        k(   51) = (   0.5704555   0.0000000   0.1547219), wk =   0.0029155
        k(   52) = (   0.7130694   0.1226615   0.1547219), wk =   0.0058309
        k(   53) = (   0.8556833   0.2453230   0.1547219), wk =   0.0058309
        k(   54) = (   0.9982971   0.3679846   0.1547219), wk =   0.0058309
        k(   55) = (   1.1409110   0.4906461   0.1547219), wk =   0.0058309
        k(   56) = (   1.2835249   0.6133076   0.1547219), wk =   0.0058309
        k(   57) = (   1.4261388   0.7359691   0.1547219), wk =   0.0058309
        k(   58) = (  -0.4278416  -0.8586307   0.1547219), wk =   0.0058309
        k(   59) = (  -0.2852278  -0.7359691   0.1547219), wk =   0.0058309
        k(   60) = (  -0.1426139  -0.6133076   0.1547219), wk =   0.0058309
        k(   61) = (   0.0000000  -0.4906461   0.1547219), wk =   0.0029155
        k(   62) = (   0.1426139  -0.3679846   0.1547219), wk =   0.0058309
        k(   63) = (   0.2852278  -0.2453230   0.1547219), wk =   0.0058309
        k(   64) = (   0.4278416  -0.1226615   0.1547219), wk =   0.0058309
        k(   65) = (   0.7130694   0.0000000   0.1934024), wk =   0.0029155
        k(   66) = (   0.8556833   0.1226615   0.1934024), wk =   0.0058309
        k(   67) = (   0.9982971   0.2453230   0.1934024), wk =   0.0058309
        k(   68) = (   1.1409110   0.3679846   0.1934024), wk =   0.0058309
        k(   69) = (   1.2835249   0.4906461   0.1934024), wk =   0.0058309
        k(   70) = (   1.4261388   0.6133076   0.1934024), wk =   0.0058309
        k(   71) = (   1.5687527   0.7359691   0.1934024), wk =   0.0058309
        k(   72) = (  -0.2852278  -0.8586307   0.1934024), wk =   0.0058309
        k(   73) = (  -0.1426139  -0.7359691   0.1934024), wk =   0.0058309
        k(   74) = (   0.0000000  -0.6133076   0.1934024), wk =   0.0029155
        k(   75) = (   0.1426139  -0.4906461   0.1934024), wk =   0.0058309
        k(   76) = (   0.2852278  -0.3679846   0.1934024), wk =   0.0058309
        k(   77) = (   0.4278416  -0.2453230   0.1934024), wk =   0.0058309
        k(   78) = (   0.5704555  -0.1226615   0.1934024), wk =   0.0058309
        k(   79) = (   0.8556833   0.0000000   0.2320828), wk =   0.0029155
        k(   80) = (   0.9982971   0.1226615   0.2320828), wk =   0.0058309
        k(   81) = (   1.1409110   0.2453230   0.2320828), wk =   0.0058309
        k(   82) = (   1.2835249   0.3679846   0.2320828), wk =   0.0058309
        k(   83) = (   1.4261388   0.4906461   0.2320828), wk =   0.0058309
        k(   84) = (   1.5687527   0.6133076   0.2320828), wk =   0.0058309
        k(   85) = (   1.7113665   0.7359691   0.2320828), wk =   0.0058309
        k(   86) = (  -0.1426139  -0.8586307   0.2320828), wk =   0.0058309
        k(   87) = (  -0.0000000  -0.7359691   0.2320828), wk =   0.0029155
        k(   88) = (   0.1426139  -0.6133076   0.2320828), wk =   0.0058309
        k(   89) = (   0.2852278  -0.4906461   0.2320828), wk =   0.0058309
        k(   90) = (   0.4278416  -0.3679846   0.2320828), wk =   0.0058309
        k(   91) = (   0.5704555  -0.2453230   0.2320828), wk =   0.0058309
        k(   92) = (   0.7130694  -0.1226615   0.2320828), wk =   0.0058309
        k(   93) = (  -0.9982971   0.0000000  -0.2707633), wk =   0.0014577
        k(   94) = (  -0.8556833   0.1226615  -0.2707633), wk =   0.0058309
        k(   95) = (  -0.7130694   0.2453230  -0.2707633), wk =   0.0058309
        k(   96) = (  -0.5704555   0.3679846  -0.2707633), wk =   0.0058309
        k(   97) = (  -0.4278416   0.4906461  -0.2707633), wk =   0.0058309
        k(   98) = (  -0.2852278   0.6133076  -0.2707633), wk =   0.0058309
        k(   99) = (  -0.1426139   0.7359691  -0.2707633), wk =   0.0058309
        k(  100) = (  -1.9965943  -0.8586307  -0.2707633), wk =   0.0014577
        k(  101) = (   0.2852278   0.2453230   0.0773609), wk =   0.0058309
        k(  102) = (   0.4278416   0.3679846   0.0773609), wk =   0.0058309
        k(  103) = (   0.5704555   0.4906461   0.0773609), wk =   0.0058309
        k(  104) = (   0.7130694   0.6133076   0.0773609), wk =   0.0058309
        k(  105) = (   0.8556833   0.7359691   0.0773609), wk =   0.0058309
        k(  106) = (   0.9982971   0.8586307   0.0773609), wk =   0.0029155
        k(  107) = (   0.0000000   0.0000000   0.0773609), wk =   0.0014577
        k(  108) = (   0.4278416   0.2453230   0.1160414), wk =   0.0058309
        k(  109) = (   0.5704555   0.3679846   0.1160414), wk =   0.0058309
        k(  110) = (   0.7130694   0.4906461   0.1160414), wk =   0.0058309
        k(  111) = (   0.8556833   0.6133076   0.1160414), wk =   0.0058309
        k(  112) = (   0.9982971   0.7359691   0.1160414), wk =   0.0058309
        k(  113) = (   1.1409110   0.8586307   0.1160414), wk =   0.0058309
        k(  114) = (  -0.7130694  -0.7359691   0.1160414), wk =   0.0058309
        k(  115) = (  -0.5704555  -0.6133076   0.1160414), wk =   0.0058309
        k(  116) = (  -0.4278416  -0.4906461   0.1160414), wk =   0.0058309
        k(  117) = (  -0.2852278  -0.3679846   0.1160414), wk =   0.0058309
        k(  118) = (  -0.0000000  -0.1226615   0.1160414), wk =   0.0029155
        k(  119) = (   0.1426139   0.0000000   0.1160414), wk =   0.0029155
        k(  120) = (   0.5704555   0.2453230   0.1547219), wk =   0.0058309
        k(  121) = (   0.7130694   0.3679846   0.1547219), wk =   0.0058309
        k(  122) = (   0.8556833   0.4906461   0.1547219), wk =   0.0058309
        k(  123) = (   0.9982971   0.6133076   0.1547219), wk =   0.0058309
        k(  124) = (   1.1409110   0.7359691   0.1547219), wk =   0.0058309
        k(  125) = (   1.2835249   0.8586307   0.1547219), wk =   0.0058309
        k(  126) = (  -0.5704555  -0.7359691   0.1547219), wk =   0.0058309
        k(  127) = (  -0.4278416  -0.6133076   0.1547219), wk =   0.0058309
        k(  128) = (  -0.2852278  -0.4906461   0.1547219), wk =   0.0058309
        k(  129) = (  -0.0000000  -0.2453230   0.1547219), wk =   0.0029155
        k(  130) = (   0.1426139  -0.1226615   0.1547219), wk =   0.0058309
        k(  131) = (   0.2852278   0.0000000   0.1547219), wk =   0.0029155
        k(  132) = (   0.7130694   0.2453230   0.1934024), wk =   0.0058309
        k(  133) = (   0.8556833   0.3679846   0.1934024), wk =   0.0058309
        k(  134) = (   0.9982971   0.4906461   0.1934024), wk =   0.0058309
        k(  135) = (   1.1409110   0.6133076   0.1934024), wk =   0.0058309
        k(  136) = (   1.2835249   0.7359691   0.1934024), wk =   0.0058309
        k(  137) = (   1.4261388   0.8586307   0.1934024), wk =   0.0058309
        k(  138) = (  -0.4278416  -0.7359691   0.1934024), wk =   0.0058309
        k(  139) = (  -0.2852278  -0.6133076   0.1934024), wk =   0.0058309
        k(  140) = (   0.0000000  -0.3679846   0.1934024), wk =   0.0029155
        k(  141) = (   0.1426139  -0.2453230   0.1934024), wk =   0.0058309
        k(  142) = (   0.2852278  -0.1226615   0.1934024), wk =   0.0058309
        k(  143) = (   0.4278416   0.0000000   0.1934024), wk =   0.0029155
        k(  144) = (   0.8556833   0.2453230   0.2320828), wk =   0.0058309
        k(  145) = (   0.9982971   0.3679846   0.2320828), wk =   0.0058309
        k(  146) = (   1.1409110   0.4906461   0.2320828), wk =   0.0058309
        k(  147) = (   1.2835249   0.6133076   0.2320828), wk =   0.0058309
        k(  148) = (   1.4261388   0.7359691   0.2320828), wk =   0.0058309
        k(  149) = (   1.5687527   0.8586307   0.2320828), wk =   0.0058309
        k(  150) = (  -0.2852278  -0.7359691   0.2320828), wk =   0.0058309
        k(  151) = (   0.0000000  -0.4906461   0.2320828), wk =   0.0029155
        k(  152) = (   0.1426139  -0.3679846   0.2320828), wk =   0.0058309
        k(  153) = (   0.2852278  -0.2453230   0.2320828), wk =   0.0058309
        k(  154) = (   0.4278416  -0.1226615   0.2320828), wk =   0.0058309
        k(  155) = (   0.5704555   0.0000000   0.2320828), wk =   0.0029155
        k(  156) = (   0.9982971   0.2453230   0.2707633), wk =   0.0029155
        k(  157) = (   1.1409110   0.3679846   0.2707633), wk =   0.0058309
        k(  158) = (   1.2835249   0.4906461   0.2707633), wk =   0.0058309
        k(  159) = (   1.4261388   0.6133076   0.2707633), wk =   0.0058309
        k(  160) = (   1.5687527   0.7359691   0.2707633), wk =   0.0058309
        k(  161) = (   1.7113665   0.8586307   0.2707633), wk =   0.0029155
        k(  162) = (  -0.0000000  -0.6133076   0.2707633), wk =   0.0029155
        k(  163) = (   0.1426139  -0.4906461   0.2707633), wk =   0.0058309
        k(  164) = (   0.2852278  -0.3679846   0.2707633), wk =   0.0058309
        k(  165) = (   0.4278416  -0.2453230   0.2707633), wk =   0.0058309
        k(  166) = (   0.5704555  -0.1226615   0.2707633), wk =   0.0058309
        k(  167) = (   0.7130694   0.0000000   0.2707633), wk =   0.0029155
        k(  168) = (  -0.7130694   0.3679846  -0.2320828), wk =   0.0058309
        k(  169) = (  -0.5704555   0.4906461  -0.2320828), wk =   0.0058309
        k(  170) = (  -0.4278416   0.6133076  -0.2320828), wk =   0.0058309
        k(  171) = (  -1.9965943  -0.7359691  -0.2320828), wk =   0.0029155
        k(  172) = (  -1.8539804  -0.6133076  -0.2320828), wk =   0.0058309
        k(  173) = (  -1.7113665  -0.4906461  -0.2320828), wk =   0.0058309
        k(  174) = (  -1.5687527  -0.3679846  -0.2320828), wk =   0.0058309
        k(  175) = (  -1.4261388  -0.2453230  -0.2320828), wk =   0.0058309
        k(  176) = (  -1.2835249  -0.1226615  -0.2320828), wk =   0.0058309
        k(  177) = (  -1.1409110   0.0000000  -0.2320828), wk =   0.0029155
        k(  178) = (  -0.5704555   0.3679846  -0.1934024), wk =   0.0058309
        k(  179) = (  -0.4278416   0.4906461  -0.1934024), wk =   0.0058309
        k(  180) = (  -0.0000000   0.8586307  -0.1934024), wk =   0.0029155
        k(  181) = (  -1.8539804  -0.7359691  -0.1934024), wk =   0.0058309
        k(  182) = (  -1.7113665  -0.6133076  -0.1934024), wk =   0.0058309
        k(  183) = (  -1.5687527  -0.4906461  -0.1934024), wk =   0.0058309
        k(  184) = (  -1.4261388  -0.3679846  -0.1934024), wk =   0.0058309
        k(  185) = (  -1.2835249  -0.2453230  -0.1934024), wk =   0.0058309
        k(  186) = (  -1.1409110  -0.1226615  -0.1934024), wk =   0.0058309
        k(  187) = (  -0.9982971   0.0000000  -0.1934024), wk =   0.0029155
        k(  188) = (  -0.4278416   0.3679846  -0.1547219), wk =   0.0058309
        k(  189) = (   0.0000000   0.7359691  -0.1547219), wk =   0.0029155
        k(  190) = (   0.1426139   0.8586307  -0.1547219), wk =   0.0058309
        k(  191) = (  -1.7113665  -0.7359691  -0.1547219), wk =   0.0058309
        k(  192) = (  -1.5687527  -0.6133076  -0.1547219), wk =   0.0058309
        k(  193) = (  -1.4261388  -0.4906461  -0.1547219), wk =   0.0058309
        k(  194) = (  -1.2835249  -0.3679846  -0.1547219), wk =   0.0058309
        k(  195) = (  -1.1409110  -0.2453230  -0.1547219), wk =   0.0058309
        k(  196) = (  -0.9982971  -0.1226615  -0.1547219), wk =   0.0058309
        k(  197) = (  -0.8556833   0.0000000  -0.1547219), wk =   0.0029155
        k(  198) = (   0.0000000   0.6133076  -0.1160414), wk =   0.0029155
        k(  199) = (   0.1426139   0.7359691  -0.1160414), wk =   0.0058309
        k(  200) = (   0.2852278   0.8586307  -0.1160414), wk =   0.0058309
        k(  201) = (  -1.5687527  -0.7359691  -0.1160414), wk =   0.0058309
        k(  202) = (  -1.4261388  -0.6133076  -0.1160414), wk =   0.0058309
        k(  203) = (  -1.2835249  -0.4906461  -0.1160414), wk =   0.0058309
        k(  204) = (  -1.1409110  -0.3679846  -0.1160414), wk =   0.0058309
        k(  205) = (  -0.9982971  -0.2453230  -0.1160414), wk =   0.0058309
        k(  206) = (  -0.8556833  -0.1226615  -0.1160414), wk =   0.0058309
        k(  207) = (  -0.7130694   0.0000000  -0.1160414), wk =   0.0029155
        k(  208) = (  -0.0000000   0.4906461  -0.0773609), wk =   0.0029155
        k(  209) = (   0.1426139   0.6133076  -0.0773609), wk =   0.0058309
        k(  210) = (   0.2852278   0.7359691  -0.0773609), wk =   0.0058309
        k(  211) = (   0.4278416   0.8586307  -0.0773609), wk =   0.0058309
        k(  212) = (  -1.4261388  -0.7359691  -0.0773609), wk =   0.0058309
        k(  213) = (  -1.2835249  -0.6133076  -0.0773609), wk =   0.0058309
        k(  214) = (  -1.1409110  -0.4906461  -0.0773609), wk =   0.0058309
        k(  215) = (  -0.9982971  -0.3679846  -0.0773609), wk =   0.0058309
        k(  216) = (  -0.8556833  -0.2453230  -0.0773609), wk =   0.0058309
        k(  217) = (  -0.7130694  -0.1226615  -0.0773609), wk =   0.0058309
        k(  218) = (  -0.5704555   0.0000000  -0.0773609), wk =   0.0029155
        k(  219) = (  -0.0000000   0.3679846  -0.0386805), wk =   0.0029155
        k(  220) = (   0.1426139   0.4906461  -0.0386805), wk =   0.0058309
        k(  221) = (   0.2852278   0.6133076  -0.0386805), wk =   0.0058309
        k(  222) = (   0.4278416   0.7359691  -0.0386805), wk =   0.0058309
        k(  223) = (   0.5704555   0.8586307  -0.0386805), wk =   0.0058309
        k(  224) = (  -1.2835249  -0.7359691  -0.0386805), wk =   0.0058309
        k(  225) = (  -1.1409110  -0.6133076  -0.0386805), wk =   0.0058309
        k(  226) = (  -0.9982971  -0.4906461  -0.0386805), wk =   0.0058309
        k(  227) = (  -0.8556833  -0.3679846  -0.0386805), wk =   0.0058309
        k(  228) = (  -0.7130694  -0.2453230  -0.0386805), wk =   0.0058309
        k(  229) = (  -0.5704555  -0.1226615  -0.0386805), wk =   0.0058309
        k(  230) = (  -0.4278416   0.0000000  -0.0386805), wk =   0.0029155
        k(  231) = (   0.0000000   0.2453230   0.0000000), wk =   0.0014577
        k(  232) = (   0.1426139   0.3679846   0.0000000), wk =   0.0029155
        k(  233) = (   0.2852278   0.4906461   0.0000000), wk =   0.0029155
        k(  234) = (   0.4278416   0.6133076   0.0000000), wk =   0.0029155
        k(  235) = (   0.5704555   0.7359691   0.0000000), wk =   0.0029155
        k(  236) = (   0.7130694   0.8586307   0.0000000), wk =   0.0029155
        k(  237) = (  -1.1409110  -0.7359691   0.0000000), wk =   0.0029155
        k(  238) = (  -0.9982971  -0.6133076   0.0000000), wk =   0.0029155
        k(  239) = (  -0.8556833  -0.4906461   0.0000000), wk =   0.0029155
        k(  240) = (  -0.7130694  -0.3679846   0.0000000), wk =   0.0029155
        k(  241) = (  -0.5704555  -0.2453230   0.0000000), wk =   0.0029155
        k(  242) = (  -0.4278416  -0.1226615   0.0000000), wk =   0.0029155
        k(  243) = (  -0.2852278   0.0000000   0.0000000), wk =   0.0014577
        k(  244) = (   0.5704555   0.4906461   0.1547219), wk =   0.0058309
        k(  245) = (   0.7130694   0.6133076   0.1547219), wk =   0.0058309
        k(  246) = (   0.8556833   0.7359691   0.1547219), wk =   0.0058309
        k(  247) = (   0.9982971   0.8586307   0.1547219), wk =   0.0029155
        k(  248) = (  -0.0000000  -0.0000000   0.1547219), wk =   0.0014577
        k(  249) = (   0.7130694   0.4906461   0.1934024), wk =   0.0058309
        k(  250) = (   0.8556833   0.6133076   0.1934024), wk =   0.0058309
        k(  251) = (   0.9982971   0.7359691   0.1934024), wk =   0.0058309
        k(  252) = (   1.1409110   0.8586307   0.1934024), wk =   0.0058309
        k(  253) = (   1.2835249   0.9812922   0.1934024), wk =   0.0058309
        k(  254) = (  -0.5704555  -0.6133076   0.1934024), wk =   0.0058309
        k(  255) = (  -0.0000000  -0.1226615   0.1934024), wk =   0.0029155
        k(  256) = (   0.1426139  -0.0000000   0.1934024), wk =   0.0029155
        k(  257) = (   0.8556833   0.4906461   0.2320828), wk =   0.0058309
        k(  258) = (   0.9982971   0.6133076   0.2320828), wk =   0.0058309
        k(  259) = (   1.1409110   0.7359691   0.2320828), wk =   0.0058309
        k(  260) = (   1.2835249   0.8586307   0.2320828), wk =   0.0058309
        k(  261) = (   1.4261388   0.9812922   0.2320828), wk =   0.0058309
        k(  262) = (   0.0000000  -0.2453230   0.2320828), wk =   0.0029155
        k(  263) = (   0.1426139  -0.1226615   0.2320828), wk =   0.0058309
        k(  264) = (   0.2852278  -0.0000000   0.2320828), wk =   0.0029155
        k(  265) = (   0.9982971   0.4906461   0.2707633), wk =   0.0029155
        k(  266) = (   1.1409110   0.6133076   0.2707633), wk =   0.0058309
        k(  267) = (   1.2835249   0.7359691   0.2707633), wk =   0.0058309
        k(  268) = (   1.4261388   0.8586307   0.2707633), wk =   0.0029155
        k(  269) = (   0.0000000  -0.3679846   0.2707633), wk =   0.0029155
        k(  270) = (   0.1426139  -0.2453230   0.2707633), wk =   0.0058309
        k(  271) = (   0.2852278  -0.1226615   0.2707633), wk =   0.0058309
        k(  272) = (   0.4278416  -0.0000000   0.2707633), wk =   0.0029155
        k(  273) = (   1.2835249   0.6133076   0.3094438), wk =   0.0058309
        k(  274) = (  -0.0000000  -0.4906461   0.3094438), wk =   0.0029155
        k(  275) = (   0.1426139  -0.3679846   0.3094438), wk =   0.0058309
        k(  276) = (   0.2852278  -0.2453230   0.3094438), wk =   0.0058309
        k(  277) = (   0.4278416  -0.1226615   0.3094438), wk =   0.0058309
        k(  278) = (   0.5704555  -0.0000000   0.3094438), wk =   0.0029155
        k(  279) = (  -1.9965943  -0.6133076  -0.1934024), wk =   0.0029155
        k(  280) = (  -1.8539804  -0.4906461  -0.1934024), wk =   0.0058309
        k(  281) = (  -1.7113665  -0.3679846  -0.1934024), wk =   0.0058309
        k(  282) = (  -1.5687527  -0.2453230  -0.1934024), wk =   0.0058309
        k(  283) = (  -1.4261388  -0.1226615  -0.1934024), wk =   0.0058309
        k(  284) = (  -1.2835249  -0.0000000  -0.1934024), wk =   0.0029155
        k(  285) = (  -0.0000000   0.9812922  -0.1547219), wk =   0.0029155
        k(  286) = (  -1.8539804  -0.6133076  -0.1547219), wk =   0.0058309
        k(  287) = (  -1.7113665  -0.4906461  -0.1547219), wk =   0.0058309
        k(  288) = (  -1.5687527  -0.3679846  -0.1547219), wk =   0.0058309
        k(  289) = (  -1.4261388  -0.2453230  -0.1547219), wk =   0.0058309
        k(  290) = (  -1.2835249  -0.1226615  -0.1547219), wk =   0.0058309
        k(  291) = (  -1.1409110  -0.0000000  -0.1547219), wk =   0.0029155
        k(  292) = (   0.0000000   0.8586307  -0.1160414), wk =   0.0029155
        k(  293) = (   0.1426139   0.9812922  -0.1160414), wk =   0.0058309
        k(  294) = (  -1.7113665  -0.6133076  -0.1160414), wk =   0.0058309
        k(  295) = (  -1.5687527  -0.4906461  -0.1160414), wk =   0.0058309
        k(  296) = (  -1.4261388  -0.3679846  -0.1160414), wk =   0.0058309
        k(  297) = (  -1.2835249  -0.2453230  -0.1160414), wk =   0.0058309
        k(  298) = (  -1.1409110  -0.1226615  -0.1160414), wk =   0.0058309
        k(  299) = (  -0.9982971  -0.0000000  -0.1160414), wk =   0.0029155
        k(  300) = (   0.0000000   0.7359691  -0.0773609), wk =   0.0029155
        k(  301) = (   0.1426139   0.8586307  -0.0773609), wk =   0.0058309
        k(  302) = (   0.2852278   0.9812922  -0.0773609), wk =   0.0058309
        k(  303) = (  -1.5687527  -0.6133076  -0.0773609), wk =   0.0058309
        k(  304) = (  -1.4261388  -0.4906461  -0.0773609), wk =   0.0058309
        k(  305) = (  -1.2835249  -0.3679846  -0.0773609), wk =   0.0058309
        k(  306) = (  -1.1409110  -0.2453230  -0.0773609), wk =   0.0058309
        k(  307) = (  -0.9982971  -0.1226615  -0.0773609), wk =   0.0058309
        k(  308) = (  -0.8556833  -0.0000000  -0.0773609), wk =   0.0029155
        k(  309) = (  -0.0000000   0.6133076  -0.0386805), wk =   0.0029155
        k(  310) = (   0.1426139   0.7359691  -0.0386805), wk =   0.0058309
        k(  311) = (   0.2852278   0.8586307  -0.0386805), wk =   0.0058309
        k(  312) = (   0.4278416   0.9812922  -0.0386805), wk =   0.0058309
        k(  313) = (  -1.4261388  -0.6133076  -0.0386805), wk =   0.0058309
        k(  314) = (  -1.2835249  -0.4906461  -0.0386805), wk =   0.0058309
        k(  315) = (  -1.1409110  -0.3679846  -0.0386805), wk =   0.0058309
        k(  316) = (  -0.9982971  -0.2453230  -0.0386805), wk =   0.0058309
        k(  317) = (  -0.8556833  -0.1226615  -0.0386805), wk =   0.0058309
        k(  318) = (  -0.7130694  -0.0000000  -0.0386805), wk =   0.0029155
        k(  319) = (  -0.0000000   0.4906461  -0.0000000), wk =   0.0014577
        k(  320) = (   0.1426139   0.6133076  -0.0000000), wk =   0.0029155
        k(  321) = (   0.2852278   0.7359691  -0.0000000), wk =   0.0029155
        k(  322) = (   0.4278416   0.8586307  -0.0000000), wk =   0.0029155
        k(  323) = (   0.5704555   0.9812922  -0.0000000), wk =   0.0029155
        k(  324) = (  -1.2835249  -0.6133076  -0.0000000), wk =   0.0029155
        k(  325) = (  -1.1409110  -0.4906461  -0.0000000), wk =   0.0029155
        k(  326) = (  -0.9982971  -0.3679846  -0.0000000), wk =   0.0029155
        k(  327) = (  -0.8556833  -0.2453230  -0.0000000), wk =   0.0029155
        k(  328) = (  -0.7130694  -0.1226615  -0.0000000), wk =   0.0029155
        k(  329) = (  -0.5704555  -0.0000000  -0.0000000), wk =   0.0014577
        k(  330) = (   0.8556833   0.7359691   0.2320828), wk =   0.0058309
        k(  331) = (   0.9982971   0.8586307   0.2320828), wk =   0.0029155
        k(  332) = (  -0.0000000   0.0000000   0.2320828), wk =   0.0014577
        k(  333) = (   0.9982971   0.7359691   0.2707633), wk =   0.0029155
        k(  334) = (   1.1409110   0.8586307   0.2707633), wk =   0.0029155
        k(  335) = (   0.0000000  -0.1226615   0.2707633), wk =   0.0029155
        k(  336) = (   0.1426139   0.0000000   0.2707633), wk =   0.0029155
        k(  337) = (   0.0000000  -0.2453230   0.3094438), wk =   0.0029155
        k(  338) = (   0.1426139  -0.1226615   0.3094438), wk =   0.0058309
        k(  339) = (   0.2852278   0.0000000   0.3094438), wk =   0.0029155
        k(  340) = (  -0.0000000  -0.3679846   0.3481243), wk =   0.0029155
        k(  341) = (   0.1426139  -0.2453230   0.3481243), wk =   0.0058309
        k(  342) = (   0.2852278  -0.1226615   0.3481243), wk =   0.0058309
        k(  343) = (   0.4278416   0.0000000   0.3481243), wk =   0.0029155
        k(  344) = (  -1.9965943  -0.4906461  -0.1547219), wk =   0.0029155
        k(  345) = (  -1.8539804  -0.3679846  -0.1547219), wk =   0.0058309
        k(  346) = (  -1.7113665  -0.2453230  -0.1547219), wk =   0.0058309
        k(  347) = (  -1.5687527  -0.1226615  -0.1547219), wk =   0.0058309
        k(  348) = (  -1.4261388   0.0000000  -0.1547219), wk =   0.0029155
        k(  349) = (  -0.0000000   1.1039537  -0.1160414), wk =   0.0029155
        k(  350) = (  -1.8539804  -0.4906461  -0.1160414), wk =   0.0058309
        k(  351) = (  -1.7113665  -0.3679846  -0.1160414), wk =   0.0058309
        k(  352) = (  -1.5687527  -0.2453230  -0.1160414), wk =   0.0058309
        k(  353) = (  -1.4261388  -0.1226615  -0.1160414), wk =   0.0058309
        k(  354) = (  -1.2835249   0.0000000  -0.1160414), wk =   0.0029155
        k(  355) = (   0.0000000   0.9812922  -0.0773609), wk =   0.0029155
        k(  356) = (   0.1426139   1.1039537  -0.0773609), wk =   0.0058309
        k(  357) = (  -1.7113665  -0.4906461  -0.0773609), wk =   0.0058309
        k(  358) = (  -1.5687527  -0.3679846  -0.0773609), wk =   0.0058309
        k(  359) = (  -1.4261388  -0.2453230  -0.0773609), wk =   0.0058309
        k(  360) = (  -1.2835249  -0.1226615  -0.0773609), wk =   0.0058309
        k(  361) = (  -1.1409110   0.0000000  -0.0773609), wk =   0.0029155
        k(  362) = (   0.0000000   0.8586307  -0.0386805), wk =   0.0029155
        k(  363) = (   0.1426139   0.9812922  -0.0386805), wk =   0.0058309
        k(  364) = (   0.2852278   1.1039537  -0.0386805), wk =   0.0058309
        k(  365) = (  -1.5687527  -0.4906461  -0.0386805), wk =   0.0058309
        k(  366) = (  -1.4261388  -0.3679846  -0.0386805), wk =   0.0058309
        k(  367) = (  -1.2835249  -0.2453230  -0.0386805), wk =   0.0058309
        k(  368) = (  -1.1409110  -0.1226615  -0.0386805), wk =   0.0058309
        k(  369) = (  -0.9982971   0.0000000  -0.0386805), wk =   0.0029155
        k(  370) = (  -0.0000000   0.7359691  -0.0000000), wk =   0.0014577
        k(  371) = (   0.1426139   0.8586307  -0.0000000), wk =   0.0029155
        k(  372) = (   0.2852278   0.9812922  -0.0000000), wk =   0.0029155
        k(  373) = (   0.4278416   1.1039537  -0.0000000), wk =   0.0029155
        k(  374) = (  -1.4261388  -0.4906461  -0.0000000), wk =   0.0029155
        k(  375) = (  -1.2835249  -0.3679846  -0.0000000), wk =   0.0029155
        k(  376) = (  -1.1409110  -0.2453230  -0.0000000), wk =   0.0029155
        k(  377) = (  -0.9982971  -0.1226615  -0.0000000), wk =   0.0029155
        k(  378) = (  -0.8556833   0.0000000  -0.0000000), wk =   0.0014577
        k(  379) = (   0.0000000   0.0000000   0.3094438), wk =   0.0014577
        k(  380) = (   0.0000000  -0.1226615   0.3481243), wk =   0.0029155
        k(  381) = (   0.1426139   0.0000000   0.3481243), wk =   0.0029155
        k(  382) = (  -0.0000000  -0.2453230   0.3868047), wk =   0.0029155
        k(  383) = (   0.1426139  -0.1226615   0.3868047), wk =   0.0058309
        k(  384) = (   0.2852278   0.0000000   0.3868047), wk =   0.0029155
        k(  385) = (  -1.9965943  -0.3679846  -0.1160414), wk =   0.0029155
        k(  386) = (  -1.8539804  -0.2453230  -0.1160414), wk =   0.0058309
        k(  387) = (  -1.7113665  -0.1226615  -0.1160414), wk =   0.0058309
        k(  388) = (  -1.5687527   0.0000000  -0.1160414), wk =   0.0029155
        k(  389) = (  -0.0000000   1.2266152  -0.0773609), wk =   0.0029155
        k(  390) = (  -1.8539804  -0.3679846  -0.0773609), wk =   0.0058309
        k(  391) = (  -1.7113665  -0.2453230  -0.0773609), wk =   0.0058309
        k(  392) = (  -1.5687527  -0.1226615  -0.0773609), wk =   0.0058309
        k(  393) = (  -1.4261388   0.0000000  -0.0773609), wk =   0.0029155
        k(  394) = (   0.0000000   1.1039537  -0.0386805), wk =   0.0029155
        k(  395) = (   0.1426139   1.2266152  -0.0386805), wk =   0.0058309
        k(  396) = (  -1.7113665  -0.3679846  -0.0386805), wk =   0.0058309
        k(  397) = (  -1.5687527  -0.2453230  -0.0386805), wk =   0.0058309
        k(  398) = (  -1.4261388  -0.1226615  -0.0386805), wk =   0.0058309
        k(  399) = (  -1.2835249   0.0000000  -0.0386805), wk =   0.0029155
        k(  400) = (   0.0000000   0.9812922   0.0000000), wk =   0.0014577
        k(  401) = (   0.1426139   1.1039537   0.0000000), wk =   0.0029155
        k(  402) = (   0.2852278   1.2266152   0.0000000), wk =   0.0029155
        k(  403) = (  -1.5687527  -0.3679846   0.0000000), wk =   0.0029155
        k(  404) = (  -1.4261388  -0.2453230   0.0000000), wk =   0.0029155
        k(  405) = (  -1.2835249  -0.1226615   0.0000000), wk =   0.0029155
        k(  406) = (  -1.1409110   0.0000000   0.0000000), wk =   0.0014577
        k(  407) = (   0.0000000   0.0000000   0.3868047), wk =   0.0014577
        k(  408) = (  -0.0000000  -0.1226615   0.4254852), wk =   0.0029155
        k(  409) = (   0.1426139   0.0000000   0.4254852), wk =   0.0029155
        k(  410) = (  -1.9965943  -0.2453230  -0.0773609), wk =   0.0029155
        k(  411) = (  -1.8539804  -0.1226615  -0.0773609), wk =   0.0058309
        k(  412) = (  -1.7113665   0.0000000  -0.0773609), wk =   0.0029155
        k(  413) = (  -0.0000000   1.3492768  -0.0386805), wk =   0.0029155
        k(  414) = (  -1.8539804  -0.2453230  -0.0386805), wk =   0.0058309
        k(  415) = (  -1.7113665  -0.1226615  -0.0386805), wk =   0.0058309
        k(  416) = (  -1.5687527   0.0000000  -0.0386805), wk =   0.0029155
        k(  417) = (   0.0000000   1.2266152   0.0000000), wk =   0.0014577
        k(  418) = (   0.1426139   1.3492768   0.0000000), wk =   0.0029155
        k(  419) = (  -1.7113665  -0.2453230   0.0000000), wk =   0.0029155
        k(  420) = (  -1.5687527  -0.1226615   0.0000000), wk =   0.0029155
        k(  421) = (  -1.4261388   0.0000000   0.0000000), wk =   0.0014577
        k(  422) = (  -0.0000000   0.0000000   0.4641657), wk =   0.0014577
        k(  423) = (  -1.9965943  -0.1226615  -0.0386805), wk =   0.0029155
        k(  424) = (  -1.8539804   0.0000000  -0.0386805), wk =   0.0029155
        k(  425) = (  -0.0000000   1.4719383  -0.0000000), wk =   0.0014577
        k(  426) = (  -1.8539804  -0.1226615  -0.0000000), wk =   0.0029155
        k(  427) = (  -1.7113665   0.0000000  -0.0000000), wk =   0.0014577
        k(  428) = (  -1.9965943  -1.7172613  -0.5415266), wk =   0.0007289

                       cryst. coord.
        k(    1) = (   0.0000000   0.0000000   0.0000000), wk =   0.0007289
        k(    2) = (  -0.0000000   0.0000000   0.0714286), wk =   0.0029155
        k(    3) = (  -0.0000000   0.0000000   0.1428571), wk =   0.0029155
        k(    4) = (  -0.0000000   0.0000000   0.2142857), wk =   0.0029155
        k(    5) = (  -0.0000000   0.0000000   0.2857143), wk =   0.0029155
        k(    6) = (  -0.0000000   0.0000000   0.3571429), wk =   0.0029155
        k(    7) = (  -0.0000000   0.0000000   0.4285714), wk =   0.0029155
        k(    8) = (   0.0000000   0.0000000  -0.5000000), wk =   0.0014577
        k(    9) = (  -0.0000000   0.0714286   0.0000000), wk =   0.0029155
        k(   10) = (  -0.0000000   0.0714286   0.0714286), wk =   0.0058309
        k(   11) = (  -0.0000000   0.0714286   0.1428571), wk =   0.0058309
        k(   12) = (  -0.0000000   0.0714286   0.2142857), wk =   0.0058309
        k(   13) = (  -0.0000000   0.0714286   0.2857143), wk =   0.0058309
        k(   14) = (  -0.0000000   0.0714286   0.3571429), wk =   0.0058309
        k(   15) = (  -0.0000000   0.0714286   0.4285714), wk =   0.0058309
        k(   16) = (   0.0000000   0.0714286  -0.5000000), wk =   0.0058309
        k(   17) = (   0.0000000   0.0714286  -0.4285714), wk =   0.0058309
        k(   18) = (   0.0000000   0.0714286  -0.3571429), wk =   0.0058309
        k(   19) = (   0.0000000   0.0714286  -0.2857143), wk =   0.0058309
        k(   20) = (   0.0000000   0.0714286  -0.2142857), wk =   0.0058309
        k(   21) = (   0.0000000   0.0714286  -0.1428571), wk =   0.0058309
        k(   22) = (   0.0000000   0.0714286  -0.0714286), wk =   0.0029155
        k(   23) = (  -0.0000000   0.1428571   0.0000000), wk =   0.0029155
        k(   24) = (  -0.0000000   0.1428571   0.0714286), wk =   0.0058309
        k(   25) = (  -0.0000000   0.1428571   0.1428571), wk =   0.0058309
        k(   26) = (  -0.0000000   0.1428571   0.2142857), wk =   0.0058309
        k(   27) = (  -0.0000000   0.1428571   0.2857143), wk =   0.0058309
        k(   28) = (   0.0000000   0.1428571   0.3571429), wk =   0.0058309
        k(   29) = (  -0.0000000   0.1428571   0.4285714), wk =   0.0058309
        k(   30) = (   0.0000000   0.1428571  -0.5000000), wk =   0.0058309
        k(   31) = (   0.0000000   0.1428571  -0.4285714), wk =   0.0058309
        k(   32) = (   0.0000000   0.1428571  -0.3571429), wk =   0.0058309
        k(   33) = (   0.0000000   0.1428571  -0.2857143), wk =   0.0058309
        k(   34) = (   0.0000000   0.1428571  -0.2142857), wk =   0.0058309
        k(   35) = (   0.0000000   0.1428571  -0.1428571), wk =   0.0029155
        k(   36) = (   0.0000000   0.1428571  -0.0714286), wk =   0.0058309
        k(   37) = (  -0.0000000   0.2142857   0.0000000), wk =   0.0029155
        k(   38) = (  -0.0000000   0.2142857   0.0714286), wk =   0.0058309
        k(   39) = (  -0.0000000   0.2142857   0.1428571), wk =   0.0058309
        k(   40) = (  -0.0000000   0.2142857   0.2142857), wk =   0.0058309
        k(   41) = (  -0.0000000   0.2142857   0.2857143), wk =   0.0058309
        k(   42) = (  -0.0000000   0.2142857   0.3571429), wk =   0.0058309
        k(   43) = (   0.0000000   0.2142857   0.4285714), wk =   0.0058309
        k(   44) = (   0.0000000   0.2142857  -0.5000000), wk =   0.0058309
        k(   45) = (   0.0000000   0.2142857  -0.4285714), wk =   0.0058309
        k(   46) = (   0.0000000   0.2142857  -0.3571429), wk =   0.0058309
        k(   47) = (   0.0000000   0.2142857  -0.2857143), wk =   0.0058309
        k(   48) = (   0.0000000   0.2142857  -0.2142857), wk =   0.0029155
        k(   49) = (   0.0000000   0.2142857  -0.1428571), wk =   0.0058309
        k(   50) = (  -0.0000000   0.2142857  -0.0714286), wk =   0.0058309
        k(   51) = (  -0.0000000   0.2857143   0.0000000), wk =   0.0029155
        k(   52) = (  -0.0000000   0.2857143   0.0714286), wk =   0.0058309
        k(   53) = (  -0.0000000   0.2857143   0.1428571), wk =   0.0058309
        k(   54) = (   0.0000000   0.2857143   0.2142857), wk =   0.0058309
        k(   55) = (  -0.0000000   0.2857143   0.2857143), wk =   0.0058309
        k(   56) = (  -0.0000000   0.2857143   0.3571429), wk =   0.0058309
        k(   57) = (  -0.0000000   0.2857143   0.4285714), wk =   0.0058309
        k(   58) = (   0.0000000   0.2857143  -0.5000000), wk =   0.0058309
        k(   59) = (   0.0000000   0.2857143  -0.4285714), wk =   0.0058309
        k(   60) = (   0.0000000   0.2857143  -0.3571429), wk =   0.0058309
        k(   61) = (   0.0000000   0.2857143  -0.2857143), wk =   0.0029155
        k(   62) = (   0.0000000   0.2857143  -0.2142857), wk =   0.0058309
        k(   63) = (   0.0000000   0.2857143  -0.1428571), wk =   0.0058309
        k(   64) = (  -0.0000000   0.2857143  -0.0714286), wk =   0.0058309
        k(   65) = (  -0.0000000   0.3571429   0.0000000), wk =   0.0029155
        k(   66) = (  -0.0000000   0.3571429   0.0714286), wk =   0.0058309
        k(   67) = (   0.0000000   0.3571429   0.1428571), wk =   0.0058309
        k(   68) = (  -0.0000000   0.3571429   0.2142857), wk =   0.0058309
        k(   69) = (  -0.0000000   0.3571429   0.2857143), wk =   0.0058309
        k(   70) = (  -0.0000000   0.3571429   0.3571429), wk =   0.0058309
        k(   71) = (   0.0000000   0.3571429   0.4285714), wk =   0.0058309
        k(   72) = (   0.0000000   0.3571429  -0.5000000), wk =   0.0058309
        k(   73) = (   0.0000000   0.3571429  -0.4285714), wk =   0.0058309
        k(   74) = (   0.0000000   0.3571429  -0.3571429), wk =   0.0029155
        k(   75) = (   0.0000000   0.3571429  -0.2857143), wk =   0.0058309
        k(   76) = (   0.0000000   0.3571429  -0.2142857), wk =   0.0058309
        k(   77) = (  -0.0000000   0.3571429  -0.1428571), wk =   0.0058309
        k(   78) = (  -0.0000000   0.3571429  -0.0714286), wk =   0.0058309
        k(   79) = (  -0.0000000   0.4285714   0.0000000), wk =   0.0029155
        k(   80) = (  -0.0000000   0.4285714   0.0714286), wk =   0.0058309
        k(   81) = (  -0.0000000   0.4285714   0.1428571), wk =   0.0058309
        k(   82) = (   0.0000000   0.4285714   0.2142857), wk =   0.0058309
        k(   83) = (  -0.0000000   0.4285714   0.2857143), wk =   0.0058309
        k(   84) = (   0.0000000   0.4285714   0.3571429), wk =   0.0058309
        k(   85) = (  -0.0000000   0.4285714   0.4285714), wk =   0.0058309
        k(   86) = (   0.0000000   0.4285714  -0.5000000), wk =   0.0058309
        k(   87) = (   0.0000000   0.4285714  -0.4285714), wk =   0.0029155
        k(   88) = (   0.0000000   0.4285714  -0.3571429), wk =   0.0058309
        k(   89) = (   0.0000000   0.4285714  -0.2857143), wk =   0.0058309
        k(   90) = (   0.0000000   0.4285714  -0.2142857), wk =   0.0058309
        k(   91) = (  -0.0000000   0.4285714  -0.1428571), wk =   0.0058309
        k(   92) = (  -0.0000000   0.4285714  -0.0714286), wk =   0.0058309
        k(   93) = (   0.0000000  -0.5000000   0.0000000), wk =   0.0014577
        k(   94) = (   0.0000000  -0.5000000   0.0714286), wk =   0.0058309
        k(   95) = (   0.0000000  -0.5000000   0.1428571), wk =   0.0058309
        k(   96) = (   0.0000000  -0.5000000   0.2142857), wk =   0.0058309
        k(   97) = (   0.0000000  -0.5000000   0.2857143), wk =   0.0058309
        k(   98) = (   0.0000000  -0.5000000   0.3571429), wk =   0.0058309
        k(   99) = (   0.0000000  -0.5000000   0.4285714), wk =   0.0058309
        k(  100) = (   0.0000000  -0.5000000  -0.5000000), wk =   0.0014577
        k(  101) = (   0.0714286   0.0714286   0.0714286), wk =   0.0058309
        k(  102) = (   0.0714286   0.0714286   0.1428571), wk =   0.0058309
        k(  103) = (   0.0714286   0.0714286   0.2142857), wk =   0.0058309
        k(  104) = (   0.0714286   0.0714286   0.2857143), wk =   0.0058309
        k(  105) = (   0.0714286   0.0714286   0.3571429), wk =   0.0058309
        k(  106) = (   0.0714286   0.0714286   0.4285714), wk =   0.0029155
        k(  107) = (   0.0714286   0.0714286  -0.0714286), wk =   0.0014577
        k(  108) = (   0.0714286   0.1428571   0.0714286), wk =   0.0058309
        k(  109) = (   0.0714286   0.1428571   0.1428571), wk =   0.0058309
        k(  110) = (   0.0714286   0.1428571   0.2142857), wk =   0.0058309
        k(  111) = (   0.0714286   0.1428571   0.2857143), wk =   0.0058309
        k(  112) = (   0.0714286   0.1428571   0.3571429), wk =   0.0058309
        k(  113) = (   0.0714286   0.1428571   0.4285714), wk =   0.0058309
        k(  114) = (   0.0714286   0.1428571  -0.5000000), wk =   0.0058309
        k(  115) = (   0.0714286   0.1428571  -0.4285714), wk =   0.0058309
        k(  116) = (   0.0714286   0.1428571  -0.3571429), wk =   0.0058309
        k(  117) = (   0.0714286   0.1428571  -0.2857143), wk =   0.0058309
        k(  118) = (   0.0714286   0.1428571  -0.1428571), wk =   0.0029155
        k(  119) = (   0.0714286   0.1428571  -0.0714286), wk =   0.0029155
        k(  120) = (   0.0714286   0.2142857   0.0714286), wk =   0.0058309
        k(  121) = (   0.0714286   0.2142857   0.1428571), wk =   0.0058309
        k(  122) = (   0.0714286   0.2142857   0.2142857), wk =   0.0058309
        k(  123) = (   0.0714286   0.2142857   0.2857143), wk =   0.0058309
        k(  124) = (   0.0714286   0.2142857   0.3571429), wk =   0.0058309
        k(  125) = (   0.0714286   0.2142857   0.4285714), wk =   0.0058309
        k(  126) = (   0.0714286   0.2142857  -0.5000000), wk =   0.0058309
        k(  127) = (   0.0714286   0.2142857  -0.4285714), wk =   0.0058309
        k(  128) = (   0.0714286   0.2142857  -0.3571429), wk =   0.0058309
        k(  129) = (   0.0714286   0.2142857  -0.2142857), wk =   0.0029155
        k(  130) = (   0.0714286   0.2142857  -0.1428571), wk =   0.0058309
        k(  131) = (   0.0714286   0.2142857  -0.0714286), wk =   0.0029155
        k(  132) = (   0.0714286   0.2857143   0.0714286), wk =   0.0058309
        k(  133) = (   0.0714286   0.2857143   0.1428571), wk =   0.0058309
        k(  134) = (   0.0714286   0.2857143   0.2142857), wk =   0.0058309
        k(  135) = (   0.0714286   0.2857143   0.2857143), wk =   0.0058309
        k(  136) = (   0.0714286   0.2857143   0.3571429), wk =   0.0058309
        k(  137) = (   0.0714286   0.2857143   0.4285714), wk =   0.0058309
        k(  138) = (   0.0714286   0.2857143  -0.5000000), wk =   0.0058309
        k(  139) = (   0.0714286   0.2857143  -0.4285714), wk =   0.0058309
        k(  140) = (   0.0714286   0.2857143  -0.2857143), wk =   0.0029155
        k(  141) = (   0.0714286   0.2857143  -0.2142857), wk =   0.0058309
        k(  142) = (   0.0714286   0.2857143  -0.1428571), wk =   0.0058309
        k(  143) = (   0.0714286   0.2857143  -0.0714286), wk =   0.0029155
        k(  144) = (   0.0714286   0.3571429   0.0714286), wk =   0.0058309
        k(  145) = (   0.0714286   0.3571429   0.1428571), wk =   0.0058309
        k(  146) = (   0.0714286   0.3571429   0.2142857), wk =   0.0058309
        k(  147) = (   0.0714286   0.3571429   0.2857143), wk =   0.0058309
        k(  148) = (   0.0714286   0.3571429   0.3571429), wk =   0.0058309
        k(  149) = (   0.0714286   0.3571429   0.4285714), wk =   0.0058309
        k(  150) = (   0.0714286   0.3571429  -0.5000000), wk =   0.0058309
        k(  151) = (   0.0714286   0.3571429  -0.3571429), wk =   0.0029155
        k(  152) = (   0.0714286   0.3571429  -0.2857143), wk =   0.0058309
        k(  153) = (   0.0714286   0.3571429  -0.2142857), wk =   0.0058309
        k(  154) = (   0.0714286   0.3571429  -0.1428571), wk =   0.0058309
        k(  155) = (   0.0714286   0.3571429  -0.0714286), wk =   0.0029155
        k(  156) = (   0.0714286   0.4285714   0.0714286), wk =   0.0029155
        k(  157) = (   0.0714286   0.4285714   0.1428571), wk =   0.0058309
        k(  158) = (   0.0714286   0.4285714   0.2142857), wk =   0.0058309
        k(  159) = (   0.0714286   0.4285714   0.2857143), wk =   0.0058309
        k(  160) = (   0.0714286   0.4285714   0.3571429), wk =   0.0058309
        k(  161) = (   0.0714286   0.4285714   0.4285714), wk =   0.0029155
        k(  162) = (   0.0714286   0.4285714  -0.4285714), wk =   0.0029155
        k(  163) = (   0.0714286   0.4285714  -0.3571429), wk =   0.0058309
        k(  164) = (   0.0714286   0.4285714  -0.2857143), wk =   0.0058309
        k(  165) = (   0.0714286   0.4285714  -0.2142857), wk =   0.0058309
        k(  166) = (   0.0714286   0.4285714  -0.1428571), wk =   0.0058309
        k(  167) = (   0.0714286   0.4285714  -0.0714286), wk =   0.0029155
        k(  168) = (   0.0714286  -0.5000000   0.1428571), wk =   0.0058309
        k(  169) = (   0.0714286  -0.5000000   0.2142857), wk =   0.0058309
        k(  170) = (   0.0714286  -0.5000000   0.2857143), wk =   0.0058309
        k(  171) = (   0.0714286  -0.5000000  -0.5000000), wk =   0.0029155
        k(  172) = (   0.0714286  -0.5000000  -0.4285714), wk =   0.0058309
        k(  173) = (   0.0714286  -0.5000000  -0.3571429), wk =   0.0058309
        k(  174) = (   0.0714286  -0.5000000  -0.2857143), wk =   0.0058309
        k(  175) = (   0.0714286  -0.5000000  -0.2142857), wk =   0.0058309
        k(  176) = (   0.0714286  -0.5000000  -0.1428571), wk =   0.0058309
        k(  177) = (   0.0714286  -0.5000000  -0.0714286), wk =   0.0029155
        k(  178) = (   0.0714286  -0.4285714   0.1428571), wk =   0.0058309
        k(  179) = (   0.0714286  -0.4285714   0.2142857), wk =   0.0058309
        k(  180) = (   0.0714286  -0.4285714   0.4285714), wk =   0.0029155
        k(  181) = (   0.0714286  -0.4285714  -0.5000000), wk =   0.0058309
        k(  182) = (   0.0714286  -0.4285714  -0.4285714), wk =   0.0058309
        k(  183) = (   0.0714286  -0.4285714  -0.3571429), wk =   0.0058309
        k(  184) = (   0.0714286  -0.4285714  -0.2857143), wk =   0.0058309
        k(  185) = (   0.0714286  -0.4285714  -0.2142857), wk =   0.0058309
        k(  186) = (   0.0714286  -0.4285714  -0.1428571), wk =   0.0058309
        k(  187) = (   0.0714286  -0.4285714  -0.0714286), wk =   0.0029155
        k(  188) = (   0.0714286  -0.3571429   0.1428571), wk =   0.0058309
        k(  189) = (   0.0714286  -0.3571429   0.3571429), wk =   0.0029155
        k(  190) = (   0.0714286  -0.3571429   0.4285714), wk =   0.0058309
        k(  191) = (   0.0714286  -0.3571429  -0.5000000), wk =   0.0058309
        k(  192) = (   0.0714286  -0.3571429  -0.4285714), wk =   0.0058309
        k(  193) = (   0.0714286  -0.3571429  -0.3571429), wk =   0.0058309
        k(  194) = (   0.0714286  -0.3571429  -0.2857143), wk =   0.0058309
        k(  195) = (   0.0714286  -0.3571429  -0.2142857), wk =   0.0058309
        k(  196) = (   0.0714286  -0.3571429  -0.1428571), wk =   0.0058309
        k(  197) = (   0.0714286  -0.3571429  -0.0714286), wk =   0.0029155
        k(  198) = (   0.0714286  -0.2857143   0.2857143), wk =   0.0029155
        k(  199) = (   0.0714286  -0.2857143   0.3571429), wk =   0.0058309
        k(  200) = (   0.0714286  -0.2857143   0.4285714), wk =   0.0058309
        k(  201) = (   0.0714286  -0.2857143  -0.5000000), wk =   0.0058309
        k(  202) = (   0.0714286  -0.2857143  -0.4285714), wk =   0.0058309
        k(  203) = (   0.0714286  -0.2857143  -0.3571429), wk =   0.0058309
        k(  204) = (   0.0714286  -0.2857143  -0.2857143), wk =   0.0058309
        k(  205) = (   0.0714286  -0.2857143  -0.2142857), wk =   0.0058309
        k(  206) = (   0.0714286  -0.2857143  -0.1428571), wk =   0.0058309
        k(  207) = (   0.0714286  -0.2857143  -0.0714286), wk =   0.0029155
        k(  208) = (   0.0714286  -0.2142857   0.2142857), wk =   0.0029155
        k(  209) = (   0.0714286  -0.2142857   0.2857143), wk =   0.0058309
        k(  210) = (   0.0714286  -0.2142857   0.3571429), wk =   0.0058309
        k(  211) = (   0.0714286  -0.2142857   0.4285714), wk =   0.0058309
        k(  212) = (   0.0714286  -0.2142857  -0.5000000), wk =   0.0058309
        k(  213) = (   0.0714286  -0.2142857  -0.4285714), wk =   0.0058309
        k(  214) = (   0.0714286  -0.2142857  -0.3571429), wk =   0.0058309
        k(  215) = (   0.0714286  -0.2142857  -0.2857143), wk =   0.0058309
        k(  216) = (   0.0714286  -0.2142857  -0.2142857), wk =   0.0058309
        k(  217) = (   0.0714286  -0.2142857  -0.1428571), wk =   0.0058309
        k(  218) = (   0.0714286  -0.2142857  -0.0714286), wk =   0.0029155
        k(  219) = (   0.0714286  -0.1428571   0.1428571), wk =   0.0029155
        k(  220) = (   0.0714286  -0.1428571   0.2142857), wk =   0.0058309
        k(  221) = (   0.0714286  -0.1428571   0.2857143), wk =   0.0058309
        k(  222) = (   0.0714286  -0.1428571   0.3571429), wk =   0.0058309
        k(  223) = (   0.0714286  -0.1428571   0.4285714), wk =   0.0058309
        k(  224) = (   0.0714286  -0.1428571  -0.5000000), wk =   0.0058309
        k(  225) = (   0.0714286  -0.1428571  -0.4285714), wk =   0.0058309
        k(  226) = (   0.0714286  -0.1428571  -0.3571429), wk =   0.0058309
        k(  227) = (   0.0714286  -0.1428571  -0.2857143), wk =   0.0058309
        k(  228) = (   0.0714286  -0.1428571  -0.2142857), wk =   0.0058309
        k(  229) = (   0.0714286  -0.1428571  -0.1428571), wk =   0.0058309
        k(  230) = (   0.0714286  -0.1428571  -0.0714286), wk =   0.0029155
        k(  231) = (   0.0714286  -0.0714286   0.0714286), wk =   0.0014577
        k(  232) = (   0.0714286  -0.0714286   0.1428571), wk =   0.0029155
        k(  233) = (   0.0714286  -0.0714286   0.2142857), wk =   0.0029155
        k(  234) = (   0.0714286  -0.0714286   0.2857143), wk =   0.0029155
        k(  235) = (   0.0714286  -0.0714286   0.3571429), wk =   0.0029155
        k(  236) = (   0.0714286  -0.0714286   0.4285714), wk =   0.0029155
        k(  237) = (   0.0714286  -0.0714286  -0.5000000), wk =   0.0029155
        k(  238) = (   0.0714286  -0.0714286  -0.4285714), wk =   0.0029155
        k(  239) = (   0.0714286  -0.0714286  -0.3571429), wk =   0.0029155
        k(  240) = (   0.0714286  -0.0714286  -0.2857143), wk =   0.0029155
        k(  241) = (   0.0714286  -0.0714286  -0.2142857), wk =   0.0029155
        k(  242) = (   0.0714286  -0.0714286  -0.1428571), wk =   0.0029155
        k(  243) = (   0.0714286  -0.0714286  -0.0714286), wk =   0.0014577
        k(  244) = (   0.1428571   0.1428571   0.1428571), wk =   0.0058309
        k(  245) = (   0.1428571   0.1428571   0.2142857), wk =   0.0058309
        k(  246) = (   0.1428571   0.1428571   0.2857143), wk =   0.0058309
        k(  247) = (   0.1428571   0.1428571   0.3571429), wk =   0.0029155
        k(  248) = (   0.1428571   0.1428571  -0.1428571), wk =   0.0014577
        k(  249) = (   0.1428571   0.2142857   0.1428571), wk =   0.0058309
        k(  250) = (   0.1428571   0.2142857   0.2142857), wk =   0.0058309
        k(  251) = (   0.1428571   0.2142857   0.2857143), wk =   0.0058309
        k(  252) = (   0.1428571   0.2142857   0.3571429), wk =   0.0058309
        k(  253) = (   0.1428571   0.2142857   0.4285714), wk =   0.0058309
        k(  254) = (   0.1428571   0.2142857  -0.5000000), wk =   0.0058309
        k(  255) = (   0.1428571   0.2142857  -0.2142857), wk =   0.0029155
        k(  256) = (   0.1428571   0.2142857  -0.1428571), wk =   0.0029155
        k(  257) = (   0.1428571   0.2857143   0.1428571), wk =   0.0058309
        k(  258) = (   0.1428571   0.2857143   0.2142857), wk =   0.0058309
        k(  259) = (   0.1428571   0.2857143   0.2857143), wk =   0.0058309
        k(  260) = (   0.1428571   0.2857143   0.3571429), wk =   0.0058309
        k(  261) = (   0.1428571   0.2857143   0.4285714), wk =   0.0058309
        k(  262) = (   0.1428571   0.2857143  -0.2857143), wk =   0.0029155
        k(  263) = (   0.1428571   0.2857143  -0.2142857), wk =   0.0058309
        k(  264) = (   0.1428571   0.2857143  -0.1428571), wk =   0.0029155
        k(  265) = (   0.1428571   0.3571429   0.1428571), wk =   0.0029155
        k(  266) = (   0.1428571   0.3571429   0.2142857), wk =   0.0058309
        k(  267) = (   0.1428571   0.3571429   0.2857143), wk =   0.0058309
        k(  268) = (   0.1428571   0.3571429   0.3571429), wk =   0.0029155
        k(  269) = (   0.1428571   0.3571429  -0.3571429), wk =   0.0029155
        k(  270) = (   0.1428571   0.3571429  -0.2857143), wk =   0.0058309
        k(  271) = (   0.1428571   0.3571429  -0.2142857), wk =   0.0058309
        k(  272) = (   0.1428571   0.3571429  -0.1428571), wk =   0.0029155
        k(  273) = (   0.1428571   0.4285714   0.2142857), wk =   0.0058309
        k(  274) = (   0.1428571   0.4285714  -0.4285714), wk =   0.0029155
        k(  275) = (   0.1428571   0.4285714  -0.3571429), wk =   0.0058309
        k(  276) = (   0.1428571   0.4285714  -0.2857143), wk =   0.0058309
        k(  277) = (   0.1428571   0.4285714  -0.2142857), wk =   0.0058309
        k(  278) = (   0.1428571   0.4285714  -0.1428571), wk =   0.0029155
        k(  279) = (   0.1428571  -0.5000000  -0.5000000), wk =   0.0029155
        k(  280) = (   0.1428571  -0.5000000  -0.4285714), wk =   0.0058309
        k(  281) = (   0.1428571  -0.5000000  -0.3571429), wk =   0.0058309
        k(  282) = (   0.1428571  -0.5000000  -0.2857143), wk =   0.0058309
        k(  283) = (   0.1428571  -0.5000000  -0.2142857), wk =   0.0058309
        k(  284) = (   0.1428571  -0.5000000  -0.1428571), wk =   0.0029155
        k(  285) = (   0.1428571  -0.4285714   0.4285714), wk =   0.0029155
        k(  286) = (   0.1428571  -0.4285714  -0.5000000), wk =   0.0058309
        k(  287) = (   0.1428571  -0.4285714  -0.4285714), wk =   0.0058309
        k(  288) = (   0.1428571  -0.4285714  -0.3571429), wk =   0.0058309
        k(  289) = (   0.1428571  -0.4285714  -0.2857143), wk =   0.0058309
        k(  290) = (   0.1428571  -0.4285714  -0.2142857), wk =   0.0058309
        k(  291) = (   0.1428571  -0.4285714  -0.1428571), wk =   0.0029155
        k(  292) = (   0.1428571  -0.3571429   0.3571429), wk =   0.0029155
        k(  293) = (   0.1428571  -0.3571429   0.4285714), wk =   0.0058309
        k(  294) = (   0.1428571  -0.3571429  -0.5000000), wk =   0.0058309
        k(  295) = (   0.1428571  -0.3571429  -0.4285714), wk =   0.0058309
        k(  296) = (   0.1428571  -0.3571429  -0.3571429), wk =   0.0058309
        k(  297) = (   0.1428571  -0.3571429  -0.2857143), wk =   0.0058309
        k(  298) = (   0.1428571  -0.3571429  -0.2142857), wk =   0.0058309
        k(  299) = (   0.1428571  -0.3571429  -0.1428571), wk =   0.0029155
        k(  300) = (   0.1428571  -0.2857143   0.2857143), wk =   0.0029155
        k(  301) = (   0.1428571  -0.2857143   0.3571429), wk =   0.0058309
        k(  302) = (   0.1428571  -0.2857143   0.4285714), wk =   0.0058309
        k(  303) = (   0.1428571  -0.2857143  -0.5000000), wk =   0.0058309
        k(  304) = (   0.1428571  -0.2857143  -0.4285714), wk =   0.0058309
        k(  305) = (   0.1428571  -0.2857143  -0.3571429), wk =   0.0058309
        k(  306) = (   0.1428571  -0.2857143  -0.2857143), wk =   0.0058309
        k(  307) = (   0.1428571  -0.2857143  -0.2142857), wk =   0.0058309
        k(  308) = (   0.1428571  -0.2857143  -0.1428571), wk =   0.0029155
        k(  309) = (   0.1428571  -0.2142857   0.2142857), wk =   0.0029155
        k(  310) = (   0.1428571  -0.2142857   0.2857143), wk =   0.0058309
        k(  311) = (   0.1428571  -0.2142857   0.3571429), wk =   0.0058309
        k(  312) = (   0.1428571  -0.2142857   0.4285714), wk =   0.0058309
        k(  313) = (   0.1428571  -0.2142857  -0.5000000), wk =   0.0058309
        k(  314) = (   0.1428571  -0.2142857  -0.4285714), wk =   0.0058309
        k(  315) = (   0.1428571  -0.2142857  -0.3571429), wk =   0.0058309
        k(  316) = (   0.1428571  -0.2142857  -0.2857143), wk =   0.0058309
        k(  317) = (   0.1428571  -0.2142857  -0.2142857), wk =   0.0058309
        k(  318) = (   0.1428571  -0.2142857  -0.1428571), wk =   0.0029155
        k(  319) = (   0.1428571  -0.1428571   0.1428571), wk =   0.0014577
        k(  320) = (   0.1428571  -0.1428571   0.2142857), wk =   0.0029155
        k(  321) = (   0.1428571  -0.1428571   0.2857143), wk =   0.0029155
        k(  322) = (   0.1428571  -0.1428571   0.3571429), wk =   0.0029155
        k(  323) = (   0.1428571  -0.1428571   0.4285714), wk =   0.0029155
        k(  324) = (   0.1428571  -0.1428571  -0.5000000), wk =   0.0029155
        k(  325) = (   0.1428571  -0.1428571  -0.4285714), wk =   0.0029155
        k(  326) = (   0.1428571  -0.1428571  -0.3571429), wk =   0.0029155
        k(  327) = (   0.1428571  -0.1428571  -0.2857143), wk =   0.0029155
        k(  328) = (   0.1428571  -0.1428571  -0.2142857), wk =   0.0029155
        k(  329) = (   0.1428571  -0.1428571  -0.1428571), wk =   0.0014577
        k(  330) = (   0.2142857   0.2142857   0.2142857), wk =   0.0058309
        k(  331) = (   0.2142857   0.2142857   0.2857143), wk =   0.0029155
        k(  332) = (   0.2142857   0.2142857  -0.2142857), wk =   0.0014577
        k(  333) = (   0.2142857   0.2857143   0.2142857), wk =   0.0029155
        k(  334) = (   0.2142857   0.2857143   0.2857143), wk =   0.0029155
        k(  335) = (   0.2142857   0.2857143  -0.2857143), wk =   0.0029155
        k(  336) = (   0.2142857   0.2857143  -0.2142857), wk =   0.0029155
        k(  337) = (   0.2142857   0.3571429  -0.3571429), wk =   0.0029155
        k(  338) = (   0.2142857   0.3571429  -0.2857143), wk =   0.0058309
        k(  339) = (   0.2142857   0.3571429  -0.2142857), wk =   0.0029155
        k(  340) = (   0.2142857   0.4285714  -0.4285714), wk =   0.0029155
        k(  341) = (   0.2142857   0.4285714  -0.3571429), wk =   0.0058309
        k(  342) = (   0.2142857   0.4285714  -0.2857143), wk =   0.0058309
        k(  343) = (   0.2142857   0.4285714  -0.2142857), wk =   0.0029155
        k(  344) = (   0.2142857  -0.5000000  -0.5000000), wk =   0.0029155
        k(  345) = (   0.2142857  -0.5000000  -0.4285714), wk =   0.0058309
        k(  346) = (   0.2142857  -0.5000000  -0.3571429), wk =   0.0058309
        k(  347) = (   0.2142857  -0.5000000  -0.2857143), wk =   0.0058309
        k(  348) = (   0.2142857  -0.5000000  -0.2142857), wk =   0.0029155
        k(  349) = (   0.2142857  -0.4285714   0.4285714), wk =   0.0029155
        k(  350) = (   0.2142857  -0.4285714  -0.5000000), wk =   0.0058309
        k(  351) = (   0.2142857  -0.4285714  -0.4285714), wk =   0.0058309
        k(  352) = (   0.2142857  -0.4285714  -0.3571429), wk =   0.0058309
        k(  353) = (   0.2142857  -0.4285714  -0.2857143), wk =   0.0058309
        k(  354) = (   0.2142857  -0.4285714  -0.2142857), wk =   0.0029155
        k(  355) = (   0.2142857  -0.3571429   0.3571429), wk =   0.0029155
        k(  356) = (   0.2142857  -0.3571429   0.4285714), wk =   0.0058309
        k(  357) = (   0.2142857  -0.3571429  -0.5000000), wk =   0.0058309
        k(  358) = (   0.2142857  -0.3571429  -0.4285714), wk =   0.0058309
        k(  359) = (   0.2142857  -0.3571429  -0.3571429), wk =   0.0058309
        k(  360) = (   0.2142857  -0.3571429  -0.2857143), wk =   0.0058309
        k(  361) = (   0.2142857  -0.3571429  -0.2142857), wk =   0.0029155
        k(  362) = (   0.2142857  -0.2857143   0.2857143), wk =   0.0029155
        k(  363) = (   0.2142857  -0.2857143   0.3571429), wk =   0.0058309
        k(  364) = (   0.2142857  -0.2857143   0.4285714), wk =   0.0058309
        k(  365) = (   0.2142857  -0.2857143  -0.5000000), wk =   0.0058309
        k(  366) = (   0.2142857  -0.2857143  -0.4285714), wk =   0.0058309
        k(  367) = (   0.2142857  -0.2857143  -0.3571429), wk =   0.0058309
        k(  368) = (   0.2142857  -0.2857143  -0.2857143), wk =   0.0058309
        k(  369) = (   0.2142857  -0.2857143  -0.2142857), wk =   0.0029155
        k(  370) = (   0.2142857  -0.2142857   0.2142857), wk =   0.0014577
        k(  371) = (   0.2142857  -0.2142857   0.2857143), wk =   0.0029155
        k(  372) = (   0.2142857  -0.2142857   0.3571429), wk =   0.0029155
        k(  373) = (   0.2142857  -0.2142857   0.4285714), wk =   0.0029155
        k(  374) = (   0.2142857  -0.2142857  -0.5000000), wk =   0.0029155
        k(  375) = (   0.2142857  -0.2142857  -0.4285714), wk =   0.0029155
        k(  376) = (   0.2142857  -0.2142857  -0.3571429), wk =   0.0029155
        k(  377) = (   0.2142857  -0.2142857  -0.2857143), wk =   0.0029155
        k(  378) = (   0.2142857  -0.2142857  -0.2142857), wk =   0.0014577
        k(  379) = (   0.2857143   0.2857143  -0.2857143), wk =   0.0014577
        k(  380) = (   0.2857143   0.3571429  -0.3571429), wk =   0.0029155
        k(  381) = (   0.2857143   0.3571429  -0.2857143), wk =   0.0029155
        k(  382) = (   0.2857143   0.4285714  -0.4285714), wk =   0.0029155
        k(  383) = (   0.2857143   0.4285714  -0.3571429), wk =   0.0058309
        k(  384) = (   0.2857143   0.4285714  -0.2857143), wk =   0.0029155
        k(  385) = (   0.2857143  -0.5000000  -0.5000000), wk =   0.0029155
        k(  386) = (   0.2857143  -0.5000000  -0.4285714), wk =   0.0058309
        k(  387) = (   0.2857143  -0.5000000  -0.3571429), wk =   0.0058309
        k(  388) = (   0.2857143  -0.5000000  -0.2857143), wk =   0.0029155
        k(  389) = (   0.2857143  -0.4285714   0.4285714), wk =   0.0029155
        k(  390) = (   0.2857143  -0.4285714  -0.5000000), wk =   0.0058309
        k(  391) = (   0.2857143  -0.4285714  -0.4285714), wk =   0.0058309
        k(  392) = (   0.2857143  -0.4285714  -0.3571429), wk =   0.0058309
        k(  393) = (   0.2857143  -0.4285714  -0.2857143), wk =   0.0029155
        k(  394) = (   0.2857143  -0.3571429   0.3571429), wk =   0.0029155
        k(  395) = (   0.2857143  -0.3571429   0.4285714), wk =   0.0058309
        k(  396) = (   0.2857143  -0.3571429  -0.5000000), wk =   0.0058309
        k(  397) = (   0.2857143  -0.3571429  -0.4285714), wk =   0.0058309
        k(  398) = (   0.2857143  -0.3571429  -0.3571429), wk =   0.0058309
        k(  399) = (   0.2857143  -0.3571429  -0.2857143), wk =   0.0029155
        k(  400) = (   0.2857143  -0.2857143   0.2857143), wk =   0.0014577
        k(  401) = (   0.2857143  -0.2857143   0.3571429), wk =   0.0029155
        k(  402) = (   0.2857143  -0.2857143   0.4285714), wk =   0.0029155
        k(  403) = (   0.2857143  -0.2857143  -0.5000000), wk =   0.0029155
        k(  404) = (   0.2857143  -0.2857143  -0.4285714), wk =   0.0029155
        k(  405) = (   0.2857143  -0.2857143  -0.3571429), wk =   0.0029155
        k(  406) = (   0.2857143  -0.2857143  -0.2857143), wk =   0.0014577
        k(  407) = (   0.3571429   0.3571429  -0.3571429), wk =   0.0014577
        k(  408) = (   0.3571429   0.4285714  -0.4285714), wk =   0.0029155
        k(  409) = (   0.3571429   0.4285714  -0.3571429), wk =   0.0029155
        k(  410) = (   0.3571429  -0.5000000  -0.5000000), wk =   0.0029155
        k(  411) = (   0.3571429  -0.5000000  -0.4285714), wk =   0.0058309
        k(  412) = (   0.3571429  -0.5000000  -0.3571429), wk =   0.0029155
        k(  413) = (   0.3571429  -0.4285714   0.4285714), wk =   0.0029155
        k(  414) = (   0.3571429  -0.4285714  -0.5000000), wk =   0.0058309
        k(  415) = (   0.3571429  -0.4285714  -0.4285714), wk =   0.0058309
        k(  416) = (   0.3571429  -0.4285714  -0.3571429), wk =   0.0029155
        k(  417) = (   0.3571429  -0.3571429   0.3571429), wk =   0.0014577
        k(  418) = (   0.3571429  -0.3571429   0.4285714), wk =   0.0029155
        k(  419) = (   0.3571429  -0.3571429  -0.5000000), wk =   0.0029155
        k(  420) = (   0.3571429  -0.3571429  -0.4285714), wk =   0.0029155
        k(  421) = (   0.3571429  -0.3571429  -0.3571429), wk =   0.0014577
        k(  422) = (   0.4285714   0.4285714  -0.4285714), wk =   0.0014577
        k(  423) = (   0.4285714  -0.5000000  -0.5000000), wk =   0.0029155
        k(  424) = (   0.4285714  -0.5000000  -0.4285714), wk =   0.0029155
        k(  425) = (   0.4285714  -0.4285714   0.4285714), wk =   0.0014577
        k(  426) = (   0.4285714  -0.4285714  -0.5000000), wk =   0.0029155
        k(  427) = (   0.4285714  -0.4285714  -0.4285714), wk =   0.0014577
        k(  428) = (  -0.5000000  -0.5000000  -0.5000000), wk =   0.0007289

     Dense  grid:   384583 G-vectors     FFT dimensions: ( 144, 144, 144)

     Smooth grid:    97215 G-vectors     FFT dimensions: (  90,  90,  90)

     Dynamical RAM for                 wfc:       0.08 MB

     Dynamical RAM for     wfc (w. buffer):      34.78 MB

     Dynamical RAM for           str. fact:       0.37 MB

     Dynamical RAM for           local pot:       0.00 MB

     Dynamical RAM for          nlocal pot:       0.16 MB

     Dynamical RAM for                qrad:       8.33 MB

     Dynamical RAM for          rho,v,vnew:       1.79 MB

     Dynamical RAM for               rhoin:       0.60 MB

     Dynamical RAM for            rho*nmix:       1.96 MB

     Dynamical RAM for           G-vectors:       0.47 MB

     Dynamical RAM for          h,s,v(r/c):       0.08 MB

     Dynamical RAM for          <psi|beta>:       0.01 MB

     Dynamical RAM for                 psi:       0.16 MB

     Dynamical RAM for                hpsi:       0.16 MB

     Dynamical RAM for                spsi:       0.16 MB

     Dynamical RAM for      wfcinit/wfcrot:       0.21 MB

     Dynamical RAM for           addusdens:      22.98 MB

     Dynamical RAM for          addusforce:      23.30 MB

     Dynamical RAM for         addusstress:      24.57 MB

     Estimated static dynamical RAM per process >      51.32 MB

     Estimated max dynamical RAM per process >      75.89 MB

     Estimated total dynamical RAM >       3.56 GB

     Initial potential from superposition of free atoms

     starting charge   32.99867, renormalised to   33.00000
     Starting wfcs are   25 randomized atomic wfcs
     Checking if some PAW data can be deallocated... 
       PAW data deallocated on   36 nodes for type:  1
       PAW data deallocated on   24 nodes for type:  2
       PAW data deallocated on   36 nodes for type:  3

     total cpu time spent up to now is        9.8 secs

     Self-consistent Calculation

     iteration #  1     ecut=   120.00 Ry     beta= 0.70
     Davidson diagonalization with overlap
     ethr =  1.00E-02,  avg # of iterations =  2.3

     total cpu time spent up to now is       29.9 secs

     total energy              =    -534.52830729 Ry
     estimated scf accuracy    <       0.76167602 Ry

     iteration #  2     ecut=   120.00 Ry     beta= 0.70
     Davidson diagonalization with overlap
     ethr =  2.31E-03,  avg # of iterations =  3.7

     total cpu time spent up to now is       53.8 secs

     total energy              =    -533.63053716 Ry
     estimated scf accuracy    <       8.37023250 Ry

     iteration #  3     ecut=   120.00 Ry     beta= 0.70
     Davidson diagonalization with overlap
     ethr =  2.31E-03,  avg # of iterations =  3.5

     total cpu time spent up to now is       76.2 secs

     total energy              =    -534.97495288 Ry
     estimated scf accuracy    <       0.12466384 Ry

     iteration #  4     ecut=   120.00 Ry     beta= 0.70
     Davidson diagonalization with overlap
     ethr =  3.78E-04,  avg # of iterations =  1.3

     total cpu time spent up to now is       94.1 secs

     total energy              =    -534.96798792 Ry
     estimated scf accuracy    <       0.05946030 Ry

     iteration #  5     ecut=   120.00 Ry     beta= 0.70
     Davidson diagonalization with overlap
     ethr =  1.80E-04,  avg # of iterations =  1.5

     total cpu time spent up to now is      112.2 secs

     total energy              =    -534.96470830 Ry
     estimated scf accuracy    <       0.02289147 Ry

     iteration #  6     ecut=   120.00 Ry     beta= 0.70
     Davidson diagonalization with overlap
     ethr =  6.94E-05,  avg # of iterations =  2.0

     total cpu time spent up to now is      130.8 secs

     total energy              =    -534.96713197 Ry
     estimated scf accuracy    <       0.00071447 Ry

     iteration #  7     ecut=   120.00 Ry     beta= 0.70
     Davidson diagonalization with overlap
     ethr =  2.17E-06,  avg # of iterations =  3.5

     total cpu time spent up to now is      154.8 secs

     total energy              =    -534.96735825 Ry
     estimated scf accuracy    <       0.00018547 Ry

     iteration #  8     ecut=   120.00 Ry     beta= 0.70
     Davidson diagonalization with overlap
     ethr =  5.62E-07,  avg # of iterations =  1.2

     total cpu time spent up to now is      172.6 secs

     total energy              =    -534.96735848 Ry
     estimated scf accuracy    <       0.00003250 Ry

     iteration #  9     ecut=   120.00 Ry     beta= 0.70
     Davidson diagonalization with overlap
     ethr =  9.85E-08,  avg # of iterations =  2.1

     total cpu time spent up to now is      192.6 secs

     total energy              =    -534.96736647 Ry
     estimated scf accuracy    <       0.00000117 Ry

     iteration # 10     ecut=   120.00 Ry     beta= 0.70
     Davidson diagonalization with overlap
     ethr =  3.55E-09,  avg # of iterations =  3.6

     total cpu time spent up to now is      215.8 secs

     total energy              =    -534.96736690 Ry
     estimated scf accuracy    <          6.7E-09 Ry

     iteration # 11     ecut=   120.00 Ry     beta= 0.70
     Davidson diagonalization with overlap
     ethr =  2.04E-11,  avg # of iterations =  5.3

     total cpu time spent up to now is      248.2 secs

     total energy              =    -534.96736691 Ry
     estimated scf accuracy    <       0.00000002 Ry

     iteration # 12     ecut=   120.00 Ry     beta= 0.70
     Davidson diagonalization with overlap
     ethr =  2.04E-11,  avg # of iterations =  3.0

     total cpu time spent up to now is      270.5 secs

[...]

   -49.8659 -26.1281 -25.7980 -25.7156 -12.3565  -9.2930  -9.0535   1.2914
     2.2512   2.6599   2.6658   2.8623   3.2960   3.5844   3.8689   4.0210
     5.5723   7.3397   7.5817   8.9692  10.0092

     occupation numbers 
     1.0000   1.0000   1.0000   1.0000   1.0000   1.0000   1.0000   1.0000
     1.0000   1.0000   1.0000   1.0000   1.0000   1.0000   1.0000   1.0000
     1.0000  -0.0031  -0.0000  -0.0000  -0.0000

          k = 0.1426 0.0000 0.4255 ( 12135 PWs)   bands (ev):

   -49.8654 -26.1179 -25.7965 -25.7267 -12.4103  -9.2836  -9.0415   1.3215
     2.1266   2.6677   2.7839   3.1776   3.3476   3.4896   3.8378   3.9573
     5.7678   7.1432   7.4749   8.8759   9.8974

     occupation numbers 
     1.0000   1.0000   1.0000   1.0000   1.0000   1.0000   1.0000   1.0000
     1.0000   1.0000   1.0000   1.0000   1.0000   1.0000   1.0000   1.0000
     1.0000  -0.0259  -0.0003  -0.0000  -0.0000

          k =-1.9966-0.2453-0.0774 ( 12175 PWs)   bands (ev):

   -49.8654 -26.1541 -25.7971 -25.7148 -12.1857  -9.2407  -9.0841   1.3336
     2.1214   2.2497   2.4066   2.6777   3.1693   3.3142   3.9034   4.1457
     5.5898   7.7268   7.8095   8.9819  10.3673

     occupation numbers 
     1.0000   1.0000   1.0000   1.0000   1.0000   1.0000   1.0000   1.0000
     1.0000   1.0000   1.0000   1.0000   1.0000   1.0000   1.0000   1.0000
     1.0000  -0.0000  -0.0000  -0.0000  -0.0000

          k =-1.8540-0.1227-0.0774 ( 12138 PWs)   bands (ev):

   -49.8652 -26.1272 -25.7961 -25.7264 -12.3507  -9.2476  -9.0712   1.4007
     2.0404   2.5961   2.6705   3.0224   3.1505   3.5999   3.8774   3.8793
     5.7752   7.2917   7.5563   8.8958  10.0664

     occupation numbers 
     1.0000   1.0000   1.0000   1.0000   1.0000   1.0000   1.0000   1.0000
     1.0000   1.0000   1.0000   1.0000   1.0000   1.0000   1.0000   1.0000
     1.0000  -0.0060  -0.0001  -0.0000  -0.0000

          k =-1.7114 0.0000-0.0774 ( 12140 PWs)   bands (ev):

   -49.8633 -26.1155 -25.7912 -25.7569 -12.3943  -9.2183  -9.0234   1.4314
     1.7951   2.6341   2.7774   2.8174   3.4580   3.6811   3.7843   3.8064
     6.2011   7.0208   7.3724   8.7213   9.9476

     occupation numbers 
     1.0000   1.0000   1.0000   1.0000   1.0000   1.0000   1.0000   1.0000
     1.0000   1.0000   1.0000   1.0000   1.0000   1.0000   1.0000   1.0000
     1.0102  -0.0321  -0.0019  -0.0000  -0.0000

          k =-0.0000 1.3493-0.0387 ( 12185 PWs)   bands (ev):

   -49.8648 -26.1913 -25.7957 -25.7136 -11.9275  -9.1802  -9.1109   1.2208
     1.6005   1.8399   2.2527   2.6878   2.9717   3.0754   3.8308   4.3213
     5.6139   8.1793   8.2380   8.9789  10.6931

     occupation numbers 
     1.0000   1.0000   1.0000   1.0000   1.0000   1.0000   1.0000   1.0000
     1.0000   1.0000   1.0000   1.0000   1.0000   1.0000   1.0000   1.0000
     1.0000  -0.0000  -0.0000  -0.0000  -0.0000

          k =-1.8540-0.2453-0.0387 ( 12160 PWs)   bands (ev):

   -49.8647 -26.1532 -25.7952 -25.7256 -12.1800  -9.1990  -9.0969   1.4156
     1.9987   2.2446   2.2742   2.8838   3.0069   3.3533   3.7263   4.1651
     5.7907   7.6798   7.7833   8.9083  10.4181

     occupation numbers 
     1.0000   1.0000   1.0000   1.0000   1.0000   1.0000   1.0000   1.0000
     1.0000   1.0000   1.0000   1.0000   1.0000   1.0000   1.0000   1.0000
     1.0000  -0.0000  -0.0000  -0.0000  -0.0000

          k =-1.7114-0.1227-0.0387 ( 12138 PWs)   bands (ev):

   -49.8632 -26.1248 -25.7908 -25.7566 -12.3348  -9.1947  -9.0395   1.5135
     1.6999   2.5900   2.6515   2.7525   3.2635   3.5432   3.7486   3.9617
     6.2092   7.1685   7.4563   8.7327  10.1038

     occupation numbers 
     1.0000   1.0000   1.0000   1.0000   1.0000   1.0000   1.0000   1.0000
     1.0000   1.0000   1.0000   1.0000   1.0000   1.0000   1.0000   1.0000
     1.0111  -0.0216  -0.0005  -0.0000  -0.0000

          k =-1.5688 0.0000-0.0387 ( 12144 PWs)   bands (ev):

   -49.8604 -26.1121 -25.8001 -25.7835 -12.3712  -9.1625  -8.9540   1.3238
     1.6234   2.2535   2.6595   2.8740   3.6016   3.6751   3.7249   3.8688
     6.7131   6.8743   7.1988   8.6574   9.9134

     occupation numbers 
     1.0000   1.0000   1.0000   1.0000   1.0000   1.0000   1.0000   1.0000
     1.0000   1.0000   1.0000   1.0000   1.0000   1.0000   1.0000   1.0000
     0.5350   0.1033  -0.0167  -0.0000  -0.0000

          k = 0.0000 1.2266 0.0000 ( 12201 PWs)   bands (ev):

   -49.8640 -26.2320 -25.7942 -25.7123 -11.6221  -9.1539  -9.0985   0.6198
     1.3420   1.4374   2.3273   2.6884   2.7528   2.9132   3.8176   4.3659
     5.6373   8.6404   8.7706   8.9606  10.8767

     occupation numbers 
     1.0000   1.0000   1.0000   1.0000   1.0000   1.0000   1.0000   1.0000
     1.0000   1.0000   1.0000   1.0000   1.0000   1.0000   1.0000   1.0000
     1.0000  -0.0000  -0.0000  -0.0000  -0.0000

          k = 0.1426 1.3493 0.0000 ( 12176 PWs)   bands (ev):

   -49.8640 -26.1904 -25.7938 -25.7244 -11.9220  -9.1443  -9.1170   1.2514
     1.6374   1.8320   2.0546   2.7819   2.8629   3.1968   3.6134   4.3201
     5.8098   8.1535   8.1936   8.9124  10.7447

     occupation numbers 
     1.0000   1.0000   1.0000   1.0000   1.0000   1.0000   1.0000   1.0000
     1.0000   1.0000   1.0000   1.0000   1.0000   1.0000   1.0000   1.0000
     1.0000  -0.0000  -0.0000  -0.0000  -0.0000

          k =-1.7114-0.2453 0.0000 ( 12158 PWs)   bands (ev):

   -49.8627 -26.1507 -25.7899 -25.7557 -12.1644  -9.1633  -9.0474   1.5182
     1.6539   2.2683   2.3080   2.6375   3.1168   3.2558   3.5908   4.1946
     6.2194   7.5583   7.7017   8.7539  10.4586

     occupation numbers 
     1.0000   1.0000   1.0000   1.0000   1.0000   1.0000   1.0000   1.0000
     1.0000   1.0000   1.0000   1.0000   1.0000   1.0000   1.0000   1.0000
     1.0124  -0.0001  -0.0000  -0.0000  -0.0000

          k =-1.5688-0.1227 0.0000 ( 12151 PWs)   bands (ev):

   -49.8603 -26.1214 -25.7998 -25.7832 -12.3118  -9.1523  -8.9561   1.3412
     1.6018   2.2228   2.5847   2.7585   3.4299   3.4369   3.7271   4.0367
     6.7176   7.0198   7.2989   8.6652  10.0667

     occupation numbers 
     1.0000   1.0000   1.0000   1.0000   1.0000   1.0000   1.0000   1.0000
     1.0000   1.0000   1.0000   1.0000   1.0000   1.0000   1.0000   1.0000
     0.5212  -0.0319  -0.0055  -0.0000  -0.0000

          k =-1.4261 0.0000 0.0000 ( 12171 PWs)   bands (ev):

   -49.8572 -26.1083 -25.8478 -25.7749 -12.3456  -9.1143  -8.8601   1.1293
     1.3420   2.0673   2.5774   2.9535   3.6478   3.6501   3.7603   3.8936
     6.7553   6.9846   7.2633   8.7920   9.8109

     occupation numbers 
     1.0000   1.0000   1.0000   1.0000   1.0000   1.0000   1.0000   1.0000
     1.0000   1.0000   1.0000   1.0000   1.0000   1.0000   1.0000   1.0000
     0.4045  -0.0200  -0.0085  -0.0000  -0.0000

          k =-0.0000 0.0000 0.4642 ( 12108 PWs)   bands (ev):

   -49.8661 -26.1187 -25.7984 -25.7159 -12.4159  -9.2694  -9.0882   1.3828
     2.1959   2.6741   2.7674   3.3206   3.3416   3.3535   3.8081   4.0632
     5.5668   7.1911   7.5237   8.9922   9.8880

     occupation numbers 
     1.0000   1.0000   1.0000   1.0000   1.0000   1.0000   1.0000   1.0000
     1.0000   1.0000   1.0000   1.0000   1.0000   1.0000   1.0000   1.0000
     1.0000  -0.0179  -0.0001  -0.0000  -0.0000

          k =-1.9966-0.1227-0.0387 ( 12144 PWs)   bands (ev):

   -49.8659 -26.1281 -25.7980 -25.7156 -12.3563  -9.2340  -9.1166   1.4325
     2.1406   2.6463   2.6849   2.8394   3.2794   3.6041   3.8215   3.9985
     5.5733   7.3398   7.5986   9.0023  10.0560

     occupation numbers 
     1.0000   1.0000   1.0000   1.0000   1.0000   1.0000   1.0000   1.0000
     1.0000   1.0000   1.0000   1.0000   1.0000   1.0000   1.0000   1.0000
     1.0000  -0.0031  -0.0000  -0.0000  -0.0000

          k =-1.8540 0.0000-0.0387 ( 12121 PWs)   bands (ev):

   -49.8654 -26.1179 -25.7965 -25.7267 -12.4101  -9.2318  -9.0969   1.4801
     1.9711   2.6960   2.7779   3.1531   3.4038   3.4630   3.7779   3.9376
     5.7722   7.1425   7.4913   8.9065   9.9236

     occupation numbers 
     1.0000   1.0000   1.0000   1.0000   1.0000   1.0000   1.0000   1.0000
     1.0000   1.0000   1.0000   1.0000   1.0000   1.0000   1.0000   1.0000
     1.0000  -0.0260  -0.0002  -0.0000  -0.0000

          k =-0.0000 1.4719-0.0000 ( 12177 PWs)   bands (ev):

   -49.8654 -26.1541 -25.7971 -25.7148 -12.1856  -9.1935  -9.1332   1.3987
     2.1472   2.2279   2.3346   2.6897   3.1641   3.2972   3.8899   4.1489
     5.5911   7.7267   7.8156   8.9976  10.3956

     occupation numbers 
     1.0000   1.0000   1.0000   1.0000   1.0000   1.0000   1.0000   1.0000
     1.0000   1.0000   1.0000   1.0000   1.0000   1.0000   1.0000   1.0000
     1.0000  -0.0000  -0.0000  -0.0000  -0.0000

          k =-1.8540-0.1227-0.0000 ( 12146 PWs)   bands (ev):

   -49.8652 -26.1272 -25.7962 -25.7264 -12.3506  -9.2124  -9.1082   1.4925
     1.9538   2.6184   2.6548   3.0360   3.1257   3.6068   3.8574   3.8681
     5.7777   7.2914   7.5634   8.9111  10.0815

     occupation numbers 
     1.0000   1.0000   1.0000   1.0000   1.0000   1.0000   1.0000   1.0000
     1.0000   1.0000   1.0000   1.0000   1.0000   1.0000   1.0000   1.0000
     1.0000  -0.0060  -0.0001  -0.0000  -0.0000

          k =-1.7114 0.0000-0.0000 ( 12141 PWs)   bands (ev):

   -49.8633 -26.1155 -25.7912 -25.7569 -12.3942  -9.1974  -9.0456   1.5934
     1.6267   2.6965   2.7189   2.8136   3.4934   3.7039   3.7498   3.7751
     6.2083   7.0190   7.3776   8.7269   9.9461

     occupation numbers 
     1.0000   1.0000   1.0000   1.0000   1.0000   1.0000   1.0000   1.0000
     1.0000   1.0000   1.0000   1.0000   1.0000   1.0000   1.0000   1.0000
     1.0110  -0.0317  -0.0018  -0.0000  -0.0000

          k =-1.9966-1.7173-0.5415 ( 12132 PWs)   bands (ev):

   -49.8661 -26.1187 -25.7984 -25.7159 -12.4158  -9.2299  -9.1298   1.4720
     2.1082   2.6877   2.7648   3.3100   3.3244   3.3842   3.7743   4.0528
     5.5667   7.1911   7.5334   9.0096   9.9093

     occupation numbers 
     1.0000   1.0000   1.0000   1.0000   1.0000   1.0000   1.0000   1.0000
     1.0000   1.0000   1.0000   1.0000   1.0000   1.0000   1.0000   1.0000
     1.0000  -0.0179  -0.0001  -0.0000  -0.0000

     the Fermi energy is     6.7244 ev

!    total energy              =    -534.96736691 Ry

     total all-electron energy =     -9636.857609 Ry
     estimated scf accuracy    <          6.2E-12 Ry
     smearing contrib. (-TS)   =      -0.00035222 Ry
     internal energy E=F+TS    =    -534.96701469 Ry

     The total energy is F=E-TS. E is the sum of the following terms:
     one-electron contribution =     -93.93705929 Ry
     hartree contribution      =      61.20544802 Ry
     xc contribution           =     -39.53603530 Ry
     ewald contribution        =    -135.48921389 Ry
     one-center paw contrib.   =    -327.21015422 Ry
      -> PAW hartree energy AE =      29.11043801 Ry
      -> PAW hartree energy PS =     -29.08036668 Ry
      -> PAW xc energy AE      =     -17.04083517 Ry
      -> PAW xc energy PS      =       7.41669422 Ry
      -> total E_H with PAW    =      61.23551934 Ry
      -> total E_XC with PAW   =     -49.16017625 Ry

     convergence has been achieved in  13 iterations

     Forces acting on atoms (cartesian axes, Ry/au):

     atom    1 type  1   force =    -0.00000000   -0.00000000    0.00000000
     atom    2 type  2   force =     0.00000000    0.00000000    0.03608024
     atom    3 type  2   force =     0.00000000    0.00000000   -0.03608024
     atom    4 type  3   force =     0.00000000    0.00000000    0.00000000
     The non-local contrib.  to forces
     atom    1 type  1   force =    -0.00000000   -0.00000000    0.00000000
     atom    2 type  2   force =     0.00000000    0.00000000    0.06491822
     atom    3 type  2   force =     0.00000000    0.00000000   -0.06491822
     atom    4 type  3   force =     0.00000000    0.00000000    0.00000000
     The ionic contribution  to forces
     atom    1 type  1   force =    -0.00000000   -0.00000000    0.00000000
     atom    2 type  2   force =     0.00000001    0.00000000  -10.07462875
     atom    3 type  2   force =    -0.00000001   -0.00000000   10.07462875
     atom    4 type  3   force =    -0.00000000   -0.00000000    0.00000000
     The local contribution  to forces
     atom    1 type  1   force =     0.00000000    0.00000000    0.00000000
     atom    2 type  2   force =     0.00000002   -0.00000003   10.04428443
     atom    3 type  2   force =    -0.00000002    0.00000003  -10.04428443
     atom    4 type  3   force =     0.00000000    0.00000000    0.00000000
     The core correction contribution to forces
     atom    1 type  1   force =     0.00000000    0.00000000    0.00000000
     atom    2 type  2   force =    -0.00000000    0.00000000    0.00150544
     atom    3 type  2   force =     0.00000000   -0.00000000   -0.00150544
     atom    4 type  3   force =     0.00000000    0.00000000    0.00000000
     The Hubbard contrib.    to forces
     atom    1 type  1   force =     0.00000000    0.00000000    0.00000000
     atom    2 type  2   force =     0.00000000    0.00000000    0.00000000
     atom    3 type  2   force =     0.00000000    0.00000000    0.00000000
     atom    4 type  3   force =     0.00000000    0.00000000    0.00000000
     The SCF correction term to forces
     atom    1 type  1   force =     0.00000000   -0.00000000   -0.00000000
     atom    2 type  2   force =     0.00000000   -0.00000000    0.00000090
     atom    3 type  2   force =    -0.00000000    0.00000000   -0.00000090
     atom    4 type  3   force =     0.00000000    0.00000000   -0.00000000

     Total force =     0.051025     Total SCF correction =     0.000001


     Computing stress (Cartesian axis) and pressure

          total   stress  (Ry/bohr**3)                   (kbar)     P=      -39.09
  -0.00027899   0.00000000  -0.00000000          -41.04        0.00       -0.00
   0.00000000  -0.00025601   0.00000000            0.00      -37.66        0.00
  -0.00000000   0.00000000  -0.00026220           -0.00        0.00      -38.57

     kinetic stress (kbar)  14767.96      0.00      0.00
                               -0.00  14800.61      0.00
                                0.00      0.00  14781.26

     local   stress (kbar) -18913.57     -0.00      0.00
                               -0.00 -24176.74      0.00
                                0.00      0.00   4089.95

     nonloc. stress (kbar)   8009.53      0.00      0.00
                                0.00   7931.40      0.00
                                0.00      0.00   8006.47

     hartree stress (kbar)   8380.48      0.00     -0.00
                                0.00  10099.29      0.00
                               -0.00      0.00  -2047.72

     exc-cor stress (kbar)  -1130.88     -0.00     -0.00
                               -0.00  -1121.77     -0.00
                               -0.00     -0.00  -1130.46

     corecor stress (kbar)  -2029.44      0.00      0.00
                                0.00  -2028.99      0.00
                                0.00      0.00  -2029.38

     ewald   stress (kbar)  -9125.13      0.00     -0.00
                                0.00  -5541.44     -0.00
                               -0.00     -0.00 -21708.70

     hubbard stress (kbar)      0.00      0.00      0.00
                                0.00      0.00      0.00
                                0.00      0.00      0.00

     DFT-D   stress (kbar)      0.00      0.00      0.00
                                0.00      0.00      0.00
                                0.00      0.00      0.00

     XDM     stress (kbar)      0.00      0.00      0.00
                                0.00      0.00      0.00
                                0.00      0.00      0.00

     dft-nl  stress (kbar)      0.00      0.00      0.00
                                0.00      0.00      0.00
                                0.00      0.00      0.00

     TS-vdW  stress (kbar)      0.00      0.00      0.00
                                0.00      0.00      0.00
                                0.00      0.00      0.00



     Writing output data file /zfs_data/gutierre/Scratch/Cl2NbO/smearing/14x14x14/0.020/tmp/Cl2NbO.save/
 
     init_run     :      9.14s CPU      9.50s WALL (       1 calls)
     electrons    :    274.90s CPU    281.32s WALL (       1 calls)
     forces       :      1.20s CPU      1.21s WALL (       1 calls)
     stress       :      3.22s CPU      3.24s WALL (       1 calls)

     Called by init_run:
     wfcinit      :      7.90s CPU      8.15s WALL (       1 calls)
     wfcinit:atom :      0.06s CPU      0.06s WALL (     428 calls)
     wfcinit:wfcr :      7.60s CPU      7.84s WALL (     428 calls)
     potinit      :      0.42s CPU      0.44s WALL (       1 calls)
     hinit0       :      0.46s CPU      0.50s WALL (       1 calls)

     Called by electrons:
     c_bands      :    225.15s CPU    230.39s WALL (      13 calls)
     sum_band     :     46.54s CPU     47.60s WALL (      13 calls)
     v_of_rho     :      1.25s CPU      1.31s WALL (      14 calls)
     v_h          :      0.10s CPU      0.11s WALL (      14 calls)
     v_xc         :      1.31s CPU      1.37s WALL (      16 calls)
     newd         :      1.08s CPU      1.10s WALL (      14 calls)
     PAW_pot      :      0.73s CPU      0.74s WALL (      14 calls)
     mix_rho      :      0.19s CPU      0.19s WALL (      13 calls)

     Called by c_bands:
     init_us_2    :      3.01s CPU      3.16s WALL (   12412 calls)
     cegterg      :    218.76s CPU    223.63s WALL (    5564 calls)

     Called by sum_band:
     sum_band:wei :      0.21s CPU      0.24s WALL (      13 calls)
     sum_band:loo :     45.10s CPU     46.08s WALL (      13 calls)
     sum_band:buf :      0.44s CPU      0.46s WALL (    5564 calls)
     sum_band:ini :      1.41s CPU      1.46s WALL (    5564 calls)
     sum_band:cal :      1.46s CPU      1.48s WALL (    5564 calls)
     sum_band:bec :      0.17s CPU      0.17s WALL (    5564 calls)
     addusdens    :      1.06s CPU      1.10s WALL (      13 calls)
     addusd:skk   :      0.01s CPU      0.01s WALL (      39 calls)
     addusd:dgemm :      0.24s CPU      0.27s WALL (      39 calls)
     addusd:qvan2 :      0.75s CPU      0.75s WALL (      39 calls)

     Called by *egterg:
     cdiaghg      :     11.97s CPU     12.34s WALL (   20582 calls)
     cegterg:over :      4.26s CPU      4.37s WALL (   15018 calls)
     cegterg:upda :      1.31s CPU      1.34s WALL (   15018 calls)
     cegterg:last :      2.11s CPU      2.14s WALL (   11022 calls)
     h_psi        :    200.92s CPU    205.42s WALL (   21010 calls)
     s_psi        :      1.41s CPU      1.43s WALL (   21010 calls)
     g_psi        :      0.28s CPU      0.28s WALL (   15018 calls)

     Called by h_psi:
     h_psi:calbec :      4.76s CPU      4.86s WALL (   21010 calls)
     vloc_psi     :    193.27s CPU    197.61s WALL (   21010 calls)
     add_vuspsi   :      2.16s CPU      2.21s WALL (   21010 calls)

     General routines
     calbec       :      6.37s CPU      6.52s WALL (   28714 calls)
     fft          :      1.08s CPU      1.09s WALL (     205 calls)
     ffts         :      0.02s CPU      0.02s WALL (      27 calls)
     fftw         :    211.16s CPU    216.02s WALL (  719336 calls)
     interpolate  :      0.10s CPU      0.10s WALL (      14 calls)
 
     Parallel routines
     fft_scatt_xy :     27.54s CPU     27.98s WALL (  719568 calls)
     fft_scatt_yz :     92.04s CPU     94.17s WALL (  719568 calls)

     PAW routines
     PAW_pot      :      0.73s CPU      0.74s WALL (      14 calls)
     PAW_symme    :      0.01s CPU      0.01s WALL (      27 calls)
 
     PWSCF        :   4m51.18s CPU   5m 2.31s WALL

 
   This run was terminated on:  17:49: 6  18May2022            

=------------------------------------------------------------------------------=
   JOB DONE.
=------------------------------------------------------------------------------=
