MPI startup(): Warning: I_MPI_PMI_LIBRARY will be ignored since the hydra process manager was found
MPI startup(): Warning: I_MPI_PMI_LIBRARY will be ignored since the hydra process manager was found
MPI startup(): Warning: I_MPI_PMI_LIBRARY will be ignored since the hydra process manager was found
MPI startup(): Warning: I_MPI_PMI_LIBRARY will be ignored since the hydra process manager was found
MPI startup(): Warning: I_MPI_PMI_LIBRARY will be ignored since the hydra process manager was found
MPI startup(): Warning: I_MPI_PMI_LIBRARY will be ignored since the hydra process manager was found
MPI startup(): Warning: I_MPI_PMI_LIBRARY will be ignored since the hydra process manager was found
MPI startup(): Warning: I_MPI_PMI_LIBRARY will be ignored since the hydra process manager was found
MPI startup(): Warning: I_MPI_PMI_LIBRARY will be ignored since the hydra process manager was found
MPI startup(): Warning: I_MPI_PMI_LIBRARY will be ignored since the hydra process manager was found
MPI startup(): Warning: I_MPI_PMI_LIBRARY will be ignored since the hydra process manager was found
MPI startup(): Warning: I_MPI_PMI_LIBRARY will be ignored since the hydra process manager was found
MPI startup(): Warning: I_MPI_PMI_LIBRARY will be ignored since the hydra process manager was found
MPI startup(): Warning: I_MPI_PMI_LIBRARY will be ignored since the hydra process manager was found
MPI startup(): Warning: I_MPI_PMI_LIBRARY will be ignored since the hydra process manager was found
MPI startup(): Warning: I_MPI_PMI_LIBRARY will be ignored since the hydra process manager was found
MPI startup(): Warning: I_MPI_PMI_LIBRARY will be ignored since the hydra process manager was found
MPI startup(): Warning: I_MPI_PMI_LIBRARY will be ignored since the hydra process manager was found
MPI startup(): Warning: I_MPI_PMI_LIBRARY will be ignored since the hydra process manager was found
MPI startup(): Warning: I_MPI_PMI_LIBRARY will be ignored since the hydra process manager was found
MPI startup(): Warning: I_MPI_PMI_LIBRARY will be ignored since the hydra process manager was found
MPI startup(): Warning: I_MPI_PMI_LIBRARY will be ignored since the hydra process manager was found
MPI startup(): Warning: I_MPI_PMI_LIBRARY will be ignored since the hydra process manager was found
MPI startup(): Warning: I_MPI_PMI_LIBRARY will be ignored since the hydra process manager was found

     Program PWSCF v.6.7MaX starts on  1Aug2021 at 12:42:19 

     This program is part of the open-source Quantum ESPRESSO suite
     for quantum simulation of materials; please cite
         "P. Giannozzi et al., J. Phys.:Condens. Matter 21 395502 (2009);
         "P. Giannozzi et al., J. Phys.:Condens. Matter 29 465901 (2017);
          URL http://www.quantum-espresso.org", 
     in publications or presentations arising from this work. More details at
     http://www.quantum-espresso.org/quote

     Parallel version (MPI), running on    24 processors

     MPI processes distributed on     1 nodes
     R & G space division:  proc/nbgrp/npool/nimage =      24
     Waiting for input...
     Reading input from standard input

     Current dimensions of program PWSCF are:
     Max number of different atomic species (ntypx) = 10
     Max number of k-points (npk) =  40000
     Max angular momentum in pseudopotentials (lmaxx) =  3
     file Cr.rel-pbe-spn-kjpaw_psl.1.0.0.UPF: wavefunction(s)  3S 3P 3P 3D 3D renormalized
     file Si.rel-pbe-n-kjpaw_psl.1.0.0.UPF: wavefunction(s)  3S 3P 3P renormalized

     Subspace diagonalization in iterative solution of the eigenvalue problem:
     a serial algorithm will be used

     Message from routine setup:
     using ibrav=0 with symmetry is DISCOURAGED, use correct ibrav instead
 
     Parallelization info
     --------------------
     sticks:   dense  smooth     PW     G-vecs:    dense   smooth      PW
     Min         228      91     25                12702     3210     487
     Max         229      93     26                12704     3214     492
     Sum        5473    2201    621               304867    77053   11753
 


     bravais-lattice index     =            0
     lattice parameter (alat)  =       8.7475  a.u.
     unit-cell volume          =     669.3575 (a.u.)^3
     number of atoms/cell      =            8
     number of atomic types    =            2
     number of electrons       =        72.00
     number of Kohn-Sham states=           86
     kinetic-energy cutoff     =      90.0000  Ry
     charge density cutoff     =     900.0000  Ry
     scf convergence threshold =      1.0E-06
     mixing beta               =       0.7000
     number of iterations used =            8  plain     mixing
     Exchange-correlation= SLA  PW   PBX  PBC
                           (   1   4   3   4   0   0   0)
     Non magnetic calculation with spin-orbit


     celldm(1)=   8.747542  celldm(2)=   0.000000  celldm(3)=   0.000000
     celldm(4)=   0.000000  celldm(5)=   0.000000  celldm(6)=   0.000000

     crystal axes: (cart. coord. in units of alat)
               a(1) = (   1.000000   0.000000   0.000000 )  
               a(2) = (   0.000000   1.000000   0.000000 )  
               a(3) = (   0.000000   0.000000   1.000000 )  

     reciprocal axes: (cart. coord. in units 2 pi/alat)
               b(1) = (  1.000000  0.000000  0.000000 )  
               b(2) = (  0.000000  1.000000  0.000000 )  
               b(3) = (  0.000000  0.000000  1.000000 )  


     PseudoPot. # 1 for Cr read from file:
     ../../../../pseudo/Cr.rel-pbe-spn-kjpaw_psl.1.0.0.UPF
     MD5 check sum: 1e24e2b5251376a8b945118fca0c7981
     Pseudo is Projector augmented-wave + core cor, Zval = 14.0
     Generated using &quot;atomic&quot; code by A. Dal Corso  v.6.3
     Shape of augmentation charge: PSQ
     Using radial grid of 1183 points, 10 beta functions with: 
                l(1) =   0
                l(2) =   0
                l(3) =   1
                l(4) =   1
                l(5) =   1
                l(6) =   1
                l(7) =   2
                l(8) =   2
                l(9) =   2
               l(10) =   2
     Q(r) pseudized with 0 coefficients 


     PseudoPot. # 2 for Si read from file:
     ../../../../pseudo/Si.rel-pbe-n-kjpaw_psl.1.0.0.UPF
     MD5 check sum: d74f6caf6830ea4c2076867160cab1b0
     Pseudo is Projector augmented-wave + core cor, Zval =  4.0
     Generated using &quot;atomic&quot; code by A. Dal Corso  v.6.3
     Shape of augmentation charge: PSQ
     Using radial grid of 1141 points, 10 beta functions with: 
                l(1) =   0
                l(2) =   0
                l(3) =   1
                l(4) =   1
                l(5) =   1
                l(6) =   1
                l(7) =   2
                l(8) =   2
                l(9) =   2
               l(10) =   2
     Q(r) pseudized with 0 coefficients 


     atomic species   valence    mass     pseudopotential
        Cr            14.00    51.99600     Cr( 1.00)
        Si             4.00    28.08500     Si( 1.00)

     12 Sym. Ops. (no inversion) found ( 9 have fractional translation)


                                    s                        frac. trans.

      isym =  1     identity                                     

 cryst.   s( 1) = (     1          0          0      )
                  (     0          1          0      )
                  (     0          0          1      )

 cart.    s( 1) = (  1.0000000  0.0000000  0.0000000 )
                  (  0.0000000  1.0000000  0.0000000 )
                  (  0.0000000  0.0000000  1.0000000 )


      isym =  2     180 deg rotation - cart. axis [0,0,1]        

 cryst.   s( 2) = (    -1          0          0      )    f =(  0.5000000 )
                  (     0         -1          0      )       (  0.0000000 )
                  (     0          0          1      )       ( -0.5000000 )

 cart.    s( 2) = ( -1.0000000  0.0000000  0.0000000 )    f =(  0.5000000 )
                  (  0.0000000 -1.0000000  0.0000000 )       (  0.0000000 )
                  (  0.0000000  0.0000000  1.0000000 )       ( -0.5000000 )


      isym =  3     180 deg rotation - cart. axis [0,1,0]        

 cryst.   s( 3) = (    -1          0          0      )    f =(  0.0000000 )
                  (     0          1          0      )       ( -0.5000000 )
                  (     0          0         -1      )       (  0.5000000 )

 cart.    s( 3) = ( -1.0000000  0.0000000  0.0000000 )    f =(  0.0000000 )
                  (  0.0000000  1.0000000  0.0000000 )       ( -0.5000000 )
                  (  0.0000000  0.0000000 -1.0000000 )       (  0.5000000 )


      isym =  4     180 deg rotation - cart. axis [1,0,0]        

 cryst.   s( 4) = (     1          0          0      )    f =(  0.5000000 )
                  (     0         -1          0      )       (  0.5000000 )
                  (     0          0         -1      )       (  0.0000000 )

 cart.    s( 4) = (  1.0000000  0.0000000  0.0000000 )    f =(  0.5000000 )
                  (  0.0000000 -1.0000000  0.0000000 )       (  0.5000000 )
                  (  0.0000000  0.0000000 -1.0000000 )       (  0.0000000 )


      isym =  5     120 deg rotation - cart. axis [-1,-1,-1]     

 cryst.   s( 5) = (     0          0          1      )
                  (     1          0          0      )
                  (     0          1          0      )

 cart.    s( 5) = (  0.0000000  1.0000000  0.0000000 )
                  (  0.0000000  0.0000000  1.0000000 )
                  (  1.0000000  0.0000000  0.0000000 )


      isym =  6     120 deg rotation - cart. axis [-1,1,1]       

 cryst.   s( 6) = (     0          0         -1      )    f =(  0.0000000 )
                  (    -1          0          0      )       ( -0.5000000 )
                  (     0          1          0      )       (  0.5000000 )

 cart.    s( 6) = (  0.0000000 -1.0000000  0.0000000 )    f =(  0.0000000 )
                  (  0.0000000  0.0000000  1.0000000 )       ( -0.5000000 )
                  ( -1.0000000  0.0000000  0.0000000 )       (  0.5000000 )


      isym =  7     120 deg rotation - cart. axis [1,1,-1]       

 cryst.   s( 7) = (     0          0         -1      )    f =(  0.5000000 )
                  (     1          0          0      )       (  0.5000000 )
                  (     0         -1          0      )       (  0.0000000 )

 cart.    s( 7) = (  0.0000000  1.0000000  0.0000000 )    f =(  0.5000000 )
                  (  0.0000000  0.0000000 -1.0000000 )       (  0.5000000 )
                  ( -1.0000000  0.0000000  0.0000000 )       (  0.0000000 )


      isym =  8     120 deg rotation - cart. axis [1,-1,1]       

 cryst.   s( 8) = (     0          0          1      )    f =(  0.5000000 )
                  (    -1          0          0      )       (  0.0000000 )
                  (     0         -1          0      )       ( -0.5000000 )

 cart.    s( 8) = (  0.0000000 -1.0000000  0.0000000 )    f =(  0.5000000 )
                  (  0.0000000  0.0000000 -1.0000000 )       (  0.0000000 )
                  (  1.0000000  0.0000000  0.0000000 )       ( -0.5000000 )


      isym =  9     120 deg rotation - cart. axis [1,1,1]        

 cryst.   s( 9) = (     0          1          0      )
                  (     0          0          1      )
                  (     1          0          0      )

 cart.    s( 9) = (  0.0000000  0.0000000  1.0000000 )
                  (  1.0000000  0.0000000  0.0000000 )
                  (  0.0000000  1.0000000  0.0000000 )


      isym = 10     120 deg rotation - cart. axis [-1,1,-1]      

 cryst.   s(10) = (     0         -1          0      )    f =(  0.5000000 )
                  (     0          0         -1      )       (  0.5000000 )
                  (     1          0          0      )       (  0.0000000 )

 cart.    s(10) = (  0.0000000  0.0000000  1.0000000 )    f =(  0.5000000 )
                  ( -1.0000000  0.0000000  0.0000000 )       (  0.5000000 )
                  (  0.0000000 -1.0000000  0.0000000 )       (  0.0000000 )


      isym = 11     120 deg rotation - cart. axis [1,-1,-1]      

 cryst.   s(11) = (     0         -1          0      )    f =(  0.5000000 )
                  (     0          0          1      )       (  0.0000000 )
                  (    -1          0          0      )       ( -0.5000000 )

 cart.    s(11) = (  0.0000000  0.0000000 -1.0000000 )    f =(  0.5000000 )
                  ( -1.0000000  0.0000000  0.0000000 )       (  0.0000000 )
                  (  0.0000000  1.0000000  0.0000000 )       ( -0.5000000 )


      isym = 12     120 deg rotation - cart. axis [-1,-1,1]      

 cryst.   s(12) = (     0          1          0      )    f =(  0.0000000 )
                  (     0          0         -1      )       ( -0.5000000 )
                  (    -1          0          0      )       (  0.5000000 )

 cart.    s(12) = (  0.0000000  0.0000000 -1.0000000 )    f =(  0.0000000 )
                  (  1.0000000  0.0000000  0.0000000 )       ( -0.5000000 )
                  (  0.0000000 -1.0000000  0.0000000 )       (  0.5000000 )


   Cartesian axes

     site n.     atom                  positions (alat units)
         1           Cr  tau(   1) = (   0.8640000   0.3640000   0.1360000  )
         2           Cr  tau(   2) = (   0.3640000   0.1360000   0.8640000  )
         3           Cr  tau(   3) = (   0.1360000   0.8640000   0.3640000  )
         4           Cr  tau(   4) = (   0.6360000   0.6360000   0.6360000  )
         5           Si  tau(   5) = (   0.1540000   0.6540000   0.8460000  )
         6           Si  tau(   6) = (   0.6540000   0.8460000   0.1540000  )
         7           Si  tau(   7) = (   0.8460000   0.1540000   0.6540000  )
         8           Si  tau(   8) = (   0.3460000   0.3460000   0.3460000  )

   Crystallographic axes

     site n.     atom                  positions (cryst. coord.)
         1           Cr  tau(   1) = (  0.8640000  0.3640000  0.1360000  )
         2           Cr  tau(   2) = (  0.3640000  0.1360000  0.8640000  )
         3           Cr  tau(   3) = (  0.1360000  0.8640000  0.3640000  )
         4           Cr  tau(   4) = (  0.6360000  0.6360000  0.6360000  )
         5           Si  tau(   5) = (  0.1540000  0.6540000  0.8460000  )
         6           Si  tau(   6) = (  0.6540000  0.8460000  0.1540000  )
         7           Si  tau(   7) = (  0.8460000  0.1540000  0.6540000  )
         8           Si  tau(   8) = (  0.3460000  0.3460000  0.3460000  )

     number of k points=    24  Methfessel-Paxton smearing, width (Ry)=  0.0140
                       cart. coord. in units 2pi/alat
        k(    1) = (   0.0000000   0.0000000   0.0000000), wk =   0.0046296
        k(    2) = (   0.0000000   0.0000000   0.1666667), wk =   0.0277778
        k(    3) = (   0.0000000   0.0000000   0.3333333), wk =   0.0277778
        k(    4) = (   0.0000000   0.0000000  -0.5000000), wk =   0.0138889
        k(    5) = (   0.0000000   0.1666667   0.1666667), wk =   0.0555556
        k(    6) = (   0.0000000   0.1666667   0.3333333), wk =   0.0555556
        k(    7) = (   0.0000000   0.1666667  -0.5000000), wk =   0.0277778
        k(    8) = (   0.0000000   0.3333333   0.3333333), wk =   0.0555556
        k(    9) = (   0.0000000   0.3333333  -0.5000000), wk =   0.0277778
        k(   10) = (   0.0000000  -0.5000000  -0.5000000), wk =   0.0138889
        k(   11) = (   0.1666667   0.1666667   0.1666667), wk =   0.0370370
        k(   12) = (   0.1666667   0.1666667   0.3333333), wk =   0.1111111
        k(   13) = (   0.1666667   0.1666667  -0.5000000), wk =   0.0555556
        k(   14) = (   0.1666667   0.3333333   0.3333333), wk =   0.1111111
        k(   15) = (   0.1666667   0.3333333  -0.5000000), wk =   0.0555556
        k(   16) = (   0.1666667  -0.5000000  -0.5000000), wk =   0.0277778
        k(   17) = (   0.3333333   0.3333333   0.3333333), wk =   0.0370370
        k(   18) = (   0.3333333   0.3333333  -0.5000000), wk =   0.0555556
        k(   19) = (   0.3333333  -0.5000000  -0.5000000), wk =   0.0277778
        k(   20) = (  -0.5000000  -0.5000000  -0.5000000), wk =   0.0046296
        k(   21) = (   0.0000000   0.3333333   0.1666667), wk =   0.0555556
        k(   22) = (   0.0000000  -0.5000000   0.1666667), wk =   0.0277778
        k(   23) = (   0.0000000  -0.5000000   0.3333333), wk =   0.0277778
        k(   24) = (  -0.1666667  -0.5000000   0.3333333), wk =   0.0555556

                       cryst. coord.
        k(    1) = (   0.0000000   0.0000000   0.0000000), wk =   0.0046296
        k(    2) = (   0.0000000   0.0000000   0.1666667), wk =   0.0277778
        k(    3) = (   0.0000000   0.0000000   0.3333333), wk =   0.0277778
        k(    4) = (   0.0000000   0.0000000  -0.5000000), wk =   0.0138889
        k(    5) = (   0.0000000   0.1666667   0.1666667), wk =   0.0555556
        k(    6) = (   0.0000000   0.1666667   0.3333333), wk =   0.0555556
        k(    7) = (   0.0000000   0.1666667  -0.5000000), wk =   0.0277778
        k(    8) = (   0.0000000   0.3333333   0.3333333), wk =   0.0555556
        k(    9) = (   0.0000000   0.3333333  -0.5000000), wk =   0.0277778
        k(   10) = (   0.0000000  -0.5000000  -0.5000000), wk =   0.0138889
        k(   11) = (   0.1666667   0.1666667   0.1666667), wk =   0.0370370
        k(   12) = (   0.1666667   0.1666667   0.3333333), wk =   0.1111111
        k(   13) = (   0.1666667   0.1666667  -0.5000000), wk =   0.0555556
        k(   14) = (   0.1666667   0.3333333   0.3333333), wk =   0.1111111
        k(   15) = (   0.1666667   0.3333333  -0.5000000), wk =   0.0555556
        k(   16) = (   0.1666667  -0.5000000  -0.5000000), wk =   0.0277778
        k(   17) = (   0.3333333   0.3333333   0.3333333), wk =   0.0370370
        k(   18) = (   0.3333333   0.3333333  -0.5000000), wk =   0.0555556
        k(   19) = (   0.3333333  -0.5000000  -0.5000000), wk =   0.0277778
        k(   20) = (  -0.5000000  -0.5000000  -0.5000000), wk =   0.0046296
        k(   21) = (   0.0000000   0.3333333   0.1666667), wk =   0.0555556
        k(   22) = (   0.0000000  -0.5000000   0.1666667), wk =   0.0277778
        k(   23) = (   0.0000000  -0.5000000   0.3333333), wk =   0.0277778
        k(   24) = (  -0.1666667  -0.5000000   0.3333333), wk =   0.0555556

     Dense  grid:   304867 G-vectors     FFT dimensions: (  90,  90,  90)

     Smooth grid:    77053 G-vectors     FFT dimensions: (  54,  54,  54)

     Dynamical RAM for                 wfc:       1.06 MB

     Dynamical RAM for     wfc (w. buffer):      26.38 MB

     Dynamical RAM for           str. fact:       0.39 MB

     Dynamical RAM for           local pot:       0.00 MB

     Dynamical RAM for          nlocal pot:       1.67 MB

     Dynamical RAM for                qrad:      12.61 MB

     Dynamical RAM for          rho,v,vnew:       5.29 MB

     Dynamical RAM for               rhoin:       1.76 MB

     Dynamical RAM for            rho*nmix:      12.41 MB

     Dynamical RAM for           G-vectors:       0.75 MB

     Dynamical RAM for          h,s,v(r/c):       1.35 MB

     Dynamical RAM for          <psi|beta>:       0.71 MB

     Dynamical RAM for                 psi:       2.11 MB

     Dynamical RAM for                hpsi:       2.11 MB

     Dynamical RAM for                spsi:       2.11 MB

     Dynamical RAM for      wfcinit/wfcrot:       2.35 MB

     Dynamical RAM for           addusdens:     119.02 MB

     Dynamical RAM for          addusforce:     120.34 MB

     Dynamical RAM for         addusstress:     121.74 MB

     Estimated static dynamical RAM per process >      63.81 MB

     Estimated max dynamical RAM per process >     185.55 MB

     Estimated total dynamical RAM >       4.35 GB

     Initial potential from superposition of free atoms

     starting charge   71.99469, renormalised to   72.00000
     Starting wfcs are  112 randomized atomic wfcs
     Checking if some PAW data can be deallocated... 
       PAW data deallocated on   12 nodes for type:  1
       PAW data deallocated on   12 nodes for type:  2

     total cpu time spent up to now is        7.4 secs

     Self-consistent Calculation

     iteration #  1     ecut=    90.00 Ry     beta= 0.70
     Davidson diagonalization with overlap
     ethr =  1.00E-02,  avg # of iterations =  2.0

     Threshold (ethr) on eigenvalues was too large:
     Diagonalizing with lowered threshold

     Davidson diagonalization with overlap
     ethr =  2.09E-04,  avg # of iterations =  4.5

     total cpu time spent up to now is       31.1 secs

     total energy              =   -1180.30940231 Ry
     estimated scf accuracy    <       0.18810442 Ry

     iteration #  2     ecut=    90.00 Ry     beta= 0.70
     Davidson diagonalization with overlap
     ethr =  2.61E-04,  avg # of iterations =  3.1

     total cpu time spent up to now is       43.4 secs

     total energy              =   -1180.31665033 Ry
     estimated scf accuracy    <       0.07475170 Ry

     iteration #  3     ecut=    90.00 Ry     beta= 0.70
     Davidson diagonalization with overlap
     ethr =  1.04E-04,  avg # of iterations =  5.0

     total cpu time spent up to now is       58.2 secs

     total energy              =   -1180.32604424 Ry
     estimated scf accuracy    <       0.15762901 Ry

     iteration #  4     ecut=    90.00 Ry     beta= 0.70
     Davidson diagonalization with overlap
     ethr =  1.04E-04,  avg # of iterations =  4.1

     total cpu time spent up to now is       70.4 secs

     total energy              =   -1180.34950066 Ry
     estimated scf accuracy    <       0.00051588 Ry

     iteration #  5     ecut=    90.00 Ry     beta= 0.70
     Davidson diagonalization with overlap
     ethr =  7.17E-07,  avg # of iterations =  7.6

     total cpu time spent up to now is       87.4 secs

     total energy              =   -1180.35005627 Ry
     estimated scf accuracy    <       0.00017251 Ry

     iteration #  6     ecut=    90.00 Ry     beta= 0.70
     Davidson diagonalization with overlap
     ethr =  2.40E-07,  avg # of iterations =  3.5

     total cpu time spent up to now is       98.5 secs

     End of self-consistent calculation

          k = 0.0000 0.0000 0.0000 (  9771 PWs)   bands (ev):

   -56.5088 -56.5088 -56.4741 -56.4741 -56.4741 -56.4741 -56.4741 -56.4741
   -28.5742 -28.5742 -28.5668 -28.5668 -28.5668 -28.5668 -28.4774 -28.4774
   -27.6084 -27.6084 -27.6084 -27.6084 -27.5318 -27.5318 -27.5318 -27.5318
   -27.5278 -27.5278 -27.4454 -27.4454 -27.4448 -27.4448 -27.4448 -27.4448
     2.6979   2.6979   7.4564   7.4564   7.4564   7.4564   7.4655   7.4655
    10.5375  10.5375  10.5454  10.5454  10.5454  10.5454  11.9120  11.9120
    11.9120  11.9120  11.9231  11.9231  12.6046  12.6046  12.7737  12.7737
    12.7737  12.7737  13.1474  13.1474  13.1474  13.1474  13.1485  13.1485
    13.6746  13.6746  13.6746  13.6746  13.6783  13.6783  15.5561  15.5561
    15.5873  15.5873  15.5873  15.5873  15.7719  15.7719  15.7719  15.7719
    16.6695  16.6695  16.6998  16.6998  16.6998  16.6998

     occupation numbers 
     1.0000   1.0000   1.0000   1.0000   1.0000   1.0000   1.0000   1.0000
     1.0000   1.0000   1.0000   1.0000   1.0000   1.0000   1.0000   1.0000
     1.0000   1.0000   1.0000   1.0000   1.0000   1.0000   1.0000   1.0000
     1.0000   1.0000   1.0000   1.0000   1.0000   1.0000   1.0000   1.0000
     1.0000   1.0000   1.0000   1.0000   1.0000   1.0000   1.0000   1.0000
     1.0000   1.0000   1.0000   1.0000   1.0000   1.0000   1.0000   1.0000
     1.0000   1.0000   1.0000   1.0000   1.0000   1.0000   1.0000   1.0000
     1.0000   1.0000   1.0000   1.0000   1.0000   1.0000   1.0000   1.0000
     1.0000   1.0000   1.0000   1.0000   1.0000   1.0000  -0.0000  -0.0000
    -0.0000  -0.0000  -0.0000  -0.0000  -0.0000  -0.0000  -0.0000  -0.0000
    -0.0000  -0.0000  -0.0000  -0.0000  -0.0000  -0.0000

          k = 0.0000 0.0000 0.1667 (  9663 PWs)   bands (ev):

   -56.5070 -56.5070 -56.4797 -56.4797 -56.4735 -56.4735 -56.4708 -56.4708
   -28.5819 -28.5750 -28.5710 -28.5703 -28.5562 -28.5530 -28.4825 -28.4824
   -27.6251 -27.6170 -27.5953 -27.5876 -27.5446 -27.5387 -27.5351 -27.5255
   -27.5228 -27.5108 -27.4556 -27.4535 -27.4505 -27.4436 -27.4425 -27.4374
     2.8899   2.8899   6.5393   6.5418   7.5626   7.5645   8.1194   8.1287
     9.9485   9.9527  10.6631  10.6656  11.0720  11.0749  11.2879  11.2887
    11.5008  11.5055  12.4509  12.4613  12.7406  12.7629  12.8044  12.8110
    13.0134  13.0167  13.1115  13.1140  13.2009  13.2029  13.2317  13.2320
    13.5344  13.5444  13.6347  13.6372  13.9662  13.9667  15.2979  15.3188
    15.4218  15.4293  15.6986  15.7081  15.7538  15.7723  15.7963  15.8219
    16.4113  16.4268  16.5994  16.6069  16.9941  17.0146

     occupation numbers 
     1.0000   1.0000   1.0000   1.0000   1.0000   1.0000   1.0000   1.0000
     1.0000   1.0000   1.0000   1.0000   1.0000   1.0000   1.0000   1.0000
     1.0000   1.0000   1.0000   1.0000   1.0000   1.0000   1.0000   1.0000
     1.0000   1.0000   1.0000   1.0000   1.0000   1.0000   1.0000   1.0000
     1.0000   1.0000   1.0000   1.0000   1.0000   1.0000   1.0000   1.0000
     1.0000   1.0000   1.0000   1.0000   1.0000   1.0000   1.0000   1.0000
     1.0000   1.0000   1.0000   1.0000   1.0000   1.0000   1.0000   1.0000
     1.0000   1.0000   1.0000   1.0000   1.0000   1.0000   1.0000   1.0000
     1.0000   1.0000   1.0000   1.0000   1.0000   1.0000  -0.0133  -0.0096
    -0.0013  -0.0011  -0.0000  -0.0000  -0.0000  -0.0000  -0.0000  -0.0000
    -0.0000  -0.0000  -0.0000  -0.0000  -0.0000  -0.0000

          k = 0.0000 0.0000 0.3333 (  9606 PWs)   bands (ev):

   -56.5021 -56.5021 -56.4870 -56.4870 -56.4721 -56.4721 -56.4698 -56.4698
   -28.5845 -28.5779 -28.5767 -28.5729 -28.5374 -28.5349 -28.4964 -28.4959
   -27.6328 -27.6249 -27.5770 -27.5725 -27.5571 -27.5372 -27.5320 -27.5234
   -27.5214 -27.4915 -27.4729 -27.4601 -27.4572 -27.4462 -27.4417 -27.4356
     3.4503   3.4504   5.4194   5.4201   7.8599   7.8639   8.5099   8.5195
     9.6516   9.6531  10.6592  10.6615  10.7711  10.7836  11.0447  11.0477
    11.8643  11.8662  12.1358  12.1515  12.8399  12.8560  12.9349  12.9444
    13.1180  13.1239  13.1737  13.1788  13.2616  13.2644  13.3965  13.3989
    13.4546  13.4565  13.9189  13.9227  14.1204  14.1271  14.8933  14.9275
    15.3630  15.3715  15.5414  15.5598  15.7496  15.7779  15.8588  15.8829
    16.1991  16.2149  16.3748  16.3884  17.3090  17.3251

     occupation numbers 
     1.0000   1.0000   1.0000   1.0000   1.0000   1.0000   1.0000   1.0000
     1.0000   1.0000   1.0000   1.0000   1.0000   1.0000   1.0000   1.0000
     1.0000   1.0000   1.0000   1.0000   1.0000   1.0000   1.0000   1.0000
     1.0000   1.0000   1.0000   1.0000   1.0000   1.0000   1.0000   1.0000
     1.0000   1.0000   1.0000   1.0000   1.0000   1.0000   1.0000   1.0000
     1.0000   1.0000   1.0000   1.0000   1.0000   1.0000   1.0000   1.0000
     1.0000   1.0000   1.0000   1.0000   1.0000   1.0000   1.0000   1.0000
     1.0000   1.0000   1.0000   1.0000   1.0000   1.0000   1.0000   1.0000
     1.0000   1.0000   1.0000   1.0000   1.0000   1.0000   0.7363   0.5954
    -0.0044  -0.0037  -0.0000  -0.0000  -0.0000  -0.0000  -0.0000  -0.0000
    -0.0000  -0.0000  -0.0000  -0.0000  -0.0000  -0.0000

          k = 0.0000 0.0000-0.5000 (  9658 PWs)   bands (ev):

   -56.4950 -56.4950 -56.4950 -56.4950 -56.4705 -56.4705 -56.4705 -56.4705
   -28.5821 -28.5821 -28.5764 -28.5764 -28.5161 -28.5161 -28.5147 -28.5147
   -27.6317 -27.6317 -27.5669 -27.5669 -27.5517 -27.5517 -27.5286 -27.5286
   -27.4981 -27.4981 -27.4739 -27.4739 -27.4520 -27.4520 -27.4385 -27.4385
     4.3278   4.3278   4.3280   4.3280   8.2826   8.2826   8.2890   8.2890
    10.0168  10.0168  10.0208  10.0208  10.8980  10.8980  10.9092  10.9092
    12.2490  12.2490  12.2555  12.2555  12.6869  12.6869  12.6994  12.6994
    13.1450  13.1450  13.1454  13.1454  13.2408  13.2408  13.2444  13.2444
    13.7854  13.7854  13.7885  13.7885  14.5688  14.5688  14.5973  14.5973
    15.4068  15.4068  15.4246  15.4246  15.8110  15.8110  15.8407  15.8408
    16.1703  16.1704  16.1840  16.1841  17.5482  17.5513

     occupation numbers 
     1.0000   1.0000   1.0000   1.0000   1.0000   1.0000   1.0000   1.0000
     1.0000   1.0000   1.0000   1.0000   1.0000   1.0000   1.0000   1.0000
     1.0000   1.0000   1.0000   1.0000   1.0000   1.0000   1.0000   1.0000
     1.0000   1.0000   1.0000   1.0000   1.0000   1.0000   1.0000   1.0000
     1.0000   1.0000   1.0000   1.0000   1.0000   1.0000   1.0000   1.0000
     1.0000   1.0000   1.0000   1.0000   1.0000   1.0000   1.0000   1.0000
     1.0000   1.0000   1.0000   1.0000   1.0000   1.0000   1.0000   1.0000
     1.0000   1.0000   1.0000   1.0000   1.0000   1.0000   1.0000   1.0000
     1.0000   1.0000   1.0000   1.0000   1.0081   1.0081   1.0127   1.0127
    -0.0018  -0.0018  -0.0012  -0.0012  -0.0000  -0.0000  -0.0000  -0.0000
    -0.0000  -0.0000  -0.0000  -0.0000  -0.0000  -0.0000

          k = 0.0000 0.1667 0.1667 (  9657 PWs)   bands (ev):

   -56.5054 -56.5054 -56.4816 -56.4816 -56.4741 -56.4741 -56.4700 -56.4700
   -28.5837 -28.5779 -28.5687 -28.5686 -28.5525 -28.5487 -28.4872 -28.4871
   -27.6259 -27.6217 -27.5861 -27.5821 -27.5458 -27.5424 -27.5384 -27.5310
   -27.5147 -27.5016 -27.4644 -27.4607 -27.4535 -27.4446 -27.4379 -27.4337
     3.0795   3.0796   6.3966   6.4009   7.2072   7.2116   8.4067   8.4121
     9.8328   9.8362  10.5099  10.5123  10.7877  10.7890  11.3580  11.3610
    11.7805  11.7809  12.4133  12.4190  12.5893  12.5971  12.9966  12.9979
    13.0931  13.1013  13.1754  13.1761  13.2469  13.2536  13.3392  13.3441
    13.4697  13.4775  13.7352  13.7493  14.0777  14.0851  15.2560  15.2777
    15.3055  15.3249  15.5407  15.5527  15.7010  15.7220  15.8185  15.8430
    16.2816  16.2985  16.6110  16.6207  17.0362  17.0709

     occupation numbers 
     1.0000   1.0000   1.0000   1.0000   1.0000   1.0000   1.0000   1.0000
     1.0000   1.0000   1.0000   1.0000   1.0000   1.0000   1.0000   1.0000
     1.0000   1.0000   1.0000   1.0000   1.0000   1.0000   1.0000   1.0000
     1.0000   1.0000   1.0000   1.0000   1.0000   1.0000   1.0000   1.0000
     1.0000   1.0000   1.0000   1.0000   1.0000   1.0000   1.0000   1.0000
     1.0000   1.0000   1.0000   1.0000   1.0000   1.0000   1.0000   1.0000
     1.0000   1.0000   1.0000   1.0000   1.0000   1.0000   1.0000   1.0000
     1.0000   1.0000   1.0000   1.0000   1.0000   1.0000   1.0000   1.0000
     1.0000   1.0000   1.0000   1.0000   1.0000   1.0000  -0.0226  -0.0175
    -0.0118  -0.0087  -0.0001  -0.0000  -0.0000  -0.0000  -0.0000  -0.0000
    -0.0000  -0.0000  -0.0000  -0.0000  -0.0000  -0.0000

          k = 0.0000 0.1667 0.3333 (  9647 PWs)   bands (ev):

   -56.5007 -56.5007 -56.4871 -56.4871 -56.4731 -56.4731 -56.4700 -56.4700
   -28.5836 -28.5785 -28.5724 -28.5703 -28.5379 -28.5354 -28.5003 -28.5000
   -27.6291 -27.6237 -27.5751 -27.5696 -27.5557 -27.5423 -27.5357 -27.5280
   -27.5160 -27.4877 -27.4818 -27.4661 -27.4592 -27.4477 -27.4343 -27.4305
     3.6320   3.6322   5.5369   5.5387   7.3625   7.3651   8.4326   8.4359
     9.7330   9.7362  10.1894  10.1937  10.9881  10.9912  11.3854  11.3950
    11.7534  11.7578  12.1903  12.1991  12.5959  12.6036  12.8782  12.8870
    13.1151  13.1245  13.2548  13.2606  13.3819  13.3832  13.5289  13.5389
    13.5915  13.6046  13.9916  14.0022  14.2463  14.2587  14.9131  14.9441
    15.2293  15.2480  15.3500  15.3600  15.6591  15.6842  15.8104  15.8406
    16.1561  16.1655  16.4435  16.4565  17.2398  17.2727

     occupation numbers 
     1.0000   1.0000   1.0000   1.0000   1.0000   1.0000   1.0000   1.0000
     1.0000   1.0000   1.0000   1.0000   1.0000   1.0000   1.0000   1.0000
     1.0000   1.0000   1.0000   1.0000   1.0000   1.0000   1.0000   1.0000
     1.0000   1.0000   1.0000   1.0000   1.0000   1.0000   1.0000   1.0000
     1.0000   1.0000   1.0000   1.0000   1.0000   1.0000   1.0000   1.0000
     1.0000   1.0000   1.0000   1.0000   1.0000   1.0000   1.0000   1.0000
     1.0000   1.0000   1.0000   1.0000   1.0000   1.0000   1.0000   1.0000
     1.0000   1.0000   1.0000   1.0000   1.0000   1.0000   1.0000   1.0000
     1.0000   1.0000   1.0000   1.0000   1.0000   1.0000   0.6570   0.5224
    -0.0289  -0.0245  -0.0056  -0.0047  -0.0000  -0.0000  -0.0000  -0.0000
    -0.0000  -0.0000  -0.0000  -0.0000  -0.0000  -0.0000

          k = 0.0000 0.1667-0.5000 (  9654 PWs)   bands (ev):

   -56.4942 -56.4942 -56.4942 -56.4942 -56.4713 -56.4713 -56.4713 -56.4713
   -28.5797 -28.5797 -28.5743 -28.5743 -28.5194 -28.5194 -28.5168 -28.5168
   -27.6274 -27.6274 -27.5670 -27.5670 -27.5524 -27.5524 -27.5280 -27.5280
   -27.5059 -27.5059 -27.4741 -27.4741 -27.4546 -27.4546 -27.4314 -27.4314
     4.4925   4.4925   4.4932   4.4932   7.8948   7.8948   7.9016   7.9016
    10.0151  10.0151  10.0190  10.0190  11.1033  11.1033  11.1174  11.1174
    12.0918  12.0918  12.0963  12.0963  12.5415  12.5415  12.5573  12.5573
    13.2787  13.2787  13.2796  13.2796  13.3940  13.3940  13.3952  13.3952
    13.8692  13.8692  13.8732  13.8732  14.6239  14.6239  14.6553  14.6553
    15.2424  15.2424  15.2572  15.2572  15.7190  15.7190  15.7487  15.7488
    16.2439  16.2439  16.2546  16.2546  17.4870  17.4902

     occupation numbers 
     1.0000   1.0000   1.0000   1.0000   1.0000   1.0000   1.0000   1.0000
     1.0000   1.0000   1.0000   1.0000   1.0000   1.0000   1.0000   1.0000
     1.0000   1.0000   1.0000   1.0000   1.0000   1.0000   1.0000   1.0000
     1.0000   1.0000   1.0000   1.0000   1.0000   1.0000   1.0000   1.0000
     1.0000   1.0000   1.0000   1.0000   1.0000   1.0000   1.0000   1.0000
     1.0000   1.0000   1.0000   1.0000   1.0000   1.0000   1.0000   1.0000
     1.0000   1.0000   1.0000   1.0000   1.0000   1.0000   1.0000   1.0000
     1.0000   1.0000   1.0000   1.0000   1.0000   1.0000   1.0000   1.0000
     1.0000   1.0000   1.0000   1.0000   1.0182   1.0182   1.0257   1.0257
    -0.0258  -0.0258  -0.0223  -0.0223  -0.0000  -0.0000  -0.0000  -0.0000
    -0.0000  -0.0000  -0.0000  -0.0000  -0.0000  -0.0000

          k = 0.0000 0.3333 0.3333 (  9619 PWs)   bands (ev):

   -56.4971 -56.4971 -56.4885 -56.4885 -56.4741 -56.4741 -56.4712 -56.4712
   -28.5796 -28.5757 -28.5687 -28.5678 -28.5356 -28.5334 -28.5112 -28.5104
   -27.6206 -27.6194 -27.5762 -27.5705 -27.5516 -27.5439 -27.5325 -27.5311
   -27.5148 -27.4957 -27.4934 -27.4819 -27.4532 -27.4393 -27.4300 -27.4267
     4.1575   4.1580   5.6391   5.6412   6.6779   6.6807   7.8194   7.8232
    10.0317  10.0345  10.3055  10.3084  10.9417  10.9434  11.2588  11.2610
    11.8956  11.9022  12.1593  12.1638  12.3110  12.3206  12.6299  12.6377
    13.1821  13.1904  13.3934  13.3984  13.5630  13.5658  13.7228  13.7281
    13.8863  13.8980  14.0971  14.1098  14.4909  14.5166  14.8518  14.8635
    14.9448  14.9651  15.0618  15.0784  15.5271  15.5502  15.6071  15.6370
    16.2368  16.2456  16.4938  16.5007  17.1510  17.1815

     occupation numbers 
     1.0000   1.0000   1.0000   1.0000   1.0000   1.0000   1.0000   1.0000
     1.0000   1.0000   1.0000   1.0000   1.0000   1.0000   1.0000   1.0000
     1.0000   1.0000   1.0000   1.0000   1.0000   1.0000   1.0000   1.0000
     1.0000   1.0000   1.0000   1.0000   1.0000   1.0000   1.0000   1.0000
     1.0000   1.0000   1.0000   1.0000   1.0000   1.0000   1.0000   1.0000
     1.0000   1.0000   1.0000   1.0000   1.0000   1.0000   1.0000   1.0000
     1.0000   1.0000   1.0000   1.0000   1.0000   1.0000   1.0000   1.0000
     1.0000   1.0000   1.0000   1.0000   1.0000   1.0000   1.0000   1.0000
     1.0000   1.0000   1.0000   1.0000   1.0017   1.0030   0.8760   0.8412
     0.5190   0.4291   0.0838   0.0477  -0.0001  -0.0000  -0.0000  -0.0000
    -0.0000  -0.0000  -0.0000  -0.0000  -0.0000  -0.0000

          k = 0.0000 0.3333-0.5000 (  9646 PWs)   bands (ev):

   -56.4924 -56.4924 -56.4924 -56.4924 -56.4731 -56.4731 -56.4731 -56.4731
   -28.5739 -28.5739 -28.5697 -28.5697 -28.5258 -28.5258 -28.5229 -28.5229
   -27.6153 -27.6153 -27.5784 -27.5784 -27.5440 -27.5440 -27.5260 -27.5260
   -27.5142 -27.5142 -27.4929 -27.4929 -27.4418 -27.4418 -27.4272 -27.4272
     4.9487   4.9487   4.9500   4.9500   7.0281   7.0281   7.0330   7.0330
    10.3310  10.3310  10.3330  10.3330  11.2384  11.2384  11.2468  11.2468
    11.7619  11.7619  11.7674  11.7674  12.3354  12.3354  12.3427  12.3427
    13.3695  13.3695  13.3765  13.3765  13.6777  13.6777  13.6864  13.6864
    14.1735  14.1735  14.1791  14.1791  14.6144  14.6144  14.6335  14.6335
    14.9473  14.9473  14.9622  14.9622  15.5026  15.5026  15.5268  15.5268
    16.4445  16.4445  16.4553  16.4553  17.1988  17.1993

     occupation numbers 
     1.0000   1.0000   1.0000   1.0000   1.0000   1.0000   1.0000   1.0000
     1.0000   1.0000   1.0000   1.0000   1.0000   1.0000   1.0000   1.0000
     1.0000   1.0000   1.0000   1.0000   1.0000   1.0000   1.0000   1.0000
     1.0000   1.0000   1.0000   1.0000   1.0000   1.0000   1.0000   1.0000
     1.0000   1.0000   1.0000   1.0000   1.0000   1.0000   1.0000   1.0000
     1.0000   1.0000   1.0000   1.0000   1.0000   1.0000   1.0000   1.0000
     1.0000   1.0000   1.0000   1.0000   1.0000   1.0000   1.0000   1.0000
     1.0000   1.0000   1.0000   1.0000   1.0000   1.0000   1.0000   1.0000
     1.0000   1.0000   1.0000   1.0000   1.0161   1.0161   1.0205   1.0205
     0.5081   0.5081   0.4421   0.4421  -0.0002  -0.0002  -0.0001  -0.0001
    -0.0000  -0.0000  -0.0000  -0.0000  -0.0000  -0.0000

          k = 0.0000-0.5000-0.5000 (  9580 PWs)   bands (ev):

   -56.4913 -56.4913 -56.4913 -56.4913 -56.4742 -56.4742 -56.4742 -56.4742
   -28.5686 -28.5686 -28.5686 -28.5686 -28.5280 -28.5280 -28.5280 -28.5280
   -27.5975 -27.5975 -27.5975 -27.5975 -27.5304 -27.5304 -27.5304 -27.5304
   -27.5108 -27.5108 -27.5108 -27.5108 -27.4310 -27.4310 -27.4310 -27.4310
     5.3705   5.3705   5.3705   5.3705   6.4273   6.4273   6.4273   6.4273
    10.7064  10.7064  10.7064  10.7064  11.2441  11.2441  11.2441  11.2441
    11.3856  11.3856  11.3856  11.3856  12.2858  12.2858  12.2858  12.2858
    13.3644  13.3644  13.3644  13.3644  14.0102  14.0102  14.0102  14.0102
    14.2978  14.2978  14.2978  14.2978  14.5286  14.5286  14.5286  14.5286
    14.7610  14.7610  14.7610  14.7610  15.4221  15.4221  15.4221  15.4221
    16.5913  16.5913  16.5913  16.5913  16.9886  16.9887

     occupation numbers 
     1.0000   1.0000   1.0000   1.0000   1.0000   1.0000   1.0000   1.0000
     1.0000   1.0000   1.0000   1.0000   1.0000   1.0000   1.0000   1.0000
     1.0000   1.0000   1.0000   1.0000   1.0000   1.0000   1.0000   1.0000
     1.0000   1.0000   1.0000   1.0000   1.0000   1.0000   1.0000   1.0000
     1.0000   1.0000   1.0000   1.0000   1.0000   1.0000   1.0000   1.0000
     1.0000   1.0000   1.0000   1.0000   1.0000   1.0000   1.0000   1.0000
     1.0000   1.0000   1.0000   1.0000   1.0000   1.0000   1.0000   1.0000
     1.0000   1.0000   1.0000   1.0000   1.0000   1.0000   1.0000   1.0000
     1.0000   1.0000   1.0000   1.0000   1.0039   1.0039   1.0039   1.0039
     1.0238   1.0238   1.0238   1.0238  -0.0012  -0.0012  -0.0012  -0.0012
    -0.0000  -0.0000  -0.0000  -0.0000  -0.0000  -0.0000

          k = 0.1667 0.1667 0.1667 (  9627 PWs)   bands (ev):

   -56.5038 -56.5038 -56.4827 -56.4827 -56.4747 -56.4747 -56.4698 -56.4698
   -28.5840 -28.5787 -28.5668 -28.5667 -28.5504 -28.5464 -28.4919 -28.4915
   -27.6252 -27.6229 -27.5836 -27.5747 -27.5462 -27.5420 -27.5413 -27.5382
   -27.5089 -27.4963 -27.4739 -27.4610 -27.4541 -27.4502 -27.4328 -27.4323
     3.2666   3.2667   6.3443   6.3510   7.0378   7.0464   8.3232   8.3254
     9.7323   9.7350  10.5180  10.5189  10.5473  10.5486  11.3862  11.3918
    11.9886  11.9891  12.3211  12.3293  12.8301  12.8355  12.8361  12.8423
    13.1048  13.1102  13.1366  13.1367  13.2127  13.2186  13.5242  13.5293
    13.6031  13.6126  13.7859  13.7913  14.1548  14.1634  15.2085  15.2231
    15.2763  15.2911  15.4749  15.4761  15.5276  15.5431  15.7964  15.8112
    16.2279  16.2447  16.6065  16.6180  17.0505  17.0907

     occupation numbers 
     1.0000   1.0000   1.0000   1.0000   1.0000   1.0000   1.0000   1.0000
     1.0000   1.0000   1.0000   1.0000   1.0000   1.0000   1.0000   1.0000
     1.0000   1.0000   1.0000   1.0000   1.0000   1.0000   1.0000   1.0000
     1.0000   1.0000   1.0000   1.0000   1.0000   1.0000   1.0000   1.0000
     1.0000   1.0000   1.0000   1.0000   1.0000   1.0000   1.0000   1.0000
     1.0000   1.0000   1.0000   1.0000   1.0000   1.0000   1.0000   1.0000
     1.0000   1.0000   1.0000   1.0000   1.0000   1.0000   1.0000   1.0000
     1.0000   1.0000   1.0000   1.0000   1.0000   1.0000   1.0000   1.0000
     1.0000   1.0000   1.0000   1.0000   1.0000   1.0000  -0.0331  -0.0303
    -0.0178  -0.0146  -0.0003  -0.0003  -0.0001  -0.0000  -0.0000  -0.0000
    -0.0000  -0.0000  -0.0000  -0.0000  -0.0000  -0.0000

          k = 0.1667 0.1667 0.3333 (  9629 PWs)   bands (ev):

   -56.4994 -56.4994 -56.4870 -56.4870 -56.4741 -56.4741 -56.4704 -56.4704
   -28.5822 -28.5776 -28.5695 -28.5679 -28.5390 -28.5363 -28.5044 -28.5036
   -27.6259 -27.6216 -27.5747 -27.5664 -27.5544 -27.5452 -27.5381 -27.5335
   -27.5106 -27.4976 -27.4752 -27.4650 -27.4628 -27.4512 -27.4306 -27.4289
     3.8109   3.8111   5.6515   5.6536   7.1821   7.1861   8.2387   8.2423
     9.3519   9.3544  10.2218  10.2242  10.9249  10.9285  11.4684  11.4717
    11.8298  11.8340  12.2188  12.2209  12.7521  12.7611  12.9463  12.9525
    13.0801  13.0888  13.1981  13.2066  13.2949  13.2984  13.5463  13.5531
    13.7644  13.7696  14.0150  14.0239  14.3546  14.3719  14.9096  14.9371
    15.1936  15.2088  15.2861  15.2961  15.5064  15.5209  15.7167  15.7375
    16.1696  16.1791  16.4564  16.4703  17.2203  17.2523

     occupation numbers 
     1.0000   1.0000   1.0000   1.0000   1.0000   1.0000   1.0000   1.0000
     1.0000   1.0000   1.0000   1.0000   1.0000   1.0000   1.0000   1.0000
     1.0000   1.0000   1.0000   1.0000   1.0000   1.0000   1.0000   1.0000
     1.0000   1.0000   1.0000   1.0000   1.0000   1.0000   1.0000   1.0000
     1.0000   1.0000   1.0000   1.0000   1.0000   1.0000   1.0000   1.0000
     1.0000   1.0000   1.0000   1.0000   1.0000   1.0000   1.0000   1.0000
     1.0000   1.0000   1.0000   1.0000   1.0000   1.0000   1.0000   1.0000
     1.0000   1.0000   1.0000   1.0000   1.0000   1.0000   1.0000   1.0000
     1.0000   1.0000   1.0000   1.0000   1.0000   1.0001   0.6713   0.5534
    -0.0350  -0.0330  -0.0156  -0.0136  -0.0001  -0.0001  -0.0000  -0.0000
    -0.0000  -0.0000  -0.0000  -0.0000  -0.0000  -0.0000

          k = 0.1667 0.1667-0.5000 (  9658 PWs)   bands (ev):

   -56.4933 -56.4933 -56.4933 -56.4933 -56.4722 -56.4722 -56.4722 -56.4722
   -28.5774 -28.5774 -28.5721 -28.5721 -28.5225 -28.5225 -28.5192 -28.5192
   -27.6235 -27.6235 -27.5651 -27.5651 -27.5562 -27.5562 -27.5268 -27.5268
   -27.5121 -27.5121 -27.4703 -27.4703 -27.4575 -27.4575 -27.4289 -27.4289
     4.6538   4.6538   4.6545   4.6545   7.7179   7.7179   7.7241   7.7241
     9.6725   9.6725   9.6738   9.6738  11.3994  11.3994  11.4076  11.4076
    11.8741  11.8741  11.8778  11.8778  12.7989  12.7989  12.8109  12.8109
    13.1832  13.1832  13.1937  13.1937  13.4198  13.4198  13.4239  13.4239
    13.9247  13.9247  13.9326  13.9326  14.6754  14.6754  14.7093  14.7093
    15.1661  15.1661  15.1861  15.1861  15.6072  15.6072  15.6298  15.6298
    16.2633  16.2633  16.2729  16.2729  17.5739  17.5747

     occupation numbers 
     1.0000   1.0000   1.0000   1.0000   1.0000   1.0000   1.0000   1.0000
     1.0000   1.0000   1.0000   1.0000   1.0000   1.0000   1.0000   1.0000
     1.0000   1.0000   1.0000   1.0000   1.0000   1.0000   1.0000   1.0000
     1.0000   1.0000   1.0000   1.0000   1.0000   1.0000   1.0000   1.0000
     1.0000   1.0000   1.0000   1.0000   1.0000   1.0000   1.0000   1.0000
     1.0000   1.0000   1.0000   1.0000   1.0000   1.0000   1.0000   1.0000
     1.0000   1.0000   1.0000   1.0000   1.0000   1.0000   1.0000   1.0000
     1.0000   1.0000   1.0000   1.0000   1.0000   1.0000   1.0000   1.0000
     1.0000   1.0000   1.0000   1.0000   1.0304   1.0304   1.0353   1.0353
    -0.0342  -0.0342  -0.0354  -0.0354  -0.0000  -0.0000  -0.0000  -0.0000
    -0.0000  -0.0000  -0.0000  -0.0000  -0.0000  -0.0000

          k = 0.1667 0.3333 0.3333 (  9651 PWs)   bands (ev):

   -56.4959 -56.4959 -56.4879 -56.4879 -56.4752 -56.4752 -56.4720 -56.4720
   -28.5777 -28.5740 -28.5661 -28.5653 -28.5376 -28.5354 -28.5148 -28.5137
   -27.6183 -27.6155 -27.5753 -27.5680 -27.5563 -27.5477 -27.5369 -27.5297
   -27.5140 -27.5047 -27.4814 -27.4731 -27.4570 -27.4455 -27.4298 -27.4265
     4.3275   4.3279   5.7573   5.7607   6.7208   6.7263   7.7764   7.7800
     9.2003   9.2037  10.0629  10.0665  10.9687  10.9710  11.5791  11.5833
    11.7454  11.7476  12.2602  12.2638  12.4945  12.5008  12.8127  12.8193
    13.1533  13.1575  13.2542  13.2664  13.4019  13.4092  13.6941  13.7093
    13.9193  13.9355  14.2308  14.2416  14.5668  14.5950  14.8665  14.8806
    14.9507  14.9618  15.1264  15.1532  15.4095  15.4123  15.5559  15.5714
    16.2319  16.2394  16.4607  16.4687  17.1000  17.1249

     occupation numbers 
     1.0000   1.0000   1.0000   1.0000   1.0000   1.0000   1.0000   1.0000
     1.0000   1.0000   1.0000   1.0000   1.0000   1.0000   1.0000   1.0000
     1.0000   1.0000   1.0000   1.0000   1.0000   1.0000   1.0000   1.0000
     1.0000   1.0000   1.0000   1.0000   1.0000   1.0000   1.0000   1.0000
     1.0000   1.0000   1.0000   1.0000   1.0000   1.0000   1.0000   1.0000
     1.0000   1.0000   1.0000   1.0000   1.0000   1.0000   1.0000   1.0000
     1.0000   1.0000   1.0000   1.0000   1.0000   1.0000   1.0000   1.0000
     1.0000   1.0000   1.0000   1.0000   1.0000   1.0000   1.0000   1.0000
     1.0000   1.0000   1.0000   1.0000   1.0078   1.0123   0.8315   0.7836
     0.4929   0.4437  -0.0164  -0.0310  -0.0017  -0.0016  -0.0000  -0.0000
    -0.0000  -0.0000  -0.0000  -0.0000  -0.0000  -0.0000

          k = 0.1667 0.3333-0.5000 (  9682 PWs)   bands (ev):

   -56.4914 -56.4914 -56.4914 -56.4914 -56.4741 -56.4741 -56.4741 -56.4741
   -28.5715 -28.5715 -28.5674 -28.5674 -28.5288 -28.5288 -28.5256 -28.5256
   -27.6121 -27.6121 -27.5761 -27.5761 -27.5519 -27.5519 -27.5281 -27.5281
   -27.5138 -27.5138 -27.4827 -27.4827 -27.4465 -27.4465 -27.4281 -27.4281
     5.0993   5.0993   5.1008   5.1008   7.0727   7.0727   7.0781   7.0781
     9.6226   9.6226   9.6263   9.6263  11.2876  11.2876  11.2894  11.2894
    11.9351  11.9351  11.9440  11.9440  12.5649  12.5649  12.5741  12.5741
    13.2669  13.2669  13.2730  13.2730  13.5508  13.5508  13.5658  13.5658
    14.2369  14.2369  14.2457  14.2457  14.7120  14.7120  14.7333  14.7333
    14.9650  14.9650  14.9829  14.9829  15.4465  15.4465  15.4634  15.4634
    16.3874  16.3875  16.3949  16.3950  17.1620  17.1649

     occupation numbers 
     1.0000   1.0000   1.0000   1.0000   1.0000   1.0000   1.0000   1.0000
     1.0000   1.0000   1.0000   1.0000   1.0000   1.0000   1.0000   1.0000
     1.0000   1.0000   1.0000   1.0000   1.0000   1.0000   1.0000   1.0000
     1.0000   1.0000   1.0000   1.0000   1.0000   1.0000   1.0000   1.0000
     1.0000   1.0000   1.0000   1.0000   1.0000   1.0000   1.0000   1.0000
     1.0000   1.0000   1.0000   1.0000   1.0000   1.0000   1.0000   1.0000
     1.0000   1.0000   1.0000   1.0000   1.0000   1.0000   1.0000   1.0000
     1.0000   1.0000   1.0000   1.0000   1.0000   1.0000   1.0000   1.0000
     1.0000   1.0000   1.0000   1.0000   1.0354   1.0354   1.0340   1.0340
     0.4295   0.4295   0.3525   0.3524  -0.0007  -0.0007  -0.0005  -0.0005
    -0.0000  -0.0000  -0.0000  -0.0000  -0.0000  -0.0000

          k = 0.1667-0.5000-0.5000 (  9628 PWs)   bands (ev):

   -56.4902 -56.4902 -56.4902 -56.4902 -56.4753 -56.4753 -56.4753 -56.4753
   -28.5663 -28.5663 -28.5661 -28.5661 -28.5311 -28.5311 -28.5308 -28.5308
   -27.5983 -27.5983 -27.5915 -27.5915 -27.5463 -27.5463 -27.5322 -27.5322
   -27.5082 -27.5082 -27.4935 -27.4935 -27.4374 -27.4374 -27.4315 -27.4315
     5.5070   5.5070   5.5084   5.5084   6.5301   6.5301   6.5327   6.5327
     9.8343   9.8343   9.8385   9.8385  10.8963  10.8963  10.8985  10.8985
    12.1902  12.1903  12.1929  12.1929  12.3757  12.3757  12.3788  12.3788
    13.2235  13.2235  13.2242  13.2242  13.7581  13.7581  13.7720  13.7720
    14.3938  14.3938  14.4009  14.4009  14.6984  14.6984  14.7158  14.7158
    14.8398  14.8398  14.8417  14.8417  15.3687  15.3687  15.3689  15.3689
    16.4881  16.4881  16.4897  16.4897  16.9545  16.9561

     occupation numbers 
     1.0000   1.0000   1.0000   1.0000   1.0000   1.0000   1.0000   1.0000
     1.0000   1.0000   1.0000   1.0000   1.0000   1.0000   1.0000   1.0000
     1.0000   1.0000   1.0000   1.0000   1.0000   1.0000   1.0000   1.0000
     1.0000   1.0000   1.0000   1.0000   1.0000   1.0000   1.0000   1.0000
     1.0000   1.0000   1.0000   1.0000   1.0000   1.0000   1.0000   1.0000
     1.0000   1.0000   1.0000   1.0000   1.0000   1.0000   1.0000   1.0000
     1.0000   1.0000   1.0000   1.0000   1.0000   1.0000   1.0000   1.0000
     1.0000   1.0000   1.0000   1.0000   1.0000   1.0000   1.0000   1.0000
     1.0001   1.0001   1.0002   1.0002   1.0343   1.0343   1.0355   1.0355
     0.9078   0.9078   0.9032   0.9032  -0.0039  -0.0039  -0.0039  -0.0039
    -0.0000  -0.0000  -0.0000  -0.0000  -0.0000  -0.0000

          k = 0.3333 0.3333 0.3333 (  9690 PWs)   bands (ev):

   -56.4927 -56.4927 -56.4870 -56.4870 -56.4772 -56.4772 -56.4741 -56.4741
   -28.5722 -28.5690 -28.5612 -28.5611 -28.5404 -28.5385 -28.5240 -28.5225
   -27.6107 -27.6070 -27.5739 -27.5639 -27.5638 -27.5623 -27.5409 -27.5277
   -27.5173 -27.4971 -27.4771 -27.4588 -27.4585 -27.4578 -27.4320 -27.4286
     4.8136   4.8140   5.9658   5.9723   6.6620   6.6724   7.5013   7.5040
     8.7480   8.7530   9.4978   9.5042  10.5490  10.5535  11.1932  11.1950
    12.0064  12.0081  12.4976  12.5007  12.7691  12.7732  12.8492  12.8509
    13.1391  13.1509  13.1961  13.2029  13.2664  13.2686  13.5453  13.5485
    14.1409  14.1455  14.4926  14.5009  14.7932  14.8299  14.8517  14.8634
    14.9968  15.0077  15.1379  15.1438  15.2644  15.2915  15.4146  15.4338
    16.2561  16.2631  16.3900  16.3927  16.9562  16.9645

     occupation numbers 
     1.0000   1.0000   1.0000   1.0000   1.0000   1.0000   1.0000   1.0000
     1.0000   1.0000   1.0000   1.0000   1.0000   1.0000   1.0000   1.0000
     1.0000   1.0000   1.0000   1.0000   1.0000   1.0000   1.0000   1.0000
     1.0000   1.0000   1.0000   1.0000   1.0000   1.0000   1.0000   1.0000
     1.0000   1.0000   1.0000   1.0000   1.0000   1.0000   1.0000   1.0000
     1.0000   1.0000   1.0000   1.0000   1.0000   1.0000   1.0000   1.0000
     1.0000   1.0000   1.0000   1.0000   1.0000   1.0000   1.0000   1.0000
     1.0000   1.0000   1.0000   1.0000   1.0000   1.0000   1.0000   1.0000
     1.0000   1.0000   1.0018   1.0022   0.9947   0.9312   0.8762   0.8414
     0.2953   0.2527  -0.0242  -0.0273  -0.0205  -0.0145  -0.0015  -0.0009
    -0.0000  -0.0000  -0.0000  -0.0000  -0.0000  -0.0000

          k = 0.3333 0.3333-0.5000 (  9648 PWs)   bands (ev):

   -56.4888 -56.4888 -56.4888 -56.4888 -56.4767 -56.4767 -56.4767 -56.4767
   -28.5653 -28.5653 -28.5618 -28.5618 -28.5357 -28.5357 -28.5326 -28.5326
   -27.6029 -27.6029 -27.5742 -27.5742 -27.5637 -27.5637 -27.5375 -27.5375
   -27.5028 -27.5028 -27.4713 -27.4713 -27.4529 -27.4529 -27.4329 -27.4329
     5.5128   5.5128   5.5147   5.5147   6.9754   6.9754   6.9813   6.9813
     9.0500   9.0500   9.0559   9.0559  10.5631  10.5631  10.5661  10.5661
    12.3852  12.3852  12.3936  12.3936  12.8192  12.8192  12.8269  12.8269
    13.1332  13.1332  13.1442  13.1442  13.3783  13.3783  13.3867  13.3867
    14.4668  14.4668  14.4752  14.4752  14.8620  14.8620  14.8777  14.8777
    15.0819  15.0819  15.1011  15.1011  15.2978  15.2978  15.3141  15.3141
    16.3321  16.3322  16.3416  16.3416  16.9305  16.9326

     occupation numbers 
     1.0000   1.0000   1.0000   1.0000   1.0000   1.0000   1.0000   1.0000
     1.0000   1.0000   1.0000   1.0000   1.0000   1.0000   1.0000   1.0000
     1.0000   1.0000   1.0000   1.0000   1.0000   1.0000   1.0000   1.0000
     1.0000   1.0000   1.0000   1.0000   1.0000   1.0000   1.0000   1.0000
     1.0000   1.0000   1.0000   1.0000   1.0000   1.0000   1.0000   1.0000
     1.0000   1.0000   1.0000   1.0000   1.0000   1.0000   1.0000   1.0000
     1.0000   1.0000   1.0000   1.0000   1.0000   1.0000   1.0000   1.0000
     1.0000   1.0000   1.0000   1.0000   1.0000   1.0000   1.0000   1.0000
     1.0010   1.0010   1.0012   1.0012   0.8457   0.8457   0.7939   0.7939
     0.0412   0.0412   0.0104   0.0104  -0.0133  -0.0133  -0.0104  -0.0104
    -0.0000  -0.0000  -0.0000  -0.0000  -0.0000  -0.0000

          k = 0.3333-0.5000-0.5000 (  9668 PWs)   bands (ev):

   -56.4870 -56.4870 -56.4870 -56.4870 -56.4784 -56.4784 -56.4784 -56.4784
   -28.5594 -28.5594 -28.5591 -28.5591 -28.5391 -28.5391 -28.5388 -28.5388
   -27.5922 -27.5922 -27.5838 -27.5838 -27.5639 -27.5639 -27.5419 -27.5419
   -27.4950 -27.4950 -27.4732 -27.4732 -27.4478 -27.4478 -27.4396 -27.4396
     5.8911   5.8911   5.8942   5.8942   6.6640   6.6640   6.6695   6.6695
     9.0934   9.0934   9.1000   9.1000  10.0569  10.0569  10.0611  10.0611
    12.6147  12.6147  12.6187  12.6187  12.8002  12.8002  12.8023  12.8023
    13.0434  13.0434  13.0434  13.0434  13.3530  13.3530  13.3636  13.3636
    14.6575  14.6575  14.6651  14.6651  14.9738  14.9738  14.9813  14.9813
    15.0657  15.0657  15.0713  15.0713  15.2566  15.2566  15.2684  15.2684
    16.3691  16.3691  16.3705  16.3705  16.7215  16.7221

     occupation numbers 
     1.0000   1.0000   1.0000   1.0000   1.0000   1.0000   1.0000   1.0000
     1.0000   1.0000   1.0000   1.0000   1.0000   1.0000   1.0000   1.0000
     1.0000   1.0000   1.0000   1.0000   1.0000   1.0000   1.0000   1.0000
     1.0000   1.0000   1.0000   1.0000   1.0000   1.0000   1.0000   1.0000
     1.0000   1.0000   1.0000   1.0000   1.0000   1.0000   1.0000   1.0000
     1.0000   1.0000   1.0000   1.0000   1.0000   1.0000   1.0000   1.0000
     1.0000   1.0000   1.0000   1.0000   1.0000   1.0000   1.0000   1.0000
     1.0000   1.0000   1.0000   1.0000   1.0000   1.0000   1.0000   1.0000
     1.0263   1.0263   1.0281   1.0281   0.3915   0.3915   0.3594   0.3594
     0.0746   0.0746   0.0623   0.0623  -0.0224  -0.0224  -0.0196  -0.0196
    -0.0000  -0.0000  -0.0000  -0.0000  -0.0000  -0.0000

          k =-0.5000-0.5000-0.5000 (  9568 PWs)   bands (ev):

   -56.4827 -56.4827 -56.4827 -56.4827 -56.4827 -56.4827 -56.4827 -56.4827
   -28.5500 -28.5500 -28.5492 -28.5492 -28.5492 -28.5492 -28.5492 -28.5492
   -27.5801 -27.5801 -27.5801 -27.5801 -27.5801 -27.5801 -27.5459 -27.5459
   -27.4879 -27.4879 -27.4543 -27.4543 -27.4543 -27.4543 -27.4543 -27.4543
     6.3981   6.3981   6.3981   6.3981   6.3981   6.3981   6.4085   6.4085
     9.2380   9.2380   9.2504   9.2504   9.2504   9.2504   9.2504   9.2504
    12.9182  12.9182  12.9247  12.9247  12.9247  12.9247  12.9247  12.9247
    13.0013  13.0013  13.0061  13.0061  13.0061  13.0061  13.0061  13.0061
    14.9354  14.9354  14.9373  14.9373  14.9373  14.9373  14.9373  14.9373
    15.2379  15.2379  15.2379  15.2379  15.2379  15.2379  15.2811  15.2811
    16.4115  16.4115  16.4238  16.4238  16.4238  16.4238

     occupation numbers 
     1.0000   1.0000   1.0000   1.0000   1.0000   1.0000   1.0000   1.0000
     1.0000   1.0000   1.0000   1.0000   1.0000   1.0000   1.0000   1.0000
     1.0000   1.0000   1.0000   1.0000   1.0000   1.0000   1.0000   1.0000
     1.0000   1.0000   1.0000   1.0000   1.0000   1.0000   1.0000   1.0000
     1.0000   1.0000   1.0000   1.0000   1.0000   1.0000   1.0000   1.0000
     1.0000   1.0000   1.0000   1.0000   1.0000   1.0000   1.0000   1.0000
     1.0000   1.0000   1.0000   1.0000   1.0000   1.0000   1.0000   1.0000
     1.0000   1.0000   1.0000   1.0000   1.0000   1.0000   1.0000   1.0000
     0.5606   0.5606   0.5523   0.5523   0.5523   0.5523   0.5523   0.5523
    -0.0269  -0.0269  -0.0269  -0.0269  -0.0269  -0.0269  -0.0167  -0.0167
    -0.0000  -0.0000  -0.0000  -0.0000  -0.0000  -0.0000

          k = 0.0000 0.3333 0.1667 (  9647 PWs)   bands (ev):

   -56.5007 -56.5007 -56.4871 -56.4871 -56.4731 -56.4731 -56.4700 -56.4700
   -28.5835 -28.5786 -28.5722 -28.5704 -28.5381 -28.5353 -28.5005 -28.4998
   -27.6292 -27.6238 -27.5729 -27.5719 -27.5545 -27.5423 -27.5368 -27.5282
   -27.5154 -27.4895 -27.4791 -27.4678 -27.4587 -27.4474 -27.4342 -27.4308
     3.6320   3.6321   5.5366   5.5376   7.3646   7.3658   8.4324   8.4389
     9.7431   9.7456  10.2565  10.2627  10.9715  10.9746  11.0976  11.1002
    11.8637  11.8660  12.2432  12.2472  12.7984  12.8034  12.9767  12.9819
    13.0680  13.0743  13.2459  13.2522  13.3419  13.3466  13.4901  13.4948
    13.5406  13.5431  13.9679  13.9779  14.2316  14.2437  14.8926  14.9245
    15.2807  15.2990  15.3408  15.3578  15.6488  15.6765  15.7874  15.8132
    16.1580  16.1704  16.4251  16.4393  17.2732  17.3030

     occupation numbers 
     1.0000   1.0000   1.0000   1.0000   1.0000   1.0000   1.0000   1.0000
     1.0000   1.0000   1.0000   1.0000   1.0000   1.0000   1.0000   1.0000
     1.0000   1.0000   1.0000   1.0000   1.0000   1.0000   1.0000   1.0000
     1.0000   1.0000   1.0000   1.0000   1.0000   1.0000   1.0000   1.0000
     1.0000   1.0000   1.0000   1.0000   1.0000   1.0000   1.0000   1.0000
     1.0000   1.0000   1.0000   1.0000   1.0000   1.0000   1.0000   1.0000
     1.0000   1.0000   1.0000   1.0000   1.0000   1.0000   1.0000   1.0000
     1.0000   1.0000   1.0000   1.0000   1.0000   1.0000   1.0000   1.0000
     1.0000   1.0000   1.0000   1.0000   1.0000   1.0000   0.7393   0.6082
    -0.0168  -0.0131  -0.0066  -0.0049  -0.0000  -0.0000  -0.0000  -0.0000
    -0.0000  -0.0000  -0.0000  -0.0000  -0.0000  -0.0000

          k = 0.0000-0.5000 0.1667 (  9654 PWs)   bands (ev):

   -56.4942 -56.4942 -56.4942 -56.4942 -56.4713 -56.4713 -56.4713 -56.4713
   -28.5797 -28.5797 -28.5743 -28.5743 -28.5195 -28.5195 -28.5167 -28.5167
   -27.6276 -27.6276 -27.5660 -27.5660 -27.5531 -27.5531 -27.5282 -27.5282
   -27.5061 -27.5061 -27.4740 -27.4740 -27.4544 -27.4544 -27.4316 -27.4316
     4.4922   4.4922   4.4927   4.4927   7.8967   7.8967   7.9014   7.9014
    10.1028  10.1028  10.1079  10.1079  10.8748  10.8748  10.8820  10.8820
    12.1428  12.1428  12.1477  12.1477  12.8634  12.8634  12.8726  12.8726
    13.1100  13.1100  13.1180  13.1180  13.3991  13.3991  13.4082  13.4082
    13.8097  13.8097  13.8151  13.8151  14.6102  14.6102  14.6412  14.6412
    15.2626  15.2626  15.2848  15.2848  15.6864  15.6864  15.7149  15.7149
    16.2188  16.2188  16.2305  16.2305  17.5943  17.6006

     occupation numbers 
     1.0000   1.0000   1.0000   1.0000   1.0000   1.0000   1.0000   1.0000
     1.0000   1.0000   1.0000   1.0000   1.0000   1.0000   1.0000   1.0000
     1.0000   1.0000   1.0000   1.0000   1.0000   1.0000   1.0000   1.0000
     1.0000   1.0000   1.0000   1.0000   1.0000   1.0000   1.0000   1.0000
     1.0000   1.0000   1.0000   1.0000   1.0000   1.0000   1.0000   1.0000
     1.0000   1.0000   1.0000   1.0000   1.0000   1.0000   1.0000   1.0000
     1.0000   1.0000   1.0000   1.0000   1.0000   1.0000   1.0000   1.0000
     1.0000   1.0000   1.0000   1.0000   1.0000   1.0000   1.0000   1.0000
     1.0000   1.0000   1.0000   1.0000   1.0152   1.0152   1.0223   1.0223
    -0.0210  -0.0210  -0.0159  -0.0159  -0.0000  -0.0000  -0.0000  -0.0000
    -0.0000  -0.0000  -0.0000  -0.0000  -0.0000  -0.0000

          k = 0.0000-0.5000 0.3333 (  9646 PWs)   bands (ev):

   -56.4924 -56.4924 -56.4924 -56.4924 -56.4731 -56.4731 -56.4731 -56.4731
   -28.5739 -28.5739 -28.5697 -28.5697 -28.5259 -28.5259 -28.5228 -28.5228
   -27.6156 -27.6156 -27.5777 -27.5777 -27.5446 -27.5446 -27.5253 -27.5253
   -27.5153 -27.5153 -27.4924 -27.4924 -27.4417 -27.4417 -27.4274 -27.4274
     4.9482   4.9482   4.9491   4.9491   7.0312   7.0312   7.0337   7.0337
    10.5077  10.5077  10.5111  10.5111  10.8274  10.8274  10.8296  10.8296
    11.9951  11.9951  12.0005  12.0005  12.4108  12.4108  12.4213  12.4213
    13.2690  13.2690  13.2754  13.2754  13.9164  13.9164  13.9228  13.9228
    13.9582  13.9582  13.9714  13.9714  14.6457  14.6457  14.6791  14.6791
    14.9053  14.9053  14.9411  14.9411  15.4826  15.4826  15.5057  15.5057
    16.3893  16.3893  16.4012  16.4012  17.2965  17.2980

     occupation numbers 
     1.0000   1.0000   1.0000   1.0000   1.0000   1.0000   1.0000   1.0000
     1.0000   1.0000   1.0000   1.0000   1.0000   1.0000   1.0000   1.0000
     1.0000   1.0000   1.0000   1.0000   1.0000   1.0000   1.0000   1.0000
     1.0000   1.0000   1.0000   1.0000   1.0000   1.0000   1.0000   1.0000
     1.0000   1.0000   1.0000   1.0000   1.0000   1.0000   1.0000   1.0000
     1.0000   1.0000   1.0000   1.0000   1.0000   1.0000   1.0000   1.0000
     1.0000   1.0000   1.0000   1.0000   1.0000   1.0000   1.0000   1.0000
     1.0000   1.0000   1.0000   1.0000   1.0000   1.0000   1.0000   1.0000
     1.0000   1.0000   1.0000   1.0000   1.0234   1.0234   1.0311   1.0311
     0.6892   0.6892   0.5353   0.5353  -0.0003  -0.0003  -0.0001  -0.0001
    -0.0000  -0.0000  -0.0000  -0.0000  -0.0000  -0.0000

          k =-0.1667-0.5000 0.3333 (  9682 PWs)   bands (ev):

   -56.4914 -56.4914 -56.4914 -56.4914 -56.4741 -56.4741 -56.4741 -56.4741
   -28.5715 -28.5715 -28.5674 -28.5674 -28.5289 -28.5289 -28.5255 -28.5255
   -27.6123 -27.6123 -27.5756 -27.5756 -27.5523 -27.5523 -27.5277 -27.5277
   -27.5142 -27.5142 -27.4825 -27.4825 -27.4465 -27.4465 -27.4282 -27.4282
     5.0990   5.0990   5.1002   5.1002   7.0746   7.0746   7.0785   7.0785
     9.6361   9.6361   9.6389   9.6389  11.1982  11.1982  11.2013  11.2013
    11.9975  11.9975  12.0041  12.0041  12.6323  12.6323  12.6426  12.6426
    13.1736  13.1736  13.1816  13.1816  13.6517  13.6517  13.6634  13.6634
    14.1721  14.1721  14.1814  14.1814  14.7185  14.7185  14.7438  14.7438
    14.9643  14.9643  14.9956  14.9956  15.4270  15.4270  15.4442  15.4442
    16.3588  16.3589  16.3696  16.3696  17.2178  17.2200

     occupation numbers 
     1.0000   1.0000   1.0000   1.0000   1.0000   1.0000   1.0000   1.0000
     1.0000   1.0000   1.0000   1.0000   1.0000   1.0000   1.0000   1.0000
     1.0000   1.0000   1.0000   1.0000   1.0000   1.0000   1.0000   1.0000
     1.0000   1.0000   1.0000   1.0000   1.0000   1.0000   1.0000   1.0000
     1.0000   1.0000   1.0000   1.0000   1.0000   1.0000   1.0000   1.0000
     1.0000   1.0000   1.0000   1.0000   1.0000   1.0000   1.0000   1.0000
     1.0000   1.0000   1.0000   1.0000   1.0000   1.0000   1.0000   1.0000
     1.0000   1.0000   1.0000   1.0000   1.0000   1.0000   1.0000   1.0000
     1.0000   1.0000   1.0000   1.0000   1.0354   1.0354   1.0314   1.0314
     0.4327   0.4327   0.3001   0.3001  -0.0011  -0.0011  -0.0007  -0.0007
    -0.0000  -0.0000  -0.0000  -0.0000  -0.0000  -0.0000

     the Fermi energy is    14.9491 ev

!    total energy              =   -1180.35009506 Ry

     total all-electron energy =    -10727.810931 Ry
     estimated scf accuracy    <       0.00000091 Ry
     smearing contrib. (-TS)   =      -0.00127960 Ry
     internal energy E=F+TS    =   -1180.34881546 Ry

     The total energy is F=E-TS. E is the sum of the following terms:
     one-electron contribution =    -336.79291221 Ry
     hartree contribution      =     207.03806052 Ry
     xc contribution           =    -114.36153473 Ry
     ewald contribution        =    -496.51183961 Ry
     one-center paw contrib.   =    -439.72058944 Ry
      -> PAW hartree energy AE =     126.71598371 Ry
      -> PAW hartree energy PS =    -125.74872366 Ry
      -> PAW xc energy AE      =     -96.23960992 Ry
      -> PAW xc energy PS      =      20.93240936 Ry
      -> total E_H with PAW    =     208.00532057 Ry
      -> total E_XC with PAW   =    -189.66873528 Ry

     convergence has been achieved in   6 iterations

     Forces acting on atoms (cartesian axes, Ry/au):

     atom    1 type  1   force =    -0.00275357   -0.00275357    0.00275357
     atom    2 type  1   force =    -0.00275357    0.00275357   -0.00275357
     atom    3 type  1   force =     0.00275357   -0.00275357   -0.00275357
     atom    4 type  1   force =     0.00275357    0.00275357    0.00275357
     atom    5 type  2   force =    -0.00411818   -0.00411818    0.00411818
     atom    6 type  2   force =    -0.00411818    0.00411818   -0.00411818
     atom    7 type  2   force =     0.00411818   -0.00411818   -0.00411818
     atom    8 type  2   force =     0.00411818    0.00411818    0.00411818
     The non-local contrib.  to forces
     atom    1 type  1   force =     0.05153128    0.05153128   -0.05153128
     atom    2 type  1   force =     0.05153128   -0.05153128    0.05153128
     atom    3 type  1   force =    -0.05153128    0.05153128    0.05153128
     atom    4 type  1   force =    -0.05153128   -0.05153128   -0.05153128
     atom    5 type  2   force =    -0.00814522   -0.00814522    0.00814522
     atom    6 type  2   force =    -0.00814522    0.00814522   -0.00814522
     atom    7 type  2   force =     0.00814522   -0.00814522   -0.00814522
     atom    8 type  2   force =     0.00814522    0.00814522    0.00814522
     The ionic contribution  to forces
     atom    1 type  1   force =    -0.85044630   -0.85044630    0.85044630
     atom    2 type  1   force =    -0.85044630    0.85044630   -0.85044630
     atom    3 type  1   force =     0.85044630   -0.85044630   -0.85044630
     atom    4 type  1   force =     0.85044630    0.85044630    0.85044630
     atom    5 type  2   force =    -0.24524978   -0.24524978    0.24524978
     atom    6 type  2   force =    -0.24524978    0.24524978   -0.24524978
     atom    7 type  2   force =     0.24524978   -0.24524978   -0.24524978
     atom    8 type  2   force =     0.24524978    0.24524978    0.24524978
     The local contribution  to forces
     atom    1 type  1   force =     0.79729451    0.79729451   -0.79729451
     atom    2 type  1   force =     0.79729451   -0.79729451    0.79729451
     atom    3 type  1   force =    -0.79729451    0.79729451    0.79729451
     atom    4 type  1   force =    -0.79729451   -0.79729451   -0.79729451
     atom    5 type  2   force =     0.24842733    0.24842733   -0.24842733
     atom    6 type  2   force =     0.24842733   -0.24842733    0.24842733
     atom    7 type  2   force =    -0.24842733    0.24842733    0.24842733
     atom    8 type  2   force =    -0.24842733   -0.24842733   -0.24842733
     The core correction contribution to forces
     atom    1 type  1   force =    -0.00104193   -0.00104193    0.00104193
     atom    2 type  1   force =    -0.00104193    0.00104193   -0.00104193
     atom    3 type  1   force =     0.00104193   -0.00104193   -0.00104193
     atom    4 type  1   force =     0.00104193    0.00104193    0.00104193
     atom    5 type  2   force =     0.00080432    0.00080432   -0.00080432
     atom    6 type  2   force =     0.00080432   -0.00080432    0.00080432
     atom    7 type  2   force =    -0.00080432    0.00080432    0.00080432
     atom    8 type  2   force =    -0.00080432   -0.00080432   -0.00080432
     The Hubbard contrib.    to forces
     atom    1 type  1   force =     0.00000000    0.00000000    0.00000000
     atom    2 type  1   force =     0.00000000    0.00000000    0.00000000
     atom    3 type  1   force =     0.00000000    0.00000000    0.00000000
     atom    4 type  1   force =     0.00000000    0.00000000    0.00000000
     atom    5 type  2   force =     0.00000000    0.00000000    0.00000000
     atom    6 type  2   force =     0.00000000    0.00000000    0.00000000
     atom    7 type  2   force =     0.00000000    0.00000000    0.00000000
     atom    8 type  2   force =     0.00000000    0.00000000    0.00000000
     The SCF correction term to forces
     atom    1 type  1   force =    -0.00009113   -0.00009113    0.00009113
     atom    2 type  1   force =    -0.00009113    0.00009113   -0.00009113
     atom    3 type  1   force =     0.00009113   -0.00009113   -0.00009113
     atom    4 type  1   force =     0.00009113    0.00009113    0.00009113
     atom    5 type  2   force =     0.00004516    0.00004516   -0.00004516
     atom    6 type  2   force =     0.00004516   -0.00004516    0.00004516
     atom    7 type  2   force =    -0.00004516    0.00004516    0.00004516
     atom    8 type  2   force =    -0.00004516   -0.00004516   -0.00004516

     Total force =     0.017161     Total SCF correction =     0.000352


     Computing stress (Cartesian axis) and pressure

          total   stress  (Ry/bohr**3)                   (kbar)     P=      -44.03
  -0.00029933   0.00000000   0.00000000          -44.03        0.00        0.00
   0.00000000  -0.00029933   0.00000000            0.00      -44.03        0.00
   0.00000000   0.00000000  -0.00029933            0.00        0.00      -44.03

     kinetic stress (kbar)  35758.22      0.00      0.00
                                0.00  35758.22      0.00
                                0.00      0.00  35758.22

     local   stress (kbar) -10012.77     -0.00     -0.00
                               -0.00 -10012.77     -0.00
                               -0.00     -0.00 -10012.77

     nonloc. stress (kbar)   2427.39      0.00      0.00
                                0.00   2427.39      0.00
                                0.00      0.00   2427.39

     hartree stress (kbar)  15166.96     -0.00     -0.00
                               -0.00  15166.96      0.00
                               -0.00      0.00  15166.96

     exc-cor stress (kbar)  -1706.57     -0.00     -0.00
                               -0.00  -1706.57      0.00
                               -0.00      0.00  -1706.57

     corecor stress (kbar)  -5304.36     -0.00     -0.00
                               -0.00  -5304.36      0.00
                               -0.00      0.00  -5304.36

     ewald   stress (kbar) -36372.90      0.00      0.00
                                0.00 -36372.90      0.00
                                0.00      0.00 -36372.90

     hubbard stress (kbar)      0.00      0.00      0.00
                                0.00      0.00      0.00
                                0.00      0.00      0.00

     DFT-D   stress (kbar)      0.00      0.00      0.00
                                0.00      0.00      0.00
                                0.00      0.00      0.00

     XDM     stress (kbar)      0.00      0.00      0.00
                                0.00      0.00      0.00
                                0.00      0.00      0.00

     dft-nl  stress (kbar)      0.00      0.00      0.00
                                0.00      0.00      0.00
                                0.00      0.00      0.00

     TS-vdW  stress (kbar)      0.00      0.00      0.00
                                0.00      0.00      0.00
                                0.00      0.00      0.00



     Writing output data file /zfs_data/vergnior/martin/Scratch/OAL/CrSi/convergence/smearing/6x6x6/0.014/tmp/CrSi.save/
 
     init_run     :      4.52s CPU      4.78s WALL (       1 calls)
     electrons    :     88.48s CPU     91.14s WALL (       1 calls)
     forces       :      3.95s CPU      4.03s WALL (       1 calls)
     stress       :     10.30s CPU     10.54s WALL (       1 calls)

     Called by init_run:
     wfcinit      :      3.32s CPU      3.42s WALL (       1 calls)
     wfcinit:atom :      0.03s CPU      0.03s WALL (      24 calls)
     wfcinit:wfcr :      3.16s CPU      3.26s WALL (      24 calls)
     potinit      :      0.18s CPU      0.27s WALL (       1 calls)
     hinit0       :      0.17s CPU      0.18s WALL (       1 calls)

     Called by electrons:
     c_bands      :     69.42s CPU     70.78s WALL (       7 calls)
     sum_band     :     15.14s CPU     15.94s WALL (       7 calls)
     v_of_rho     :      0.16s CPU      0.17s WALL (       7 calls)
     v_h          :      0.01s CPU      0.01s WALL (       7 calls)
     v_xc         :      0.19s CPU      0.20s WALL (       9 calls)
     newd         :      3.36s CPU      3.86s WALL (       7 calls)
     PAW_pot      :      0.86s CPU      0.88s WALL (       7 calls)
     mix_rho      :      0.08s CPU      0.09s WALL (       7 calls)

     Called by c_bands:
     init_us_2    :      0.39s CPU      0.40s WALL (     408 calls)
     cegterg      :     62.90s CPU     64.09s WALL (     168 calls)

     Called by sum_band:
     sum_band:wei :      0.02s CPU      0.02s WALL (       7 calls)
     sum_band:loo :     12.67s CPU     12.86s WALL (       7 calls)
     sum_band:buf :      0.12s CPU      0.12s WALL (     168 calls)
     sum_band:ini :      0.17s CPU      0.17s WALL (     168 calls)
     sum_band:cal :      0.88s CPU      0.88s WALL (     168 calls)
     sum_band:bec :      2.15s CPU      2.16s WALL (     168 calls)
     addusdens    :      2.31s CPU      2.92s WALL (       7 calls)
     addusd:skk   :      0.00s CPU      0.00s WALL (      14 calls)
     addusd:dgemm :      0.88s CPU      1.48s WALL (      14 calls)
     addusd:qvan2 :      1.39s CPU      1.40s WALL (      14 calls)

     Called by *egterg:
     cdiaghg      :      6.28s CPU      6.30s WALL (     861 calls)
     cegterg:over :      3.27s CPU      3.29s WALL (     717 calls)
     cegterg:upda :      1.67s CPU      1.70s WALL (     717 calls)
     cegterg:last :      3.01s CPU      3.02s WALL (     428 calls)
     h_psi        :     43.69s CPU     44.80s WALL (     909 calls)
     s_psi        :      6.34s CPU      6.37s WALL (     909 calls)
     g_psi        :      0.10s CPU      0.11s WALL (     717 calls)

     Called by h_psi:
     h_psi:calbec :      3.05s CPU      3.08s WALL (     909 calls)
     vloc_psi     :     34.54s CPU     35.54s WALL (     909 calls)
     add_vuspsi   :      5.89s CPU      5.94s WALL (     909 calls)

     General routines
     calbec       :      4.52s CPU      4.56s WALL (    1197 calls)
     fft          :      0.17s CPU      0.17s WALL (     172 calls)
     ffts         :      0.02s CPU      0.09s WALL (      56 calls)
     fftw         :     32.16s CPU     33.05s WALL (  220020 calls)
     interpolate  :      0.04s CPU      0.11s WALL (      28 calls)
 
     Parallel routines
     fft_scatt_xy :      3.15s CPU      3.23s WALL (  220248 calls)
     fft_scatt_yz :     11.77s CPU     12.08s WALL (  220248 calls)

     PAW routines
     PAW_pot      :      0.86s CPU      0.88s WALL (       7 calls)
     PAW_symme    :      0.01s CPU      0.01s WALL (      14 calls)
 
     PWSCF        :   1m50.22s CPU   1m54.56s WALL

 
   This run was terminated on:  12:44:13   1Aug2021            

=------------------------------------------------------------------------------=
   JOB DONE.
=------------------------------------------------------------------------------=
