MPI startup(): Warning: I_MPI_PMI_LIBRARY will be ignored since the hydra process manager was found
MPI startup(): Warning: I_MPI_PMI_LIBRARY will be ignored since the hydra process manager was found
MPI startup(): Warning: I_MPI_PMI_LIBRARY will be ignored since the hydra process manager was found
MPI startup(): Warning: I_MPI_PMI_LIBRARY will be ignored since the hydra process manager was found
MPI startup(): Warning: I_MPI_PMI_LIBRARY will be ignored since the hydra process manager was found
MPI startup(): Warning: I_MPI_PMI_LIBRARY will be ignored since the hydra process manager was found
MPI startup(): Warning: I_MPI_PMI_LIBRARY will be ignored since the hydra process manager was found
MPI startup(): Warning: I_MPI_PMI_LIBRARY will be ignored since the hydra process manager was found
MPI startup(): Warning: I_MPI_PMI_LIBRARY will be ignored since the hydra process manager was found
MPI startup(): Warning: I_MPI_PMI_LIBRARY will be ignored since the hydra process manager was found
MPI startup(): Warning: I_MPI_PMI_LIBRARY will be ignored since the hydra process manager was found
MPI startup(): Warning: I_MPI_PMI_LIBRARY will be ignored since the hydra process manager was found
MPI startup(): Warning: I_MPI_PMI_LIBRARY will be ignored since the hydra process manager was found
MPI startup(): Warning: I_MPI_PMI_LIBRARY will be ignored since the hydra process manager was found
MPI startup(): Warning: I_MPI_PMI_LIBRARY will be ignored since the hydra process manager was found
MPI startup(): Warning: I_MPI_PMI_LIBRARY will be ignored since the hydra process manager was found
MPI startup(): Warning: I_MPI_PMI_LIBRARY will be ignored since the hydra process manager was found
MPI startup(): Warning: I_MPI_PMI_LIBRARY will be ignored since the hydra process manager was found
MPI startup(): Warning: I_MPI_PMI_LIBRARY will be ignored since the hydra process manager was found
MPI startup(): Warning: I_MPI_PMI_LIBRARY will be ignored since the hydra process manager was found
MPI startup(): Warning: I_MPI_PMI_LIBRARY will be ignored since the hydra process manager was found
MPI startup(): Warning: I_MPI_PMI_LIBRARY will be ignored since the hydra process manager was found
MPI startup(): Warning: I_MPI_PMI_LIBRARY will be ignored since the hydra process manager was found
MPI startup(): Warning: I_MPI_PMI_LIBRARY will be ignored since the hydra process manager was found

     Program PWSCF v.6.7MaX starts on  1Aug2021 at 12:45:22 

     This program is part of the open-source Quantum ESPRESSO suite
     for quantum simulation of materials; please cite
         "P. Giannozzi et al., J. Phys.:Condens. Matter 21 395502 (2009);
         "P. Giannozzi et al., J. Phys.:Condens. Matter 29 465901 (2017);
          URL http://www.quantum-espresso.org", 
     in publications or presentations arising from this work. More details at
     http://www.quantum-espresso.org/quote

     Parallel version (MPI), running on    24 processors

     MPI processes distributed on     1 nodes
     R & G space division:  proc/nbgrp/npool/nimage =      24
     Waiting for input...
     Reading input from standard input

     Current dimensions of program PWSCF are:
     Max number of different atomic species (ntypx) = 10
     Max number of k-points (npk) =  40000
     Max angular momentum in pseudopotentials (lmaxx) =  3
     file Cr.rel-pbe-spn-kjpaw_psl.1.0.0.UPF: wavefunction(s)  3S 3P 3P 3D 3D renormalized
     file Si.rel-pbe-n-kjpaw_psl.1.0.0.UPF: wavefunction(s)  3S 3P 3P renormalized

     Subspace diagonalization in iterative solution of the eigenvalue problem:
     a serial algorithm will be used

     Message from routine setup:
     using ibrav=0 with symmetry is DISCOURAGED, use correct ibrav instead
 
     Parallelization info
     --------------------
     sticks:   dense  smooth     PW     G-vecs:    dense   smooth      PW
     Min         228      91     25                12702     3210     487
     Max         229      93     26                12704     3214     492
     Sum        5473    2201    621               304867    77053   11753
 


     bravais-lattice index     =            0
     lattice parameter (alat)  =       8.7475  a.u.
     unit-cell volume          =     669.3575 (a.u.)^3
     number of atoms/cell      =            8
     number of atomic types    =            2
     number of electrons       =        72.00
     number of Kohn-Sham states=           86
     kinetic-energy cutoff     =      90.0000  Ry
     charge density cutoff     =     900.0000  Ry
     scf convergence threshold =      1.0E-06
     mixing beta               =       0.7000
     number of iterations used =            8  plain     mixing
     Exchange-correlation= SLA  PW   PBX  PBC
                           (   1   4   3   4   0   0   0)
     Non magnetic calculation with spin-orbit


     celldm(1)=   8.747542  celldm(2)=   0.000000  celldm(3)=   0.000000
     celldm(4)=   0.000000  celldm(5)=   0.000000  celldm(6)=   0.000000

     crystal axes: (cart. coord. in units of alat)
               a(1) = (   1.000000   0.000000   0.000000 )  
               a(2) = (   0.000000   1.000000   0.000000 )  
               a(3) = (   0.000000   0.000000   1.000000 )  

     reciprocal axes: (cart. coord. in units 2 pi/alat)
               b(1) = (  1.000000  0.000000  0.000000 )  
               b(2) = (  0.000000  1.000000  0.000000 )  
               b(3) = (  0.000000  0.000000  1.000000 )  


     PseudoPot. # 1 for Cr read from file:
     ../../../../pseudo/Cr.rel-pbe-spn-kjpaw_psl.1.0.0.UPF
     MD5 check sum: 1e24e2b5251376a8b945118fca0c7981
     Pseudo is Projector augmented-wave + core cor, Zval = 14.0
     Generated using &quot;atomic&quot; code by A. Dal Corso  v.6.3
     Shape of augmentation charge: PSQ
     Using radial grid of 1183 points, 10 beta functions with: 
                l(1) =   0
                l(2) =   0
                l(3) =   1
                l(4) =   1
                l(5) =   1
                l(6) =   1
                l(7) =   2
                l(8) =   2
                l(9) =   2
               l(10) =   2
     Q(r) pseudized with 0 coefficients 


     PseudoPot. # 2 for Si read from file:
     ../../../../pseudo/Si.rel-pbe-n-kjpaw_psl.1.0.0.UPF
     MD5 check sum: d74f6caf6830ea4c2076867160cab1b0
     Pseudo is Projector augmented-wave + core cor, Zval =  4.0
     Generated using &quot;atomic&quot; code by A. Dal Corso  v.6.3
     Shape of augmentation charge: PSQ
     Using radial grid of 1141 points, 10 beta functions with: 
                l(1) =   0
                l(2) =   0
                l(3) =   1
                l(4) =   1
                l(5) =   1
                l(6) =   1
                l(7) =   2
                l(8) =   2
                l(9) =   2
               l(10) =   2
     Q(r) pseudized with 0 coefficients 


     atomic species   valence    mass     pseudopotential
        Cr            14.00    51.99600     Cr( 1.00)
        Si             4.00    28.08500     Si( 1.00)

     12 Sym. Ops. (no inversion) found ( 9 have fractional translation)


                                    s                        frac. trans.

      isym =  1     identity                                     

 cryst.   s( 1) = (     1          0          0      )
                  (     0          1          0      )
                  (     0          0          1      )

 cart.    s( 1) = (  1.0000000  0.0000000  0.0000000 )
                  (  0.0000000  1.0000000  0.0000000 )
                  (  0.0000000  0.0000000  1.0000000 )


      isym =  2     180 deg rotation - cart. axis [0,0,1]        

 cryst.   s( 2) = (    -1          0          0      )    f =(  0.5000000 )
                  (     0         -1          0      )       (  0.0000000 )
                  (     0          0          1      )       ( -0.5000000 )

 cart.    s( 2) = ( -1.0000000  0.0000000  0.0000000 )    f =(  0.5000000 )
                  (  0.0000000 -1.0000000  0.0000000 )       (  0.0000000 )
                  (  0.0000000  0.0000000  1.0000000 )       ( -0.5000000 )


      isym =  3     180 deg rotation - cart. axis [0,1,0]        

 cryst.   s( 3) = (    -1          0          0      )    f =(  0.0000000 )
                  (     0          1          0      )       ( -0.5000000 )
                  (     0          0         -1      )       (  0.5000000 )

 cart.    s( 3) = ( -1.0000000  0.0000000  0.0000000 )    f =(  0.0000000 )
                  (  0.0000000  1.0000000  0.0000000 )       ( -0.5000000 )
                  (  0.0000000  0.0000000 -1.0000000 )       (  0.5000000 )


      isym =  4     180 deg rotation - cart. axis [1,0,0]        

 cryst.   s( 4) = (     1          0          0      )    f =(  0.5000000 )
                  (     0         -1          0      )       (  0.5000000 )
                  (     0          0         -1      )       (  0.0000000 )

 cart.    s( 4) = (  1.0000000  0.0000000  0.0000000 )    f =(  0.5000000 )
                  (  0.0000000 -1.0000000  0.0000000 )       (  0.5000000 )
                  (  0.0000000  0.0000000 -1.0000000 )       (  0.0000000 )


      isym =  5     120 deg rotation - cart. axis [-1,-1,-1]     

 cryst.   s( 5) = (     0          0          1      )
                  (     1          0          0      )
                  (     0          1          0      )

 cart.    s( 5) = (  0.0000000  1.0000000  0.0000000 )
                  (  0.0000000  0.0000000  1.0000000 )
                  (  1.0000000  0.0000000  0.0000000 )


      isym =  6     120 deg rotation - cart. axis [-1,1,1]       

 cryst.   s( 6) = (     0          0         -1      )    f =(  0.0000000 )
                  (    -1          0          0      )       ( -0.5000000 )
                  (     0          1          0      )       (  0.5000000 )

 cart.    s( 6) = (  0.0000000 -1.0000000  0.0000000 )    f =(  0.0000000 )
                  (  0.0000000  0.0000000  1.0000000 )       ( -0.5000000 )
                  ( -1.0000000  0.0000000  0.0000000 )       (  0.5000000 )


      isym =  7     120 deg rotation - cart. axis [1,1,-1]       

 cryst.   s( 7) = (     0          0         -1      )    f =(  0.5000000 )
                  (     1          0          0      )       (  0.5000000 )
                  (     0         -1          0      )       (  0.0000000 )

 cart.    s( 7) = (  0.0000000  1.0000000  0.0000000 )    f =(  0.5000000 )
                  (  0.0000000  0.0000000 -1.0000000 )       (  0.5000000 )
                  ( -1.0000000  0.0000000  0.0000000 )       (  0.0000000 )


      isym =  8     120 deg rotation - cart. axis [1,-1,1]       

 cryst.   s( 8) = (     0          0          1      )    f =(  0.5000000 )
                  (    -1          0          0      )       (  0.0000000 )
                  (     0         -1          0      )       ( -0.5000000 )

 cart.    s( 8) = (  0.0000000 -1.0000000  0.0000000 )    f =(  0.5000000 )
                  (  0.0000000  0.0000000 -1.0000000 )       (  0.0000000 )
                  (  1.0000000  0.0000000  0.0000000 )       ( -0.5000000 )


      isym =  9     120 deg rotation - cart. axis [1,1,1]        

 cryst.   s( 9) = (     0          1          0      )
                  (     0          0          1      )
                  (     1          0          0      )

 cart.    s( 9) = (  0.0000000  0.0000000  1.0000000 )
                  (  1.0000000  0.0000000  0.0000000 )
                  (  0.0000000  1.0000000  0.0000000 )


      isym = 10     120 deg rotation - cart. axis [-1,1,-1]      

 cryst.   s(10) = (     0         -1          0      )    f =(  0.5000000 )
                  (     0          0         -1      )       (  0.5000000 )
                  (     1          0          0      )       (  0.0000000 )

 cart.    s(10) = (  0.0000000  0.0000000  1.0000000 )    f =(  0.5000000 )
                  ( -1.0000000  0.0000000  0.0000000 )       (  0.5000000 )
                  (  0.0000000 -1.0000000  0.0000000 )       (  0.0000000 )


      isym = 11     120 deg rotation - cart. axis [1,-1,-1]      

 cryst.   s(11) = (     0         -1          0      )    f =(  0.5000000 )
                  (     0          0          1      )       (  0.0000000 )
                  (    -1          0          0      )       ( -0.5000000 )

 cart.    s(11) = (  0.0000000  0.0000000 -1.0000000 )    f =(  0.5000000 )
                  ( -1.0000000  0.0000000  0.0000000 )       (  0.0000000 )
                  (  0.0000000  1.0000000  0.0000000 )       ( -0.5000000 )


      isym = 12     120 deg rotation - cart. axis [-1,-1,1]      

 cryst.   s(12) = (     0          1          0      )    f =(  0.0000000 )
                  (     0          0         -1      )       ( -0.5000000 )
                  (    -1          0          0      )       (  0.5000000 )

 cart.    s(12) = (  0.0000000  0.0000000 -1.0000000 )    f =(  0.0000000 )
                  (  1.0000000  0.0000000  0.0000000 )       ( -0.5000000 )
                  (  0.0000000 -1.0000000  0.0000000 )       (  0.5000000 )


   Cartesian axes

     site n.     atom                  positions (alat units)
         1           Cr  tau(   1) = (   0.8640000   0.3640000   0.1360000  )
         2           Cr  tau(   2) = (   0.3640000   0.1360000   0.8640000  )
         3           Cr  tau(   3) = (   0.1360000   0.8640000   0.3640000  )
         4           Cr  tau(   4) = (   0.6360000   0.6360000   0.6360000  )
         5           Si  tau(   5) = (   0.1540000   0.6540000   0.8460000  )
         6           Si  tau(   6) = (   0.6540000   0.8460000   0.1540000  )
         7           Si  tau(   7) = (   0.8460000   0.1540000   0.6540000  )
         8           Si  tau(   8) = (   0.3460000   0.3460000   0.3460000  )

   Crystallographic axes

     site n.     atom                  positions (cryst. coord.)
         1           Cr  tau(   1) = (  0.8640000  0.3640000  0.1360000  )
         2           Cr  tau(   2) = (  0.3640000  0.1360000  0.8640000  )
         3           Cr  tau(   3) = (  0.1360000  0.8640000  0.3640000  )
         4           Cr  tau(   4) = (  0.6360000  0.6360000  0.6360000  )
         5           Si  tau(   5) = (  0.1540000  0.6540000  0.8460000  )
         6           Si  tau(   6) = (  0.6540000  0.8460000  0.1540000  )
         7           Si  tau(   7) = (  0.8460000  0.1540000  0.6540000  )
         8           Si  tau(   8) = (  0.3460000  0.3460000  0.3460000  )

     number of k points=    45  Methfessel-Paxton smearing, width (Ry)=  0.0140
                       cart. coord. in units 2pi/alat
        k(    1) = (   0.0000000   0.0000000   0.0000000), wk =   0.0019531
        k(    2) = (   0.0000000   0.0000000   0.1250000), wk =   0.0117188
        k(    3) = (   0.0000000   0.0000000   0.2500000), wk =   0.0117188
        k(    4) = (   0.0000000   0.0000000   0.3750000), wk =   0.0117188
        k(    5) = (   0.0000000   0.0000000  -0.5000000), wk =   0.0058594
        k(    6) = (   0.0000000   0.1250000   0.1250000), wk =   0.0234375
        k(    7) = (   0.0000000   0.1250000   0.2500000), wk =   0.0234375
        k(    8) = (   0.0000000   0.1250000   0.3750000), wk =   0.0234375
        k(    9) = (   0.0000000   0.1250000  -0.5000000), wk =   0.0117188
        k(   10) = (   0.0000000   0.2500000   0.2500000), wk =   0.0234375
        k(   11) = (   0.0000000   0.2500000   0.3750000), wk =   0.0234375
        k(   12) = (   0.0000000   0.2500000  -0.5000000), wk =   0.0117188
        k(   13) = (   0.0000000   0.3750000   0.3750000), wk =   0.0234375
        k(   14) = (   0.0000000   0.3750000  -0.5000000), wk =   0.0117188
        k(   15) = (   0.0000000  -0.5000000  -0.5000000), wk =   0.0058594
        k(   16) = (   0.1250000   0.1250000   0.1250000), wk =   0.0156250
        k(   17) = (   0.1250000   0.1250000   0.2500000), wk =   0.0468750
        k(   18) = (   0.1250000   0.1250000   0.3750000), wk =   0.0468750
        k(   19) = (   0.1250000   0.1250000  -0.5000000), wk =   0.0234375
        k(   20) = (   0.1250000   0.2500000   0.2500000), wk =   0.0468750
        k(   21) = (   0.1250000   0.2500000   0.3750000), wk =   0.0468750
        k(   22) = (   0.1250000   0.2500000  -0.5000000), wk =   0.0234375
        k(   23) = (   0.1250000   0.3750000   0.3750000), wk =   0.0468750
        k(   24) = (   0.1250000   0.3750000  -0.5000000), wk =   0.0234375
        k(   25) = (   0.1250000  -0.5000000  -0.5000000), wk =   0.0117188
        k(   26) = (   0.2500000   0.2500000   0.2500000), wk =   0.0156250
        k(   27) = (   0.2500000   0.2500000   0.3750000), wk =   0.0468750
        k(   28) = (   0.2500000   0.2500000  -0.5000000), wk =   0.0234375
        k(   29) = (   0.2500000   0.3750000   0.3750000), wk =   0.0468750
        k(   30) = (   0.2500000   0.3750000  -0.5000000), wk =   0.0234375
        k(   31) = (   0.2500000  -0.5000000  -0.5000000), wk =   0.0117188
        k(   32) = (   0.3750000   0.3750000   0.3750000), wk =   0.0156250
        k(   33) = (   0.3750000   0.3750000  -0.5000000), wk =   0.0234375
        k(   34) = (   0.3750000  -0.5000000  -0.5000000), wk =   0.0117188
        k(   35) = (  -0.5000000  -0.5000000  -0.5000000), wk =   0.0019531
        k(   36) = (   0.0000000   0.2500000   0.1250000), wk =   0.0234375
        k(   37) = (   0.0000000   0.3750000   0.1250000), wk =   0.0234375
        k(   38) = (   0.0000000  -0.5000000   0.1250000), wk =   0.0117188
        k(   39) = (   0.0000000   0.3750000   0.2500000), wk =   0.0234375
        k(   40) = (   0.0000000  -0.5000000   0.2500000), wk =   0.0117188
        k(   41) = (   0.0000000  -0.5000000   0.3750000), wk =   0.0117188
        k(   42) = (  -0.1250000   0.3750000   0.2500000), wk =   0.0468750
        k(   43) = (  -0.1250000  -0.5000000   0.2500000), wk =   0.0234375
        k(   44) = (  -0.1250000  -0.5000000   0.3750000), wk =   0.0234375
        k(   45) = (  -0.2500000  -0.5000000   0.3750000), wk =   0.0234375

                       cryst. coord.
        k(    1) = (   0.0000000   0.0000000   0.0000000), wk =   0.0019531
        k(    2) = (   0.0000000   0.0000000   0.1250000), wk =   0.0117188
        k(    3) = (   0.0000000   0.0000000   0.2500000), wk =   0.0117188
        k(    4) = (   0.0000000   0.0000000   0.3750000), wk =   0.0117188
        k(    5) = (   0.0000000   0.0000000  -0.5000000), wk =   0.0058594
        k(    6) = (   0.0000000   0.1250000   0.1250000), wk =   0.0234375
        k(    7) = (   0.0000000   0.1250000   0.2500000), wk =   0.0234375
        k(    8) = (   0.0000000   0.1250000   0.3750000), wk =   0.0234375
        k(    9) = (   0.0000000   0.1250000  -0.5000000), wk =   0.0117188
        k(   10) = (   0.0000000   0.2500000   0.2500000), wk =   0.0234375
        k(   11) = (   0.0000000   0.2500000   0.3750000), wk =   0.0234375
        k(   12) = (   0.0000000   0.2500000  -0.5000000), wk =   0.0117188
        k(   13) = (   0.0000000   0.3750000   0.3750000), wk =   0.0234375
        k(   14) = (   0.0000000   0.3750000  -0.5000000), wk =   0.0117188
        k(   15) = (   0.0000000  -0.5000000  -0.5000000), wk =   0.0058594
        k(   16) = (   0.1250000   0.1250000   0.1250000), wk =   0.0156250
        k(   17) = (   0.1250000   0.1250000   0.2500000), wk =   0.0468750
        k(   18) = (   0.1250000   0.1250000   0.3750000), wk =   0.0468750
        k(   19) = (   0.1250000   0.1250000  -0.5000000), wk =   0.0234375
        k(   20) = (   0.1250000   0.2500000   0.2500000), wk =   0.0468750
        k(   21) = (   0.1250000   0.2500000   0.3750000), wk =   0.0468750
        k(   22) = (   0.1250000   0.2500000  -0.5000000), wk =   0.0234375
        k(   23) = (   0.1250000   0.3750000   0.3750000), wk =   0.0468750
        k(   24) = (   0.1250000   0.3750000  -0.5000000), wk =   0.0234375
        k(   25) = (   0.1250000  -0.5000000  -0.5000000), wk =   0.0117188
        k(   26) = (   0.2500000   0.2500000   0.2500000), wk =   0.0156250
        k(   27) = (   0.2500000   0.2500000   0.3750000), wk =   0.0468750
        k(   28) = (   0.2500000   0.2500000  -0.5000000), wk =   0.0234375
        k(   29) = (   0.2500000   0.3750000   0.3750000), wk =   0.0468750
        k(   30) = (   0.2500000   0.3750000  -0.5000000), wk =   0.0234375
        k(   31) = (   0.2500000  -0.5000000  -0.5000000), wk =   0.0117188
        k(   32) = (   0.3750000   0.3750000   0.3750000), wk =   0.0156250
        k(   33) = (   0.3750000   0.3750000  -0.5000000), wk =   0.0234375
        k(   34) = (   0.3750000  -0.5000000  -0.5000000), wk =   0.0117188
        k(   35) = (  -0.5000000  -0.5000000  -0.5000000), wk =   0.0019531
        k(   36) = (   0.0000000   0.2500000   0.1250000), wk =   0.0234375
        k(   37) = (   0.0000000   0.3750000   0.1250000), wk =   0.0234375
        k(   38) = (   0.0000000  -0.5000000   0.1250000), wk =   0.0117188
        k(   39) = (   0.0000000   0.3750000   0.2500000), wk =   0.0234375
        k(   40) = (   0.0000000  -0.5000000   0.2500000), wk =   0.0117188
        k(   41) = (   0.0000000  -0.5000000   0.3750000), wk =   0.0117188
        k(   42) = (  -0.1250000   0.3750000   0.2500000), wk =   0.0468750
        k(   43) = (  -0.1250000  -0.5000000   0.2500000), wk =   0.0234375
        k(   44) = (  -0.1250000  -0.5000000   0.3750000), wk =   0.0234375
        k(   45) = (  -0.2500000  -0.5000000   0.3750000), wk =   0.0234375

     Dense  grid:   304867 G-vectors     FFT dimensions: (  90,  90,  90)

     Smooth grid:    77053 G-vectors     FFT dimensions: (  54,  54,  54)

     Dynamical RAM for                 wfc:       1.06 MB

     Dynamical RAM for     wfc (w. buffer):      48.53 MB

     Dynamical RAM for           str. fact:       0.39 MB

     Dynamical RAM for           local pot:       0.00 MB

     Dynamical RAM for          nlocal pot:       1.67 MB

     Dynamical RAM for                qrad:      12.61 MB

     Dynamical RAM for          rho,v,vnew:       5.29 MB

     Dynamical RAM for               rhoin:       1.76 MB

     Dynamical RAM for            rho*nmix:      12.41 MB

     Dynamical RAM for           G-vectors:       0.75 MB

     Dynamical RAM for          h,s,v(r/c):       1.35 MB

     Dynamical RAM for          <psi|beta>:       0.71 MB

     Dynamical RAM for                 psi:       2.11 MB

     Dynamical RAM for                hpsi:       2.11 MB

     Dynamical RAM for                spsi:       2.11 MB

     Dynamical RAM for      wfcinit/wfcrot:       2.35 MB

     Dynamical RAM for           addusdens:     119.02 MB

     Dynamical RAM for          addusforce:     120.34 MB

     Dynamical RAM for         addusstress:     121.74 MB

     Estimated static dynamical RAM per process >      85.97 MB

     Estimated max dynamical RAM per process >     207.70 MB

     Estimated total dynamical RAM >       4.87 GB

     Initial potential from superposition of free atoms

     starting charge   71.99469, renormalised to   72.00000
     Starting wfcs are  112 randomized atomic wfcs
     Checking if some PAW data can be deallocated... 
       PAW data deallocated on   12 nodes for type:  1
       PAW data deallocated on   12 nodes for type:  2

     total cpu time spent up to now is       10.8 secs

     Self-consistent Calculation

     iteration #  1     ecut=    90.00 Ry     beta= 0.70
     Davidson diagonalization with overlap
     ethr =  1.00E-02,  avg # of iterations =  2.0

     Threshold (ethr) on eigenvalues was too large:
     Diagonalizing with lowered threshold

     Davidson diagonalization with overlap
     ethr =  2.09E-04,  avg # of iterations =  4.3

     total cpu time spent up to now is       54.6 secs

     total energy              =   -1180.30970292 Ry
     estimated scf accuracy    <       0.18954439 Ry

     iteration #  2     ecut=    90.00 Ry     beta= 0.70
     Davidson diagonalization with overlap
     ethr =  2.63E-04,  avg # of iterations =  3.2

     total cpu time spent up to now is       77.1 secs

     total energy              =   -1180.31400072 Ry
     estimated scf accuracy    <       0.08312789 Ry

     iteration #  3     ecut=    90.00 Ry     beta= 0.70
     Davidson diagonalization with overlap
     ethr =  1.15E-04,  avg # of iterations =  5.0

     total cpu time spent up to now is      104.2 secs

     total energy              =   -1180.32581315 Ry
     estimated scf accuracy    <       0.16438597 Ry

     iteration #  4     ecut=    90.00 Ry     beta= 0.70
     Davidson diagonalization with overlap
     ethr =  1.15E-04,  avg # of iterations =  4.1

     total cpu time spent up to now is      126.3 secs

     total energy              =   -1180.34987167 Ry
     estimated scf accuracy    <       0.00029063 Ry

     iteration #  5     ecut=    90.00 Ry     beta= 0.70
     Davidson diagonalization with overlap
     ethr =  4.04E-07,  avg # of iterations =  8.4

     total cpu time spent up to now is      160.6 secs

     total energy              =   -1180.35049845 Ry
     estimated scf accuracy    <       0.00034806 Ry

     iteration #  6     ecut=    90.00 Ry     beta= 0.70
     Davidson diagonalization with overlap
     ethr =  4.04E-07,  avg # of iterations =  3.3

     total cpu time spent up to now is      180.8 secs

     total energy              =   -1180.35055781 Ry
     estimated scf accuracy    <       0.00000105 Ry

     iteration #  7     ecut=    90.00 Ry     beta= 0.70
     Davidson diagonalization with overlap
     ethr =  1.46E-09,  avg # of iterations =  8.4

     total cpu time spent up to now is      218.9 secs

     total energy              =   -1180.35055884 Ry
     estimated scf accuracy    <       0.00002580 Ry

     iteration #  8     ecut=    90.00 Ry     beta= 0.70
     Davidson diagonalization with overlap
     ethr =  1.46E-09,  avg # of iterations =  5.6

     total cpu time spent up to now is      248.8 secs

     End of self-consistent calculation

          k = 0.0000 0.0000 0.0000 (  9771 PWs)   bands (ev):

   -56.5164 -56.5164 -56.4817 -56.4817 -56.4817 -56.4817 -56.4817 -56.4817
   -28.5820 -28.5820 -28.5742 -28.5742 -28.5742 -28.5742 -28.4849 -28.4849
   -27.6171 -27.6171 -27.6171 -27.6171 -27.5401 -27.5401 -27.5401 -27.5401
   -27.5331 -27.5331 -27.4513 -27.4513 -27.4513 -27.4513 -27.4504 -27.4504
     2.6987   2.6987   7.4569   7.4569   7.4569   7.4569   7.4661   7.4661
    10.5368  10.5368  10.5447  10.5447  10.5447  10.5447  11.9117  11.9117
    11.9117  11.9117  11.9228  11.9228  12.6026  12.6026  12.7719  12.7719
    12.7719  12.7719  13.1427  13.1427  13.1427  13.1427  13.1439  13.1439
    13.6709  13.6709  13.6709  13.6709  13.6748  13.6748  15.5510  15.5510
    15.5824  15.5824  15.5824  15.5824  15.7643  15.7643  15.7643  15.7643
    16.6652  16.6652  16.6955  16.6955  16.6955  16.6955

     occupation numbers 
     1.0000   1.0000   1.0000   1.0000   1.0000   1.0000   1.0000   1.0000
     1.0000   1.0000   1.0000   1.0000   1.0000   1.0000   1.0000   1.0000
     1.0000   1.0000   1.0000   1.0000   1.0000   1.0000   1.0000   1.0000
     1.0000   1.0000   1.0000   1.0000   1.0000   1.0000   1.0000   1.0000
     1.0000   1.0000   1.0000   1.0000   1.0000   1.0000   1.0000   1.0000
     1.0000   1.0000   1.0000   1.0000   1.0000   1.0000   1.0000   1.0000
     1.0000   1.0000   1.0000   1.0000   1.0000   1.0000   1.0000   1.0000
     1.0000   1.0000   1.0000   1.0000   1.0000   1.0000   1.0000   1.0000
     1.0000   1.0000   1.0000   1.0000   1.0000   1.0000  -0.0000  -0.0000
    -0.0000  -0.0000  -0.0000  -0.0000  -0.0000  -0.0000  -0.0000  -0.0000
    -0.0000  -0.0000  -0.0000  -0.0000  -0.0000  -0.0000

          k = 0.0000 0.0000 0.1250 (  9667 PWs)   bands (ev):

   -56.5154 -56.5154 -56.4857 -56.4857 -56.4814 -56.4814 -56.4790 -56.4790
   -28.5882 -28.5809 -28.5780 -28.5774 -28.5676 -28.5644 -28.4878 -28.4878
   -27.6304 -27.6240 -27.6076 -27.6012 -27.5490 -27.5457 -27.5404 -27.5348
   -27.5332 -27.5208 -27.4587 -27.4573 -27.4547 -27.4497 -27.4488 -27.4444
     2.8071   2.8071   6.7954   6.7986   7.5181   7.5195   7.9727   7.9814
    10.0749  10.0800  10.6132  10.6149  11.0390  11.0408  11.3205  11.3206
    11.6505  11.6543  12.5295  12.5361  12.5612  12.5794  12.7793  12.7865
    12.9230  12.9243  13.1130  13.1151  13.1775  13.1779  13.2085  13.2089
    13.5213  13.5289  13.6527  13.6542  13.8991  13.8993  15.3974  15.4155
    15.4442  15.4539  15.7212  15.7246  15.7390  15.7520  15.7647  15.7701
    16.4737  16.4907  16.6336  16.6384  16.8958  16.9163

     occupation numbers 
     1.0000   1.0000   1.0000   1.0000   1.0000   1.0000   1.0000   1.0000
     1.0000   1.0000   1.0000   1.0000   1.0000   1.0000   1.0000   1.0000
     1.0000   1.0000   1.0000   1.0000   1.0000   1.0000   1.0000   1.0000
     1.0000   1.0000   1.0000   1.0000   1.0000   1.0000   1.0000   1.0000
     1.0000   1.0000   1.0000   1.0000   1.0000   1.0000   1.0000   1.0000
     1.0000   1.0000   1.0000   1.0000   1.0000   1.0000   1.0000   1.0000
     1.0000   1.0000   1.0000   1.0000   1.0000   1.0000   1.0000   1.0000
     1.0000   1.0000   1.0000   1.0000   1.0000   1.0000   1.0000   1.0000
     1.0000   1.0000   1.0000   1.0000   1.0000   1.0000  -0.0024  -0.0016
    -0.0008  -0.0006  -0.0000  -0.0000  -0.0000  -0.0000  -0.0000  -0.0000
    -0.0000  -0.0000  -0.0000  -0.0000  -0.0000  -0.0000

          k = 0.0000 0.0000 0.2500 (  9618 PWs)   bands (ev):

   -56.5125 -56.5125 -56.4908 -56.4908 -56.4805 -56.4805 -56.4776 -56.4776
   -28.5917 -28.5845 -28.5813 -28.5788 -28.5549 -28.5519 -28.4960 -28.4958
   -27.6390 -27.6300 -27.5947 -27.5873 -27.5585 -27.5475 -27.5381 -27.5351
   -27.5299 -27.5065 -27.4698 -27.4626 -27.4605 -27.4506 -27.4481 -27.4414
     3.1272   3.1272   5.9920   5.9934   7.6896   7.6925   8.3701   8.3802
     9.7439   9.7452  10.7559  10.7612  10.8661  10.8748  11.1952  11.2026
    11.5681  11.5688  12.2653  12.2802  12.8661  12.8727  12.9121  12.9339
    13.1198  13.1238  13.1285  13.1338  13.2505  13.2511  13.2815  13.2854
    13.5435  13.5469  13.6974  13.7049  14.0460  14.0465  15.0725  15.1011
    15.3794  15.3800  15.6156  15.6308  15.7380  15.7622  15.8509  15.8748
    16.2850  16.2997  16.4931  16.5047  17.1870  17.2075

     occupation numbers 
     1.0000   1.0000   1.0000   1.0000   1.0000   1.0000   1.0000   1.0000
     1.0000   1.0000   1.0000   1.0000   1.0000   1.0000   1.0000   1.0000
     1.0000   1.0000   1.0000   1.0000   1.0000   1.0000   1.0000   1.0000
     1.0000   1.0000   1.0000   1.0000   1.0000   1.0000   1.0000   1.0000
     1.0000   1.0000   1.0000   1.0000   1.0000   1.0000   1.0000   1.0000
     1.0000   1.0000   1.0000   1.0000   1.0000   1.0000   1.0000   1.0000
     1.0000   1.0000   1.0000   1.0000   1.0000   1.0000   1.0000   1.0000
     1.0000   1.0000   1.0000   1.0000   1.0000   1.0000   1.0000   1.0000
     1.0000   1.0000   1.0000   1.0000   1.0000   1.0000   0.0685   0.0162
    -0.0034  -0.0034  -0.0000  -0.0000  -0.0000  -0.0000  -0.0000  -0.0000
    -0.0000  -0.0000  -0.0000  -0.0000  -0.0000  -0.0000

          k = 0.0000 0.0000 0.3750 (  9662 PWs)   bands (ev):

   -56.5081 -56.5081 -56.4966 -56.4966 -56.4793 -56.4793 -56.4775 -56.4775
   -28.5921 -28.5858 -28.5853 -28.5813 -28.5397 -28.5374 -28.5085 -28.5078
   -27.6421 -27.6359 -27.5812 -27.5764 -27.5671 -27.5443 -27.5440 -27.5316
   -27.5245 -27.4922 -27.4859 -27.4687 -27.4621 -27.4536 -27.4467 -27.4417
     3.6438   3.6439   5.1358   5.1363   7.9592   7.9638   8.5101   8.5190
     9.6769   9.6797  10.5124  10.5130  10.7725  10.7857  11.0296  11.0315
    12.0047  12.0069  12.1206  12.1353  12.7680  12.7833  12.9432  12.9560
    13.0785  13.0860  13.1848  13.1888  13.2452  13.2484  13.3247  13.3281
    13.5399  13.5403  13.9310  13.9354  14.2198  14.2332  14.8122  14.8471
    15.3562  15.3678  15.4955  15.5145  15.7525  15.7819  15.8456  15.8708
    16.1644  16.1803  16.3077  16.3216  17.3494  17.3605

     occupation numbers 
     1.0000   1.0000   1.0000   1.0000   1.0000   1.0000   1.0000   1.0000
     1.0000   1.0000   1.0000   1.0000   1.0000   1.0000   1.0000   1.0000
     1.0000   1.0000   1.0000   1.0000   1.0000   1.0000   1.0000   1.0000
     1.0000   1.0000   1.0000   1.0000   1.0000   1.0000   1.0000   1.0000
     1.0000   1.0000   1.0000   1.0000   1.0000   1.0000   1.0000   1.0000
     1.0000   1.0000   1.0000   1.0000   1.0000   1.0000   1.0000   1.0000
     1.0000   1.0000   1.0000   1.0000   1.0000   1.0000   1.0000   1.0000
     1.0000   1.0000   1.0000   1.0000   1.0000   1.0000   1.0000   1.0000
     1.0000   1.0000   1.0000   1.0000   1.0000   1.0000   0.9732   0.8997
    -0.0054  -0.0043  -0.0002  -0.0001  -0.0000  -0.0000  -0.0000  -0.0000
    -0.0000  -0.0000  -0.0000  -0.0000  -0.0000  -0.0000

          k = 0.0000 0.0000-0.5000 (  9658 PWs)   bands (ev):

   -56.5026 -56.5026 -56.5026 -56.5026 -56.4781 -56.4781 -56.4781 -56.4781
   -28.5898 -28.5898 -28.5839 -28.5839 -28.5237 -28.5237 -28.5222 -28.5222
   -27.6406 -27.6406 -27.5742 -27.5742 -27.5598 -27.5598 -27.5375 -27.5375
   -27.5052 -27.5052 -27.4793 -27.4793 -27.4580 -27.4580 -27.4441 -27.4441
     4.3287   4.3287   4.3289   4.3289   8.2825   8.2825   8.2889   8.2889
    10.0171  10.0171  10.0211  10.0211  10.8981  10.8981  10.9093  10.9093
    12.2470  12.2470  12.2536  12.2536  12.6848  12.6848  12.6972  12.6972
    13.1414  13.1414  13.1419  13.1419  13.2364  13.2364  13.2400  13.2400
    13.7823  13.7823  13.7854  13.7854  14.5652  14.5652  14.5937  14.5937
    15.4000  15.4000  15.4178  15.4178  15.8050  15.8050  15.8347  15.8347
    16.1654  16.1654  16.1791  16.1791  17.5419  17.5464

     occupation numbers 
     1.0000   1.0000   1.0000   1.0000   1.0000   1.0000   1.0000   1.0000
     1.0000   1.0000   1.0000   1.0000   1.0000   1.0000   1.0000   1.0000
     1.0000   1.0000   1.0000   1.0000   1.0000   1.0000   1.0000   1.0000
     1.0000   1.0000   1.0000   1.0000   1.0000   1.0000   1.0000   1.0000
     1.0000   1.0000   1.0000   1.0000   1.0000   1.0000   1.0000   1.0000
     1.0000   1.0000   1.0000   1.0000   1.0000   1.0000   1.0000   1.0000
     1.0000   1.0000   1.0000   1.0000   1.0000   1.0000   1.0000   1.0000
     1.0000   1.0000   1.0000   1.0000   1.0000   1.0000   1.0000   1.0000
     1.0000   1.0000   1.0000   1.0000   1.0071   1.0071   1.0113   1.0113
    -0.0022  -0.0022  -0.0015  -0.0015  -0.0000  -0.0000  -0.0000  -0.0000
    -0.0000  -0.0000  -0.0000  -0.0000  -0.0000  -0.0000

          k = 0.0000 0.1250 0.1250 (  9657 PWs)   bands (ev):

   -56.5144 -56.5144 -56.4872 -56.4872 -56.4817 -56.4817 -56.4781 -56.4781
   -28.5901 -28.5837 -28.5767 -28.5760 -28.5648 -28.5608 -28.4906 -28.4905
   -27.6322 -27.6285 -27.6006 -27.5967 -27.5515 -27.5471 -27.5429 -27.5390
   -27.5267 -27.5143 -27.4639 -27.4623 -27.4562 -27.4506 -27.4458 -27.4419
     2.9147   2.9147   6.6454   6.6503   7.3154   7.3193   8.2193   8.2251
     9.9473   9.9523  10.6666  10.6726  10.8543  10.8589  11.2388  11.2420
    11.8048  11.8059  12.4436  12.4547  12.5942  12.6021  12.9024  12.9086
    13.0099  13.0192  13.1597  13.1607  13.1649  13.1698  13.2664  13.2683
    13.4638  13.4702  13.6774  13.6888  13.9941  13.9995  15.3445  15.3568
    15.3924  15.4017  15.6233  15.6327  15.7227  15.7390  15.7927  15.8141
    16.3734  16.3917  16.6461  16.6535  16.9380  16.9674

     occupation numbers 
     1.0000   1.0000   1.0000   1.0000   1.0000   1.0000   1.0000   1.0000
     1.0000   1.0000   1.0000   1.0000   1.0000   1.0000   1.0000   1.0000
     1.0000   1.0000   1.0000   1.0000   1.0000   1.0000   1.0000   1.0000
     1.0000   1.0000   1.0000   1.0000   1.0000   1.0000   1.0000   1.0000
     1.0000   1.0000   1.0000   1.0000   1.0000   1.0000   1.0000   1.0000
     1.0000   1.0000   1.0000   1.0000   1.0000   1.0000   1.0000   1.0000
     1.0000   1.0000   1.0000   1.0000   1.0000   1.0000   1.0000   1.0000
     1.0000   1.0000   1.0000   1.0000   1.0000   1.0000   1.0000   1.0000
     1.0000   1.0000   1.0000   1.0000   1.0000   1.0000  -0.0067  -0.0053
    -0.0026  -0.0022  -0.0000  -0.0000  -0.0000  -0.0000  -0.0000  -0.0000
    -0.0000  -0.0000  -0.0000  -0.0000  -0.0000  -0.0000

          k = 0.0000 0.1250 0.2500 (  9633 PWs)   bands (ev):

   -56.5116 -56.5116 -56.4912 -56.4912 -56.4811 -56.4811 -56.4774 -56.4774
   -28.5919 -28.5859 -28.5786 -28.5772 -28.5545 -28.5512 -28.4985 -28.4983
   -27.6376 -27.6312 -27.5910 -27.5856 -27.5580 -27.5496 -27.5421 -27.5388
   -27.5243 -27.5020 -27.4759 -27.4674 -27.4605 -27.4529 -27.4433 -27.4386
     3.2324   3.2325   6.0267   6.0292   7.3762   7.3789   8.4794   8.4845
     9.7444   9.7459  10.4124  10.4162  10.8569  10.8577  11.4946  11.4998
    11.5881  11.5897  12.3106  12.3205  12.6384  12.6411  13.0342  13.0416
    13.0731  13.0845  13.2025  13.2086  13.2806  13.2819  13.3801  13.3843
    13.5199  13.5263  13.8043  13.8196  14.1004  14.1075  15.0885  15.1155
    15.2972  15.3122  15.5064  15.5210  15.6882  15.7102  15.8383  15.8639
    16.2232  16.2384  16.5270  16.5393  17.1516  17.1853

     occupation numbers 
     1.0000   1.0000   1.0000   1.0000   1.0000   1.0000   1.0000   1.0000
     1.0000   1.0000   1.0000   1.0000   1.0000   1.0000   1.0000   1.0000
     1.0000   1.0000   1.0000   1.0000   1.0000   1.0000   1.0000   1.0000
     1.0000   1.0000   1.0000   1.0000   1.0000   1.0000   1.0000   1.0000
     1.0000   1.0000   1.0000   1.0000   1.0000   1.0000   1.0000   1.0000
     1.0000   1.0000   1.0000   1.0000   1.0000   1.0000   1.0000   1.0000
     1.0000   1.0000   1.0000   1.0000   1.0000   1.0000   1.0000   1.0000
     1.0000   1.0000   1.0000   1.0000   1.0000   1.0000   1.0000   1.0000
     1.0000   1.0000   1.0000   1.0000   1.0000   1.0000   0.0366  -0.0022
    -0.0142  -0.0114  -0.0002  -0.0001  -0.0000  -0.0000  -0.0000  -0.0000
    -0.0000  -0.0000  -0.0000  -0.0000  -0.0000  -0.0000

          k = 0.0000 0.1250 0.3750 (  9657 PWs)   bands (ev):

   -56.5074 -56.5074 -56.4965 -56.4965 -56.4799 -56.4799 -56.4776 -56.4776
   -28.5913 -28.5862 -28.5826 -28.5798 -28.5405 -28.5382 -28.5105 -28.5100
   -27.6398 -27.6346 -27.5809 -27.5748 -27.5665 -27.5491 -27.5435 -27.5309
   -27.5260 -27.4930 -27.4879 -27.4706 -27.4637 -27.4571 -27.4412 -27.4379
     3.7447   3.7449   5.2138   5.2148   7.6678   7.6698   8.4241   8.4278
     9.7360   9.7393  10.2160  10.2200  11.0143  11.0203  11.1799  11.1938
    11.8663  11.8716  12.1811  12.1908  12.6387  12.6453  12.8663  12.8763
    13.0652  13.0715  13.2703  13.2750  13.3341  13.3360  13.4468  13.4497
    13.6019  13.6088  13.9674  13.9742  14.2904  14.3075  14.8245  14.8581
    15.2786  15.2945  15.3787  15.3911  15.6924  15.7185  15.8253  15.8547
    16.1467  16.1553  16.3585  16.3719  17.3033  17.3269

     occupation numbers 
     1.0000   1.0000   1.0000   1.0000   1.0000   1.0000   1.0000   1.0000
     1.0000   1.0000   1.0000   1.0000   1.0000   1.0000   1.0000   1.0000
     1.0000   1.0000   1.0000   1.0000   1.0000   1.0000   1.0000   1.0000
     1.0000   1.0000   1.0000   1.0000   1.0000   1.0000   1.0000   1.0000
     1.0000   1.0000   1.0000   1.0000   1.0000   1.0000   1.0000   1.0000
     1.0000   1.0000   1.0000   1.0000   1.0000   1.0000   1.0000   1.0000
     1.0000   1.0000   1.0000   1.0000   1.0000   1.0000   1.0000   1.0000
     1.0000   1.0000   1.0000   1.0000   1.0000   1.0000   1.0000   1.0000
     1.0000   1.0000   1.0000   1.0000   1.0000   1.0000   0.9512   0.8698
    -0.0182  -0.0148  -0.0035  -0.0027  -0.0000  -0.0000  -0.0000  -0.0000
    -0.0000  -0.0000  -0.0000  -0.0000  -0.0000  -0.0000

          k = 0.0000 0.1250-0.5000 (  9664 PWs)   bands (ev):

   -56.5021 -56.5021 -56.5021 -56.5021 -56.4786 -56.4786 -56.4786 -56.4786
   -28.5885 -28.5885 -28.5826 -28.5826 -28.5256 -28.5256 -28.5234 -28.5234
   -27.6382 -27.6382 -27.5741 -27.5741 -27.5605 -27.5605 -27.5370 -27.5370
   -27.5100 -27.5100 -27.4780 -27.4780 -27.4614 -27.4614 -27.4392 -27.4392
     4.4220   4.4220   4.4225   4.4225   8.0586   8.0586   8.0655   8.0655
     9.9960   9.9960  10.0003  10.0003  11.0365  11.0365  11.0506  11.0506
    12.1470  12.1470  12.1524  12.1524  12.5973  12.5973  12.6137  12.6137
    13.2265  13.2265  13.2290  13.2290  13.3319  13.3319  13.3331  13.3331
    13.8292  13.8292  13.8328  13.8328  14.5985  14.5985  14.6289  14.6289
    15.3015  15.3015  15.3173  15.3173  15.7561  15.7561  15.7858  15.7858
    16.2046  16.2046  16.2157  16.2157  17.5186  17.5261

     occupation numbers 
     1.0000   1.0000   1.0000   1.0000   1.0000   1.0000   1.0000   1.0000
     1.0000   1.0000   1.0000   1.0000   1.0000   1.0000   1.0000   1.0000
     1.0000   1.0000   1.0000   1.0000   1.0000   1.0000   1.0000   1.0000
     1.0000   1.0000   1.0000   1.0000   1.0000   1.0000   1.0000   1.0000
     1.0000   1.0000   1.0000   1.0000   1.0000   1.0000   1.0000   1.0000
     1.0000   1.0000   1.0000   1.0000   1.0000   1.0000   1.0000   1.0000
     1.0000   1.0000   1.0000   1.0000   1.0000   1.0000   1.0000   1.0000
     1.0000   1.0000   1.0000   1.0000   1.0000   1.0000   1.0000   1.0000
     1.0000   1.0000   1.0000   1.0000   1.0122   1.0122   1.0184   1.0184
    -0.0134  -0.0134  -0.0105  -0.0105  -0.0000  -0.0000  -0.0000  -0.0000
    -0.0000  -0.0000  -0.0000  -0.0000  -0.0000  -0.0000

          k = 0.0000 0.2500 0.2500 (  9661 PWs)   bands (ev):

   -56.5091 -56.5091 -56.4930 -56.4930 -56.4817 -56.4817 -56.4776 -56.4776
   -28.5913 -28.5861 -28.5764 -28.5756 -28.5510 -28.5476 -28.5058 -28.5054
   -27.6351 -27.6319 -27.5840 -27.5816 -27.5580 -27.5544 -27.5434 -27.5409
   -27.5210 -27.4963 -27.4857 -27.4757 -27.4658 -27.4493 -27.4392 -27.4353
     3.5427   3.5429   5.9653   5.9686   6.9412   6.9452   8.4363   8.4413
     9.7516   9.7548  10.1864  10.1915  10.9258  10.9283  11.3504  11.3515
    11.8597  11.8635  12.2862  12.2896  12.5056  12.5149  12.9035  12.9111
    13.1472  13.1566  13.2697  13.2792  13.4412  13.4427  13.5195  13.5287
    13.5703  13.5809  13.9840  13.9963  14.2196  14.2252  15.0456  15.0660
    15.1392  15.1639  15.2933  15.3047  15.6143  15.6394  15.7621  15.7910
    16.1590  16.1700  16.5117  16.5225  17.1849  17.2277

     occupation numbers 
     1.0000   1.0000   1.0000   1.0000   1.0000   1.0000   1.0000   1.0000
     1.0000   1.0000   1.0000   1.0000   1.0000   1.0000   1.0000   1.0000
     1.0000   1.0000   1.0000   1.0000   1.0000   1.0000   1.0000   1.0000
     1.0000   1.0000   1.0000   1.0000   1.0000   1.0000   1.0000   1.0000
     1.0000   1.0000   1.0000   1.0000   1.0000   1.0000   1.0000   1.0000
     1.0000   1.0000   1.0000   1.0000   1.0000   1.0000   1.0000   1.0000
     1.0000   1.0000   1.0000   1.0000   1.0000   1.0000   1.0000   1.0000
     1.0000   1.0000   1.0000   1.0000   1.0000   1.0000   1.0000   1.0000
     1.0000   1.0000   1.0000   1.0000   1.0000   1.0000   0.1382   0.0835
    -0.0225  -0.0329  -0.0150  -0.0127  -0.0000  -0.0000  -0.0000  -0.0000
    -0.0000  -0.0000  -0.0000  -0.0000  -0.0000  -0.0000

          k = 0.0000 0.2500 0.3750 (  9639 PWs)   bands (ev):

   -56.5054 -56.5054 -56.4965 -56.4965 -56.4811 -56.4811 -56.4784 -56.4784
   -28.5887 -28.5844 -28.5786 -28.5767 -28.5417 -28.5395 -28.5164 -28.5159
   -27.6333 -27.6305 -27.5827 -27.5756 -27.5629 -27.5524 -27.5425 -27.5335
   -27.5251 -27.5010 -27.4926 -27.4824 -27.4620 -27.4497 -27.4363 -27.4337
     4.0409   4.0413   5.4173   5.4192   7.0449   7.0480   8.0210   8.0243
     9.9169   9.9202  10.1870  10.1903  11.0282  11.0320  11.3804  11.3880
    11.8894  11.8914  12.0246  12.0289  12.4327  12.4437  12.6522  12.6621
    13.2341  13.2435  13.3292  13.3345  13.4383  13.4421  13.6532  13.6561
    13.7895  13.7929  14.0661  14.0756  14.4535  14.4788  14.8298  14.8567
    15.0710  15.0923  15.1467  15.1521  15.5756  15.6001  15.6790  15.7111
    16.1998  16.2067  16.4537  16.4642  17.1902  17.2191

     occupation numbers 
     1.0000   1.0000   1.0000   1.0000   1.0000   1.0000   1.0000   1.0000
     1.0000   1.0000   1.0000   1.0000   1.0000   1.0000   1.0000   1.0000
     1.0000   1.0000   1.0000   1.0000   1.0000   1.0000   1.0000   1.0000
     1.0000   1.0000   1.0000   1.0000   1.0000   1.0000   1.0000   1.0000
     1.0000   1.0000   1.0000   1.0000   1.0000   1.0000   1.0000   1.0000
     1.0000   1.0000   1.0000   1.0000   1.0000   1.0000   1.0000   1.0000
     1.0000   1.0000   1.0000   1.0000   1.0000   1.0000   1.0000   1.0000
     1.0000   1.0000   1.0000   1.0000   1.0000   1.0000   1.0000   1.0000
     1.0000   1.0000   1.0000   1.0000   1.0007   1.0012   0.9402   0.8737
     0.0718   0.0300  -0.0267  -0.0291  -0.0000  -0.0000  -0.0000  -0.0000
    -0.0000  -0.0000  -0.0000  -0.0000  -0.0000  -0.0000

          k = 0.0000 0.2500-0.5000 (  9686 PWs)   bands (ev):

   -56.5009 -56.5009 -56.5009 -56.5009 -56.4798 -56.4798 -56.4798 -56.4798
   -28.5848 -28.5848 -28.5795 -28.5795 -28.5302 -28.5302 -28.5271 -28.5271
   -27.6312 -27.6312 -27.5793 -27.5793 -27.5573 -27.5573 -27.5355 -27.5355
   -27.5172 -27.5172 -27.4884 -27.4884 -27.4546 -27.4546 -27.4342 -27.4342
     4.6917   4.6917   4.6927   4.6927   7.4836   7.4836   7.4898   7.4898
    10.1293  10.1293  10.1324  10.1324  11.2000  11.2000  11.2117  11.2117
    11.9550  11.9550  11.9569  11.9569  12.4182  12.4182  12.4307  12.4307
    13.3463  13.3463  13.3527  13.3527  13.5154  13.5154  13.5215  13.5215
    13.9869  13.9869  13.9924  13.9924  14.6538  14.6538  14.6843  14.6843
    15.0842  15.0842  15.0959  15.0959  15.6024  15.6024  15.6312  15.6312
    16.3321  16.3321  16.3431  16.3431  17.3580  17.3609

     occupation numbers 
     1.0000   1.0000   1.0000   1.0000   1.0000   1.0000   1.0000   1.0000
     1.0000   1.0000   1.0000   1.0000   1.0000   1.0000   1.0000   1.0000
     1.0000   1.0000   1.0000   1.0000   1.0000   1.0000   1.0000   1.0000
     1.0000   1.0000   1.0000   1.0000   1.0000   1.0000   1.0000   1.0000
     1.0000   1.0000   1.0000   1.0000   1.0000   1.0000   1.0000   1.0000
     1.0000   1.0000   1.0000   1.0000   1.0000   1.0000   1.0000   1.0000
     1.0000   1.0000   1.0000   1.0000   1.0000   1.0000   1.0000   1.0000
     1.0000   1.0000   1.0000   1.0000   1.0000   1.0000   1.0000   1.0000
     1.0000   1.0000   1.0000   1.0000   1.0244   1.0244   1.0313   1.0313
     0.0445   0.0445   0.0242   0.0242  -0.0000  -0.0000  -0.0000  -0.0000
    -0.0000  -0.0000  -0.0000  -0.0000  -0.0000  -0.0000

          k = 0.0000 0.3750 0.3750 (  9632 PWs)   bands (ev):

   -56.5025 -56.5025 -56.4973 -56.4973 -56.4817 -56.4817 -56.4798 -56.4798
   -28.5844 -28.5810 -28.5761 -28.5753 -28.5403 -28.5384 -28.5250 -28.5241
   -27.6249 -27.6245 -27.5884 -27.5843 -27.5547 -27.5491 -27.5382 -27.5338
   -27.5264 -27.5072 -27.5049 -27.4954 -27.4526 -27.4431 -27.4350 -27.4322
     4.5099   4.5104   5.5234   5.5250   6.5729   6.5750   7.4027   7.4057
    10.2462  10.2475  10.4517  10.4528  10.9113  10.9122  11.2394  11.2425
    11.7863  11.7892  12.0556  12.0595  12.2633  12.2657  12.4683  12.4760
    13.2326  13.2402  13.3890  13.3905  13.6721  13.6726  13.8195  13.8245
    14.0547  14.0668  14.1493  14.1602  14.5564  14.5764  14.7399  14.7518
    14.8525  14.8716  14.9548  14.9780  15.4763  15.4958  15.5165  15.5437
    16.3211  16.3316  16.5101  16.5156  17.0892  17.1115

     occupation numbers 
     1.0000   1.0000   1.0000   1.0000   1.0000   1.0000   1.0000   1.0000
     1.0000   1.0000   1.0000   1.0000   1.0000   1.0000   1.0000   1.0000
     1.0000   1.0000   1.0000   1.0000   1.0000   1.0000   1.0000   1.0000
     1.0000   1.0000   1.0000   1.0000   1.0000   1.0000   1.0000   1.0000
     1.0000   1.0000   1.0000   1.0000   1.0000   1.0000   1.0000   1.0000
     1.0000   1.0000   1.0000   1.0000   1.0000   1.0000   1.0000   1.0000
     1.0000   1.0000   1.0000   1.0000   1.0000   1.0000   1.0000   1.0000
     1.0000   1.0000   1.0000   1.0000   1.0000   1.0000   1.0000   1.0000
     1.0000   1.0000   1.0000   1.0000   1.0061   1.0086   1.0335   1.0301
     0.8855   0.8284   0.4931   0.3907  -0.0004  -0.0002  -0.0001  -0.0001
    -0.0000  -0.0000  -0.0000  -0.0000  -0.0000  -0.0000

          k = 0.0000 0.3750-0.5000 (  9642 PWs)   bands (ev):

   -56.4996 -56.4996 -56.4996 -56.4996 -56.4811 -56.4811 -56.4811 -56.4811
   -28.5799 -28.5799 -28.5763 -28.5763 -28.5346 -28.5346 -28.5320 -28.5320
   -27.6202 -27.6202 -27.5917 -27.5917 -27.5481 -27.5481 -27.5343 -27.5343
   -27.5211 -27.5211 -27.5039 -27.5039 -27.4446 -27.4446 -27.4333 -27.4333
     5.0900   5.0900   5.0914   5.0914   6.8116   6.8116   6.8157   6.8157
    10.4497  10.4497  10.4511  10.4511  11.2416  11.2416  11.2496  11.2496
    11.6403  11.6403  11.6482  11.6482  12.3095  12.3095  12.3146  12.3146
    13.3644  13.3644  13.3701  13.3701  13.7680  13.7680  13.7771  13.7771
    14.2716  14.2716  14.2744  14.2744  14.5432  14.5432  14.5540  14.5540
    14.8845  14.8845  14.9035  14.9035  15.4571  15.4571  15.4769  15.4769
    16.4915  16.4915  16.5016  16.5016  17.1135  17.1164

     occupation numbers 
     1.0000   1.0000   1.0000   1.0000   1.0000   1.0000   1.0000   1.0000
     1.0000   1.0000   1.0000   1.0000   1.0000   1.0000   1.0000   1.0000
     1.0000   1.0000   1.0000   1.0000   1.0000   1.0000   1.0000   1.0000
     1.0000   1.0000   1.0000   1.0000   1.0000   1.0000   1.0000   1.0000
     1.0000   1.0000   1.0000   1.0000   1.0000   1.0000   1.0000   1.0000
     1.0000   1.0000   1.0000   1.0000   1.0000   1.0000   1.0000   1.0000
     1.0000   1.0000   1.0000   1.0000   1.0000   1.0000   1.0000   1.0000
     1.0000   1.0000   1.0000   1.0000   1.0000   1.0000   1.0000   1.0000
     1.0000   1.0000   1.0000   1.0000   1.0047   1.0047   1.0058   1.0058
     0.7844   0.7844   0.7127   0.7127  -0.0006  -0.0006  -0.0004  -0.0004
    -0.0000  -0.0000  -0.0000  -0.0000  -0.0000  -0.0000

          k = 0.0000-0.5000-0.5000 (  9580 PWs)   bands (ev):

   -56.4989 -56.4989 -56.4989 -56.4989 -56.4818 -56.4818 -56.4818 -56.4818
   -28.5762 -28.5762 -28.5762 -28.5762 -28.5355 -28.5355 -28.5355 -28.5355
   -27.6064 -27.6064 -27.6064 -27.6064 -27.5384 -27.5384 -27.5384 -27.5384
   -27.5167 -27.5167 -27.5167 -27.5167 -27.4369 -27.4369 -27.4369 -27.4369
     5.3716   5.3716   5.3716   5.3716   6.4278   6.4278   6.4278   6.4278
    10.7055  10.7055  10.7055  10.7055  11.2421  11.2421  11.2421  11.2421
    11.3850  11.3850  11.3850  11.3850  12.2842  12.2842  12.2842  12.2842
    13.3612  13.3612  13.3612  13.3612  14.0064  14.0064  14.0064  14.0064
    14.2923  14.2923  14.2923  14.2923  14.5248  14.5248  14.5248  14.5248
    14.7573  14.7573  14.7573  14.7573  15.4156  15.4156  15.4156  15.4156
    16.5867  16.5867  16.5867  16.5867  16.9830  16.9830

     occupation numbers 
     1.0000   1.0000   1.0000   1.0000   1.0000   1.0000   1.0000   1.0000
     1.0000   1.0000   1.0000   1.0000   1.0000   1.0000   1.0000   1.0000
     1.0000   1.0000   1.0000   1.0000   1.0000   1.0000   1.0000   1.0000
     1.0000   1.0000   1.0000   1.0000   1.0000   1.0000   1.0000   1.0000
     1.0000   1.0000   1.0000   1.0000   1.0000   1.0000   1.0000   1.0000
     1.0000   1.0000   1.0000   1.0000   1.0000   1.0000   1.0000   1.0000
     1.0000   1.0000   1.0000   1.0000   1.0000   1.0000   1.0000   1.0000
     1.0000   1.0000   1.0000   1.0000   1.0000   1.0000   1.0000   1.0000
     1.0000   1.0000   1.0000   1.0000   1.0033   1.0033   1.0033   1.0033
     1.0278   1.0278   1.0278   1.0278  -0.0016  -0.0016  -0.0016  -0.0016
    -0.0000  -0.0000  -0.0000  -0.0000  -0.0000  -0.0000

          k = 0.1250 0.1250 0.1250 (  9633 PWs)   bands (ev):

   -56.5135 -56.5135 -56.4882 -56.4882 -56.4821 -56.4821 -56.4777 -56.4777
   -28.5912 -28.5851 -28.5756 -28.5749 -28.5628 -28.5584 -28.4933 -28.4931
   -27.6325 -27.6310 -27.5971 -27.5919 -27.5531 -27.5463 -27.5452 -27.5434
   -27.5225 -27.5092 -27.4714 -27.4619 -27.4559 -27.4554 -27.4425 -27.4403
     3.0215   3.0215   6.5637   6.5703   7.1839   7.1911   8.2854   8.2895
     9.9222   9.9270  10.6111  10.6113  10.6514  10.6516  11.2990  11.3046
    11.9442  11.9453  12.3496  12.3609  12.7363  12.7383  12.8156  12.8246
    13.0611  13.0647  13.1632  13.1637  13.2414  13.2473  13.3409  13.3497
    13.4548  13.4629  13.7031  13.7076  14.0630  14.0705  15.3197  15.3239
    15.3549  15.3561  15.5736  15.5745  15.6363  15.6507  15.8114  15.8234
    16.3130  16.3326  16.6474  16.6558  16.9605  16.9957

     occupation numbers 
     1.0000   1.0000   1.0000   1.0000   1.0000   1.0000   1.0000   1.0000
     1.0000   1.0000   1.0000   1.0000   1.0000   1.0000   1.0000   1.0000
     1.0000   1.0000   1.0000   1.0000   1.0000   1.0000   1.0000   1.0000
     1.0000   1.0000   1.0000   1.0000   1.0000   1.0000   1.0000   1.0000
     1.0000   1.0000   1.0000   1.0000   1.0000   1.0000   1.0000   1.0000
     1.0000   1.0000   1.0000   1.0000   1.0000   1.0000   1.0000   1.0000
     1.0000   1.0000   1.0000   1.0000   1.0000   1.0000   1.0000   1.0000
     1.0000   1.0000   1.0000   1.0000   1.0000   1.0000   1.0000   1.0000
     1.0000   1.0000   1.0000   1.0000   1.0000   1.0000  -0.0101  -0.0095
    -0.0055  -0.0054  -0.0000  -0.0000  -0.0000  -0.0000  -0.0000  -0.0000
    -0.0000  -0.0000  -0.0000  -0.0000  -0.0000  -0.0000

          k = 0.1250 0.1250 0.2500 (  9648 PWs)   bands (ev):

   -56.5108 -56.5108 -56.4915 -56.4915 -56.4817 -56.4817 -56.4774 -56.4774
   -28.5918 -28.5862 -28.5767 -28.5758 -28.5543 -28.5507 -28.5011 -28.5007
   -27.6363 -27.6314 -27.5895 -27.5824 -27.5572 -27.5504 -27.5454 -27.5425
   -27.5202 -27.4997 -27.4809 -27.4667 -27.4623 -27.4560 -27.4397 -27.4375
     3.3368   3.3369   6.0626   6.0658   7.2203   7.2247   8.4041   8.4082
     9.6715   9.6735  10.4341  10.4380  10.6891  10.6930  11.4161  11.4202
    11.8414  11.8463  12.2990  12.3024  12.7367  12.7419  13.0063  13.0114
    13.0814  13.0882  13.1137  13.1214  13.2800  13.2847  13.4378  13.4472
    13.6236  13.6321  13.8378  13.8465  14.1513  14.1574  15.0809  15.1061
    15.2822  15.2973  15.4439  15.4575  15.5873  15.6046  15.8091  15.8283
    16.2004  16.2161  16.5421  16.5559  17.1164  17.1521

     occupation numbers 
     1.0000   1.0000   1.0000   1.0000   1.0000   1.0000   1.0000   1.0000
     1.0000   1.0000   1.0000   1.0000   1.0000   1.0000   1.0000   1.0000
     1.0000   1.0000   1.0000   1.0000   1.0000   1.0000   1.0000   1.0000
     1.0000   1.0000   1.0000   1.0000   1.0000   1.0000   1.0000   1.0000
     1.0000   1.0000   1.0000   1.0000   1.0000   1.0000   1.0000   1.0000
     1.0000   1.0000   1.0000   1.0000   1.0000   1.0000   1.0000   1.0000
     1.0000   1.0000   1.0000   1.0000   1.0000   1.0000   1.0000   1.0000
     1.0000   1.0000   1.0000   1.0000   1.0000   1.0000   1.0000   1.0000
     1.0000   1.0000   1.0000   1.0000   1.0000   1.0000   0.0509   0.0093
    -0.0174  -0.0142  -0.0008  -0.0006  -0.0000  -0.0000  -0.0000  -0.0000
    -0.0000  -0.0000  -0.0000  -0.0000  -0.0000  -0.0000

          k = 0.1250 0.1250 0.3750 (  9660 PWs)   bands (ev):

   -56.5067 -56.5067 -56.4963 -56.4963 -56.4805 -56.4805 -56.4779 -56.4779
   -28.5904 -28.5857 -28.5807 -28.5784 -28.5414 -28.5390 -28.5128 -28.5119
   -27.6376 -27.6331 -27.5800 -27.5742 -27.5655 -27.5522 -27.5442 -27.5335
   -27.5236 -27.5001 -27.4826 -27.4703 -27.4662 -27.4593 -27.4380 -27.4363
     3.8446   3.8448   5.2904   5.2915   7.5134   7.5157   8.3089   8.3133
     9.5582   9.5592  10.2040  10.2073  10.9208  10.9252  11.4067  11.4127
    11.7848  11.7881  12.2115  12.2152  12.7416  12.7473  12.9484  12.9560
    13.0577  13.0660  13.2272  13.2344  13.3248  13.3284  13.4300  13.4364
    13.6938  13.6968  13.9766  13.9840  14.3493  14.3692  14.8296  14.8624
    15.2440  15.2603  15.3162  15.3295  15.6083  15.6282  15.7665  15.7898
    16.1528  16.1622  16.3765  16.3909  17.3090  17.3325

     occupation numbers 
     1.0000   1.0000   1.0000   1.0000   1.0000   1.0000   1.0000   1.0000
     1.0000   1.0000   1.0000   1.0000   1.0000   1.0000   1.0000   1.0000
     1.0000   1.0000   1.0000   1.0000   1.0000   1.0000   1.0000   1.0000
     1.0000   1.0000   1.0000   1.0000   1.0000   1.0000   1.0000   1.0000
     1.0000   1.0000   1.0000   1.0000   1.0000   1.0000   1.0000   1.0000
     1.0000   1.0000   1.0000   1.0000   1.0000   1.0000   1.0000   1.0000
     1.0000   1.0000   1.0000   1.0000   1.0000   1.0000   1.0000   1.0000
     1.0000   1.0000   1.0000   1.0000   1.0000   1.0000   1.0000   1.0000
     1.0000   1.0000   1.0000   1.0000   1.0000   1.0001   0.9407   0.8572
    -0.0264  -0.0225  -0.0107  -0.0086  -0.0000  -0.0000  -0.0000  -0.0000
    -0.0000  -0.0000  -0.0000  -0.0000  -0.0000  -0.0000

          k = 0.1250 0.1250-0.5000 (  9650 PWs)   bands (ev):

   -56.5016 -56.5016 -56.5016 -56.5016 -56.4791 -56.4791 -56.4791 -56.4791
   -28.5871 -28.5871 -28.5814 -28.5814 -28.5275 -28.5275 -28.5246 -28.5246
   -27.6359 -27.6359 -27.5729 -27.5729 -27.5627 -27.5627 -27.5361 -27.5361
   -27.5143 -27.5143 -27.4756 -27.4756 -27.4640 -27.4640 -27.4367 -27.4367
     4.5141   4.5141   4.5147   4.5147   7.9202   7.9202   7.9265   7.9265
     9.8403   9.8403   9.8417   9.8417  11.1809  11.1809  11.1906  11.1906
    12.0264  12.0264  12.0301  12.0301  12.7776  12.7776  12.7904  12.7904
    13.1753  13.1753  13.1835  13.1835  13.3649  13.3649  13.3678  13.3678
    13.8480  13.8480  13.8540  13.8540  14.6279  14.6279  14.6600  14.6600
    15.2450  15.2450  15.2641  15.2641  15.6831  15.6831  15.7091  15.7091
    16.2230  16.2230  16.2332  16.2332  17.6138  17.6152

     occupation numbers 
     1.0000   1.0000   1.0000   1.0000   1.0000   1.0000   1.0000   1.0000
     1.0000   1.0000   1.0000   1.0000   1.0000   1.0000   1.0000   1.0000
     1.0000   1.0000   1.0000   1.0000   1.0000   1.0000   1.0000   1.0000
     1.0000   1.0000   1.0000   1.0000   1.0000   1.0000   1.0000   1.0000
     1.0000   1.0000   1.0000   1.0000   1.0000   1.0000   1.0000   1.0000
     1.0000   1.0000   1.0000   1.0000   1.0000   1.0000   1.0000   1.0000
     1.0000   1.0000   1.0000   1.0000   1.0000   1.0000   1.0000   1.0000
     1.0000   1.0000   1.0000   1.0000   1.0000   1.0000   1.0000   1.0000
     1.0000   1.0000   1.0000   1.0000   1.0182   1.0182   1.0259   1.0259
    -0.0262  -0.0262  -0.0216  -0.0216  -0.0000  -0.0000  -0.0000  -0.0000
    -0.0000  -0.0000  -0.0000  -0.0000  -0.0000  -0.0000

          k = 0.1250 0.2500 0.2500 (  9649 PWs)   bands (ev):

   -56.5083 -56.5083 -56.4930 -56.4930 -56.4823 -56.4823 -56.4778 -56.4778
   -28.5907 -28.5856 -28.5747 -28.5741 -28.5514 -28.5479 -28.5082 -28.5075
   -27.6338 -27.6307 -27.5856 -27.5773 -27.5582 -27.5535 -27.5467 -27.5443
   -27.5167 -27.5018 -27.4833 -27.4707 -27.4691 -27.4535 -27.4370 -27.4347
     3.6446   3.6448   6.0134   6.0179   6.9145   6.9208   8.2970   8.3007
     9.4084   9.4112  10.4282  10.4299  10.6902  10.6928  11.4592  11.4641
    11.9038  11.9064  12.3019  12.3038  12.6210  12.6275  12.9558  12.9621
    13.1169  13.1219  13.1931  13.2037  13.2822  13.2877  13.5788  13.5856
    13.7492  13.7568  13.9704  13.9795  14.2864  14.2934  15.0244  15.0417
    15.1583  15.1788  15.2841  15.2967  15.4980  15.5100  15.7196  15.7402
    16.1680  16.1790  16.5166  16.5291  17.1459  17.1865

     occupation numbers 
     1.0000   1.0000   1.0000   1.0000   1.0000   1.0000   1.0000   1.0000
     1.0000   1.0000   1.0000   1.0000   1.0000   1.0000   1.0000   1.0000
     1.0000   1.0000   1.0000   1.0000   1.0000   1.0000   1.0000   1.0000
     1.0000   1.0000   1.0000   1.0000   1.0000   1.0000   1.0000   1.0000
     1.0000   1.0000   1.0000   1.0000   1.0000   1.0000   1.0000   1.0000
     1.0000   1.0000   1.0000   1.0000   1.0000   1.0000   1.0000   1.0000
     1.0000   1.0000   1.0000   1.0000   1.0000   1.0000   1.0000   1.0000
     1.0000   1.0000   1.0000   1.0000   1.0000   1.0000   1.0000   1.0000
     1.0000   1.0000   1.0000   1.0000   1.0000   1.0000   0.2067   0.1500
    -0.0314  -0.0352  -0.0170  -0.0143  -0.0002  -0.0001  -0.0000  -0.0000
    -0.0000  -0.0000  -0.0000  -0.0000  -0.0000  -0.0000

          k = 0.1250 0.2500 0.3750 (  9647 PWs)   bands (ev):

   -56.5047 -56.5047 -56.4961 -56.4961 -56.4817 -56.4817 -56.4788 -56.4788
   -28.5876 -28.5835 -28.5770 -28.5753 -28.5428 -28.5406 -28.5186 -28.5177
   -27.6315 -27.6287 -27.5820 -27.5742 -27.5648 -27.5548 -27.5425 -27.5366
   -27.5211 -27.5095 -27.4850 -27.4784 -27.4647 -27.4531 -27.4353 -27.4332
     4.1381   4.1385   5.4909   5.4929   7.0391   7.0430   7.9715   7.9747
     9.4102   9.4126  10.1453  10.1477  11.0640  11.0672  11.5737  11.5797
    11.8038  11.8113  12.0652  12.0668  12.5151  12.5252  12.7877  12.7954
    13.2080  13.2133  13.2899  13.3022  13.3524  13.3580  13.5988  13.6082
    13.8625  13.8740  14.0963  14.1078  14.5020  14.5301  14.8368  14.8636
    15.0697  15.0793  15.1461  15.1596  15.5072  15.5199  15.6323  15.6552
    16.2017  16.2086  16.4433  16.4541  17.1761  17.2027

     occupation numbers 
     1.0000   1.0000   1.0000   1.0000   1.0000   1.0000   1.0000   1.0000
     1.0000   1.0000   1.0000   1.0000   1.0000   1.0000   1.0000   1.0000
     1.0000   1.0000   1.0000   1.0000   1.0000   1.0000   1.0000   1.0000
     1.0000   1.0000   1.0000   1.0000   1.0000   1.0000   1.0000   1.0000
     1.0000   1.0000   1.0000   1.0000   1.0000   1.0000   1.0000   1.0000
     1.0000   1.0000   1.0000   1.0000   1.0000   1.0000   1.0000   1.0000
     1.0000   1.0000   1.0000   1.0000   1.0000   1.0000   1.0000   1.0000
     1.0000   1.0000   1.0000   1.0000   1.0000   1.0000   1.0000   1.0000
     1.0000   1.0000   1.0000   1.0000   1.0020   1.0037   0.9249   0.8534
     0.0748   0.0540  -0.0264  -0.0318  -0.0002  -0.0001  -0.0000  -0.0000
    -0.0000  -0.0000  -0.0000  -0.0000  -0.0000  -0.0000

          k = 0.1250 0.2500-0.5000 (  9646 PWs)   bands (ev):

   -56.5004 -56.5004 -56.5004 -56.5004 -56.4803 -56.4803 -56.4803 -56.4803
   -28.5835 -28.5835 -28.5782 -28.5782 -28.5319 -28.5319 -28.5285 -28.5285
   -27.6291 -27.6291 -27.5779 -27.5779 -27.5611 -27.5611 -27.5338 -27.5338
   -27.5207 -27.5207 -27.4836 -27.4836 -27.4574 -27.4574 -27.4337 -27.4337
     4.7806   4.7806   4.7817   4.7817   7.4687   7.4687   7.4750   7.4750
     9.7441   9.7441   9.7465   9.7465  11.5278  11.5278  11.5354  11.5354
    11.7436  11.7436  11.7474  11.7474  12.5997  12.5997  12.6111  12.6111
    13.2919  13.2919  13.2982  13.2982  13.4699  13.4699  13.4814  13.4814
    14.0235  14.0235  14.0316  14.0316  14.6929  14.6929  14.7254  14.7254
    15.0659  15.0659  15.0823  15.0823  15.5553  15.5553  15.5789  15.5789
    16.3191  16.3191  16.3281  16.3281  17.3782  17.3817

     occupation numbers 
     1.0000   1.0000   1.0000   1.0000   1.0000   1.0000   1.0000   1.0000
     1.0000   1.0000   1.0000   1.0000   1.0000   1.0000   1.0000   1.0000
     1.0000   1.0000   1.0000   1.0000   1.0000   1.0000   1.0000   1.0000
     1.0000   1.0000   1.0000   1.0000   1.0000   1.0000   1.0000   1.0000
     1.0000   1.0000   1.0000   1.0000   1.0000   1.0000   1.0000   1.0000
     1.0000   1.0000   1.0000   1.0000   1.0000   1.0000   1.0000   1.0000
     1.0000   1.0000   1.0000   1.0000   1.0000   1.0000   1.0000   1.0000
     1.0000   1.0000   1.0000   1.0000   1.0000   1.0000   1.0000   1.0000
     1.0000   1.0000   1.0000   1.0000   1.0329   1.0329   1.0353   1.0353
     0.0837   0.0837   0.0481   0.0481  -0.0000  -0.0000  -0.0000  -0.0000
    -0.0000  -0.0000  -0.0000  -0.0000  -0.0000  -0.0000

          k = 0.1250 0.3750 0.3750 (  9632 PWs)   bands (ev):

   -56.5019 -56.5019 -56.4968 -56.4968 -56.4824 -56.4824 -56.4803 -56.4803
   -28.5832 -28.5799 -28.5747 -28.5738 -28.5417 -28.5398 -28.5269 -28.5258
   -27.6238 -27.6221 -27.5873 -27.5830 -27.5601 -27.5526 -27.5398 -27.5330
   -27.5239 -27.5156 -27.4943 -27.4894 -27.4550 -27.4466 -27.4353 -27.4323
     4.6019   4.6024   5.5960   5.5983   6.6178   6.6213   7.4190   7.4222
     9.5842   9.5867  10.2019  10.2053  10.9490  10.9510  11.5402  11.5426
    11.7636  11.7682  12.1094  12.1113  12.3538  12.3583  12.6177  12.6244
    13.1913  13.1969  13.3129  13.3181  13.5601  13.5688  13.7642  13.7803
    14.0183  14.0318  14.2992  14.3082  14.5616  14.5803  14.7907  14.8054
    14.8764  14.8813  14.9909  15.0207  15.4320  15.4326  15.5024  15.5144
    16.3015  16.3108  16.4769  16.4833  17.0638  17.0851

     occupation numbers 
     1.0000   1.0000   1.0000   1.0000   1.0000   1.0000   1.0000   1.0000
     1.0000   1.0000   1.0000   1.0000   1.0000   1.0000   1.0000   1.0000
     1.0000   1.0000   1.0000   1.0000   1.0000   1.0000   1.0000   1.0000
     1.0000   1.0000   1.0000   1.0000   1.0000   1.0000   1.0000   1.0000
     1.0000   1.0000   1.0000   1.0000   1.0000   1.0000   1.0000   1.0000
     1.0000   1.0000   1.0000   1.0000   1.0000   1.0000   1.0000   1.0000
     1.0000   1.0000   1.0000   1.0000   1.0000   1.0000   1.0000   1.0000
     1.0000   1.0000   1.0000   1.0000   1.0000   1.0000   1.0000   1.0000
     1.0000   1.0000   1.0000   1.0000   1.0067   1.0091   1.0024   0.9836
     0.8125   0.7955   0.3363   0.2198  -0.0011  -0.0011  -0.0002  -0.0001
    -0.0000  -0.0000  -0.0000  -0.0000  -0.0000  -0.0000

          k = 0.1250 0.3750-0.5000 (  9656 PWs)   bands (ev):

   -56.4989 -56.4989 -56.4989 -56.4989 -56.4817 -56.4817 -56.4817 -56.4817
   -28.5786 -28.5786 -28.5750 -28.5750 -28.5363 -28.5363 -28.5336 -28.5336
   -27.6186 -27.6186 -27.5902 -27.5902 -27.5545 -27.5545 -27.5335 -27.5335
   -27.5221 -27.5221 -27.4964 -27.4964 -27.4474 -27.4474 -27.4340 -27.4340
     5.1731   5.1731   5.1746   5.1746   6.8551   6.8551   6.8595   6.8595
     9.9259   9.9259   9.9290   9.9290  11.2677  11.2677  11.2697  11.2697
    11.8654  11.8654  11.8729  11.8729  12.4200  12.4200  12.4277  12.4277
    13.2916  13.2916  13.2954  13.2954  13.6806  13.6806  13.6948  13.6948
    14.2859  14.2859  14.2926  14.2926  14.6328  14.6328  14.6453  14.6453
    14.9013  14.9013  14.9203  14.9203  15.4295  15.4295  15.4453  15.4453
    16.4454  16.4454  16.4531  16.4531  17.0931  17.0964

     occupation numbers 
     1.0000   1.0000   1.0000   1.0000   1.0000   1.0000   1.0000   1.0000
     1.0000   1.0000   1.0000   1.0000   1.0000   1.0000   1.0000   1.0000
     1.0000   1.0000   1.0000   1.0000   1.0000   1.0000   1.0000   1.0000
     1.0000   1.0000   1.0000   1.0000   1.0000   1.0000   1.0000   1.0000
     1.0000   1.0000   1.0000   1.0000   1.0000   1.0000   1.0000   1.0000
     1.0000   1.0000   1.0000   1.0000   1.0000   1.0000   1.0000   1.0000
     1.0000   1.0000   1.0000   1.0000   1.0000   1.0000   1.0000   1.0000
     1.0000   1.0000   1.0000   1.0000   1.0000   1.0000   1.0000   1.0000
     1.0000   1.0000   1.0000   1.0000   1.0193   1.0193   1.0223   1.0223
     0.7214   0.7214   0.6438   0.6438  -0.0012  -0.0012  -0.0008  -0.0008
    -0.0000  -0.0000  -0.0000  -0.0000  -0.0000  -0.0000

          k = 0.1250-0.5000-0.5000 (  9632 PWs)   bands (ev):

   -56.4983 -56.4983 -56.4983 -56.4983 -56.4824 -56.4824 -56.4824 -56.4824
   -28.5749 -28.5749 -28.5748 -28.5748 -28.5373 -28.5373 -28.5371 -28.5371
   -27.6076 -27.6076 -27.6021 -27.6021 -27.5504 -27.5504 -27.5353 -27.5353
   -27.5193 -27.5193 -27.5038 -27.5038 -27.4413 -27.4413 -27.4365 -27.4365
     5.4487   5.4487   5.4498   5.4498   6.4886   6.4886   6.4905   6.4905
    10.0927  10.0927  10.0962  10.0962  11.0429  11.0429  11.0445  11.0445
    11.9593  11.9593  11.9617  11.9617  12.3350  12.3350  12.3376  12.3376
    13.2739  13.2739  13.2747  13.2747  13.8458  13.8458  13.8592  13.8592
    14.3442  14.3442  14.3497  14.3497  14.6305  14.6305  14.6470  14.6470
    14.8007  14.8007  14.8027  14.8027  15.3838  15.3838  15.3840  15.3840
    16.5199  16.5199  16.5214  16.5214  16.9691  16.9706

     occupation numbers 
     1.0000   1.0000   1.0000   1.0000   1.0000   1.0000   1.0000   1.0000
     1.0000   1.0000   1.0000   1.0000   1.0000   1.0000   1.0000   1.0000
     1.0000   1.0000   1.0000   1.0000   1.0000   1.0000   1.0000   1.0000
     1.0000   1.0000   1.0000   1.0000   1.0000   1.0000   1.0000   1.0000
     1.0000   1.0000   1.0000   1.0000   1.0000   1.0000   1.0000   1.0000
     1.0000   1.0000   1.0000   1.0000   1.0000   1.0000   1.0000   1.0000
     1.0000   1.0000   1.0000   1.0000   1.0000   1.0000   1.0000   1.0000
     1.0000   1.0000   1.0000   1.0000   1.0000   1.0000   1.0000   1.0000
     1.0000   1.0000   1.0000   1.0000   1.0188   1.0188   1.0227   1.0227
     0.9902   0.9902   0.9874   0.9874  -0.0032  -0.0032  -0.0031  -0.0031
    -0.0000  -0.0000  -0.0000  -0.0000  -0.0000  -0.0000

          k = 0.2500 0.2500 0.2500 (  9651 PWs)   bands (ev):

   -56.5061 -56.5061 -56.4935 -56.4935 -56.4833 -56.4833 -56.4786 -56.4786
   -28.5884 -28.5839 -28.5720 -28.5719 -28.5508 -28.5475 -28.5148 -28.5138
   -27.6307 -27.6271 -27.5845 -27.5731 -27.5608 -27.5580 -27.5461 -27.5451
   -27.5127 -27.5113 -27.4772 -27.4755 -27.4642 -27.4605 -27.4355 -27.4332
     3.9445   3.9446   6.0543   6.0610   6.7950   6.8053   8.0512   8.0521
     9.0665   9.0693  10.0622  10.0657  11.1542  11.1585  11.1985  11.1989
    11.9198  11.9212  12.3551  12.3567  12.8099  12.8165  12.8815  12.8823
    13.1329  13.1400  13.1416  13.1527  13.1842  13.1891  13.7573  13.7660
    13.7733  13.7856  14.0634  14.0709  14.4484  14.4657  14.9854  15.0016
    15.1280  15.1313  15.2649  15.2655  15.3047  15.3105  15.6130  15.6322
    16.1813  16.1894  16.4810  16.4923  17.1246  17.1544

     occupation numbers 
     1.0000   1.0000   1.0000   1.0000   1.0000   1.0000   1.0000   1.0000
     1.0000   1.0000   1.0000   1.0000   1.0000   1.0000   1.0000   1.0000
     1.0000   1.0000   1.0000   1.0000   1.0000   1.0000   1.0000   1.0000
     1.0000   1.0000   1.0000   1.0000   1.0000   1.0000   1.0000   1.0000
     1.0000   1.0000   1.0000   1.0000   1.0000   1.0000   1.0000   1.0000
     1.0000   1.0000   1.0000   1.0000   1.0000   1.0000   1.0000   1.0000
     1.0000   1.0000   1.0000   1.0000   1.0000   1.0000   1.0000   1.0000
     1.0000   1.0000   1.0000   1.0000   1.0000   1.0000   1.0000   1.0000
     1.0000   1.0000   1.0000   1.0000   1.0006   1.0009   0.3590   0.2926
    -0.0143  -0.0170  -0.0214  -0.0212  -0.0128  -0.0117  -0.0000  -0.0000
    -0.0000  -0.0000  -0.0000  -0.0000  -0.0000  -0.0000

          k = 0.2500 0.2500 0.3750 (  9650 PWs)   bands (ev):

   -56.5028 -56.5028 -56.4955 -56.4955 -56.4831 -56.4831 -56.4800 -56.4800
   -28.5845 -28.5807 -28.5733 -28.5720 -28.5453 -28.5429 -28.5243 -28.5230
   -27.6265 -27.6234 -27.5811 -27.5731 -27.5677 -27.5630 -27.5428 -27.5346
   -27.5235 -27.5121 -27.4814 -27.4718 -27.4667 -27.4581 -27.4354 -27.4327
     4.4227   4.4230   5.6839   5.6869   6.9125   6.9184   7.7715   7.7743
     8.9807   8.9845   9.7545   9.7583  11.0332  11.0362  11.5966  11.5994
    11.6771  11.6803  12.2574  12.2621  12.7410  12.7507  12.8765  12.8838
    13.1093  13.1213  13.2122  13.2235  13.2927  13.2967  13.6212  13.6290
    13.9371  13.9471  14.2610  14.2724  14.6144  14.6468  14.8439  14.8632
    15.0191  15.0294  15.1803  15.2066  15.3256  15.3405  15.5246  15.5414
    16.2210  16.2278  16.4115  16.4197  17.1189  17.1339

     occupation numbers 
     1.0000   1.0000   1.0000   1.0000   1.0000   1.0000   1.0000   1.0000
     1.0000   1.0000   1.0000   1.0000   1.0000   1.0000   1.0000   1.0000
     1.0000   1.0000   1.0000   1.0000   1.0000   1.0000   1.0000   1.0000
     1.0000   1.0000   1.0000   1.0000   1.0000   1.0000   1.0000   1.0000
     1.0000   1.0000   1.0000   1.0000   1.0000   1.0000   1.0000   1.0000
     1.0000   1.0000   1.0000   1.0000   1.0000   1.0000   1.0000   1.0000
     1.0000   1.0000   1.0000   1.0000   1.0000   1.0000   1.0000   1.0000
     1.0000   1.0000   1.0000   1.0000   1.0000   1.0000   1.0000   1.0000
     1.0000   1.0000   1.0000   1.0000   1.0153   1.0227   0.9080   0.8548
     0.2256   0.1895  -0.0353  -0.0340  -0.0092  -0.0072  -0.0001  -0.0001
    -0.0000  -0.0000  -0.0000  -0.0000  -0.0000  -0.0000

          k = 0.2500 0.2500-0.5000 (  9666 PWs)   bands (ev):

   -56.4990 -56.4990 -56.4990 -56.4990 -56.4817 -56.4817 -56.4817 -56.4817
   -28.5798 -28.5798 -28.5749 -28.5749 -28.5364 -28.5364 -28.5326 -28.5326
   -27.6231 -27.6231 -27.5769 -27.5769 -27.5678 -27.5678 -27.5350 -27.5350
   -27.5210 -27.5210 -27.4787 -27.4787 -27.4600 -27.4600 -27.4341 -27.4341
     5.0369   5.0369   5.0382   5.0382   7.3196   7.3196   7.3256   7.3256
     9.3111   9.3111   9.3152   9.3152  11.2765  11.2765  11.2789  11.2789
    11.9763  11.9763  11.9844  11.9844  12.8028  12.8028  12.8131  12.8131
    13.1733  13.1733  13.1860  13.1860  13.4380  13.4380  13.4452  13.4452
    14.1672  14.1672  14.1769  14.1769  14.7496  14.7496  14.7769  14.7769
    15.0545  15.0545  15.0734  15.0734  15.4310  15.4310  15.4473  15.4473
    16.3104  16.3104  16.3200  16.3200  17.2556  17.2567

     occupation numbers 
     1.0000   1.0000   1.0000   1.0000   1.0000   1.0000   1.0000   1.0000
     1.0000   1.0000   1.0000   1.0000   1.0000   1.0000   1.0000   1.0000
     1.0000   1.0000   1.0000   1.0000   1.0000   1.0000   1.0000   1.0000
     1.0000   1.0000   1.0000   1.0000   1.0000   1.0000   1.0000   1.0000
     1.0000   1.0000   1.0000   1.0000   1.0000   1.0000   1.0000   1.0000
     1.0000   1.0000   1.0000   1.0000   1.0000   1.0000   1.0000   1.0000
     1.0000   1.0000   1.0000   1.0000   1.0000   1.0000   1.0000   1.0000
     1.0000   1.0000   1.0000   1.0000   1.0000   1.0000   1.0000   1.0000
     1.0000   1.0000   1.0000   1.0000   1.0309   1.0309   1.0155   1.0155
     0.1128   0.1128   0.0664   0.0664  -0.0011  -0.0011  -0.0008  -0.0008
    -0.0000  -0.0000  -0.0000  -0.0000  -0.0000  -0.0000

          k = 0.2500 0.3750 0.3750 (  9650 PWs)   bands (ev):

   -56.5001 -56.5001 -56.4955 -56.4955 -56.4841 -56.4841 -56.4817 -56.4817
   -28.5796 -28.5766 -28.5709 -28.5700 -28.5454 -28.5435 -28.5322 -28.5307
   -27.6192 -27.6165 -27.5846 -27.5797 -27.5687 -27.5644 -27.5439 -27.5329
   -27.5248 -27.5094 -27.4857 -27.4765 -27.4600 -27.4548 -27.4371 -27.4342
     4.8699   4.8705   5.7968   5.8008   6.6824   6.6893   7.3948   7.3980
     8.9589   8.9633   9.5729   9.5784  10.6884  10.6922  11.2069  11.2087
    12.0018  12.0046  12.4199  12.4240  12.6318  12.6373  12.8194  12.8252
    13.1278  13.1361  13.1819  13.1904  13.3820  13.3914  13.5833  13.5952
    14.1413  14.1499  14.4962  14.5134  14.6832  14.7068  14.8367  14.8559
    14.9334  14.9374  15.1302  15.1626  15.2739  15.2857  15.4298  15.4433
    16.2765  16.2841  16.4039  16.4084  16.9727  16.9829

     occupation numbers 
     1.0000   1.0000   1.0000   1.0000   1.0000   1.0000   1.0000   1.0000
     1.0000   1.0000   1.0000   1.0000   1.0000   1.0000   1.0000   1.0000
     1.0000   1.0000   1.0000   1.0000   1.0000   1.0000   1.0000   1.0000
     1.0000   1.0000   1.0000   1.0000   1.0000   1.0000   1.0000   1.0000
     1.0000   1.0000   1.0000   1.0000   1.0000   1.0000   1.0000   1.0000
     1.0000   1.0000   1.0000   1.0000   1.0000   1.0000   1.0000   1.0000
     1.0000   1.0000   1.0000   1.0000   1.0000   1.0000   1.0000   1.0000
     1.0000   1.0000   1.0000   1.0000   1.0000   1.0000   1.0000   1.0000
     1.0000   1.0000   1.0018   1.0026   1.0311   1.0348   0.9251   0.8761
     0.5876   0.5700  -0.0161  -0.0326  -0.0193  -0.0166  -0.0011  -0.0008
    -0.0000  -0.0000  -0.0000  -0.0000  -0.0000  -0.0000

          k = 0.2500 0.3750-0.5000 (  9644 PWs)   bands (ev):

   -56.4973 -56.4973 -56.4973 -56.4973 -56.4834 -56.4834 -56.4834 -56.4834
   -28.5748 -28.5748 -28.5712 -28.5712 -28.5410 -28.5410 -28.5380 -28.5380
   -27.6137 -27.6137 -27.5868 -27.5868 -27.5658 -27.5658 -27.5402 -27.5402
   -27.5145 -27.5145 -27.4841 -27.4841 -27.4539 -27.4539 -27.4370 -27.4370
     5.4124   5.4124   5.4142   5.4142   6.9220   6.9220   6.9273   6.9273
     9.2726   9.2726   9.2777   9.2777  10.7881  10.7881  10.7907  10.7907
    12.2807  12.2807  12.2893  12.2893  12.6858  12.6858  12.6931  12.6931
    13.1715  13.1715  13.1793  13.1793  13.4756  13.4756  13.4886  13.4886
    14.4054  14.4054  14.4142  14.4142  14.7919  14.7919  14.8093  14.8093
    14.9881  14.9881  15.0101  15.0101  15.3474  15.3474  15.3578  15.3578
    16.3654  16.3654  16.3726  16.3726  16.9846  16.9885

     occupation numbers 
     1.0000   1.0000   1.0000   1.0000   1.0000   1.0000   1.0000   1.0000
     1.0000   1.0000   1.0000   1.0000   1.0000   1.0000   1.0000   1.0000
     1.0000   1.0000   1.0000   1.0000   1.0000   1.0000   1.0000   1.0000
     1.0000   1.0000   1.0000   1.0000   1.0000   1.0000   1.0000   1.0000
     1.0000   1.0000   1.0000   1.0000   1.0000   1.0000   1.0000   1.0000
     1.0000   1.0000   1.0000   1.0000   1.0000   1.0000   1.0000   1.0000
     1.0000   1.0000   1.0000   1.0000   1.0000   1.0000   1.0000   1.0000
     1.0000   1.0000   1.0000   1.0000   1.0000   1.0000   1.0000   1.0000
     1.0002   1.0002   1.0002   1.0002   1.0011   1.0011   0.9777   0.9777
     0.3478   0.3478   0.2594   0.2594  -0.0064  -0.0064  -0.0052  -0.0052
    -0.0000  -0.0000  -0.0000  -0.0000  -0.0000  -0.0000

          k = 0.2500-0.5000-0.5000 (  9644 PWs)   bands (ev):

   -56.4964 -56.4964 -56.4964 -56.4964 -56.4843 -56.4843 -56.4843 -56.4843
   -28.5710 -28.5710 -28.5707 -28.5707 -28.5422 -28.5422 -28.5418 -28.5418
   -27.6050 -27.6050 -27.5963 -27.5963 -27.5638 -27.5638 -27.5427 -27.5427
   -27.5101 -27.5101 -27.4889 -27.4889 -27.4484 -27.4484 -27.4404 -27.4404
     5.6735   5.6735   5.6757   5.6757   6.6211   6.6211   6.6253   6.6253
     9.3817   9.3817   9.3871   9.3871  10.5092  10.5092  10.5124  10.5124
    12.4773  12.4773  12.4805  12.4805  12.5635  12.5635  12.5656  12.5656
    13.1148  13.1148  13.1152  13.1152  13.5543  13.5543  13.5671  13.5671
    14.5078  14.5078  14.5165  14.5165  14.8354  14.8354  14.8501  14.8501
    14.9372  14.9372  14.9382  14.9382  15.3092  15.3092  15.3122  15.3122
    16.4143  16.4143  16.4150  16.4150  16.8614  16.8642

     occupation numbers 
     1.0000   1.0000   1.0000   1.0000   1.0000   1.0000   1.0000   1.0000
     1.0000   1.0000   1.0000   1.0000   1.0000   1.0000   1.0000   1.0000
     1.0000   1.0000   1.0000   1.0000   1.0000   1.0000   1.0000   1.0000
     1.0000   1.0000   1.0000   1.0000   1.0000   1.0000   1.0000   1.0000
     1.0000   1.0000   1.0000   1.0000   1.0000   1.0000   1.0000   1.0000
     1.0000   1.0000   1.0000   1.0000   1.0000   1.0000   1.0000   1.0000
     1.0000   1.0000   1.0000   1.0000   1.0000   1.0000   1.0000   1.0000
     1.0000   1.0000   1.0000   1.0000   1.0000   1.0000   1.0000   1.0000
     1.0023   1.0023   1.0028   1.0028   0.9280   0.9280   0.8919   0.8919
     0.5709   0.5709   0.5663   0.5663  -0.0119  -0.0119  -0.0114  -0.0114
    -0.0000  -0.0000  -0.0000  -0.0000  -0.0000  -0.0000

          k = 0.3750 0.3750 0.3750 (  9682 PWs)   bands (ev):

   -56.4975 -56.4975 -56.4943 -56.4943 -56.4858 -56.4858 -56.4838 -56.4838
   -28.5744 -28.5717 -28.5667 -28.5664 -28.5487 -28.5470 -28.5394 -28.5377
   -27.6120 -27.6093 -27.5836 -27.5778 -27.5767 -27.5747 -27.5472 -27.5412
   -27.5145 -27.5035 -27.4800 -27.4666 -27.4633 -27.4612 -27.4410 -27.4385
     5.2849   5.2857   6.0002   6.0065   6.6316   6.6415   7.1892   7.1927
     8.7559   8.7617   9.2624   9.2698  10.1955  10.2005  10.6463  10.6486
    12.3230  12.3261  12.5908  12.5951  12.7691  12.7725  12.8667  12.8685
    13.1089  13.1192  13.1688  13.1740  13.2704  13.2707  13.3947  13.3995
    14.3606  14.3633  14.7223  14.7433  14.7822  14.7908  14.9224  14.9572
    15.0668  15.0732  15.0965  15.1021  15.2533  15.2838  15.3070  15.3285
    16.2843  16.2919  16.3583  16.3601  16.8096  16.8139

     occupation numbers 
     1.0000   1.0000   1.0000   1.0000   1.0000   1.0000   1.0000   1.0000
     1.0000   1.0000   1.0000   1.0000   1.0000   1.0000   1.0000   1.0000
     1.0000   1.0000   1.0000   1.0000   1.0000   1.0000   1.0000   1.0000
[...]
    11.8726  11.8726  11.8758  11.8758  12.3351  12.3351  12.3429  12.3429
    13.3012  13.3012  13.3066  13.3066  13.9486  13.9486  13.9552  13.9552
    14.0779  14.0779  14.0858  14.0858  14.6213  14.6213  14.6532  14.6532
    14.8214  14.8214  14.8617  14.8617  15.4451  15.4451  15.4643  15.4643
    16.4433  16.4433  16.4555  16.4555  17.1879  17.1882

     occupation numbers 
     1.0000   1.0000   1.0000   1.0000   1.0000   1.0000   1.0000   1.0000
     1.0000   1.0000   1.0000   1.0000   1.0000   1.0000   1.0000   1.0000
     1.0000   1.0000   1.0000   1.0000   1.0000   1.0000   1.0000   1.0000
     1.0000   1.0000   1.0000   1.0000   1.0000   1.0000   1.0000   1.0000
     1.0000   1.0000   1.0000   1.0000   1.0000   1.0000   1.0000   1.0000
     1.0000   1.0000   1.0000   1.0000   1.0000   1.0000   1.0000   1.0000
     1.0000   1.0000   1.0000   1.0000   1.0000   1.0000   1.0000   1.0000
     1.0000   1.0000   1.0000   1.0000   1.0000   1.0000   1.0000   1.0000
     1.0000   1.0000   1.0000   1.0000   1.0167   1.0167   1.0242   1.0242
     0.9570   0.9570   0.8593   0.8593  -0.0008  -0.0008  -0.0005  -0.0005
    -0.0000  -0.0000  -0.0000  -0.0000  -0.0000  -0.0000

          k =-0.1250 0.3750 0.2500 (  9647 PWs)   bands (ev):

   -56.5047 -56.5047 -56.4961 -56.4961 -56.4817 -56.4817 -56.4788 -56.4788
   -28.5876 -28.5835 -28.5769 -28.5753 -28.5430 -28.5404 -28.5187 -28.5176
   -27.6316 -27.6288 -27.5809 -27.5752 -27.5637 -27.5558 -27.5425 -27.5368
   -27.5206 -27.5101 -27.4846 -27.4786 -27.4648 -27.4529 -27.4354 -27.4332
     4.1380   4.1383   5.4905   5.4919   7.0412   7.0440   7.9714   7.9757
     9.4173   9.4199  10.2013  10.2027  10.9145  10.9161  11.5448  11.5483
    11.7463  11.7484  12.1888  12.1925  12.6582  12.6627  12.8600  12.8655
    13.0826  13.0872  13.2581  13.2700  13.4126  13.4157  13.6450  13.6563
    13.7947  13.8036  14.0768  14.0857  14.4875  14.5145  14.8187  14.8466
    15.0838  15.1030  15.1629  15.1806  15.4830  15.4951  15.6228  15.6413
    16.1947  16.2030  16.4158  16.4274  17.2532  17.2827

     occupation numbers 
     1.0000   1.0000   1.0000   1.0000   1.0000   1.0000   1.0000   1.0000
     1.0000   1.0000   1.0000   1.0000   1.0000   1.0000   1.0000   1.0000
     1.0000   1.0000   1.0000   1.0000   1.0000   1.0000   1.0000   1.0000
     1.0000   1.0000   1.0000   1.0000   1.0000   1.0000   1.0000   1.0000
     1.0000   1.0000   1.0000   1.0000   1.0000   1.0000   1.0000   1.0000
     1.0000   1.0000   1.0000   1.0000   1.0000   1.0000   1.0000   1.0000
     1.0000   1.0000   1.0000   1.0000   1.0000   1.0000   1.0000   1.0000
     1.0000   1.0000   1.0000   1.0000   1.0000   1.0000   1.0000   1.0000
     1.0000   1.0000   1.0000   1.0000   1.0015   1.0027   0.9620   0.9011
     0.0452   0.0135  -0.0327  -0.0353  -0.0003  -0.0002  -0.0000  -0.0000
    -0.0000  -0.0000  -0.0000  -0.0000  -0.0000  -0.0000

          k =-0.1250-0.5000 0.2500 (  9646 PWs)   bands (ev):

   -56.5004 -56.5004 -56.5004 -56.5004 -56.4803 -56.4803 -56.4803 -56.4803
   -28.5835 -28.5835 -28.5782 -28.5782 -28.5320 -28.5320 -28.5284 -28.5284
   -27.6293 -27.6293 -27.5770 -27.5770 -27.5619 -27.5619 -27.5335 -27.5335
   -27.5211 -27.5211 -27.4835 -27.4835 -27.4573 -27.4573 -27.4338 -27.4338
     4.7803   4.7803   4.7812   4.7812   7.4710   7.4710   7.4755   7.4755
     9.7730   9.7730   9.7741   9.7741  11.2718  11.2718  11.2769  11.2769
    11.9366  11.9366  11.9416  11.9416  12.7536  12.7536  12.7637  12.7637
    13.1577  13.1577  13.1663  13.1663  13.5588  13.5588  13.5671  13.5671
    13.9623  13.9623  13.9716  13.9716  14.6789  14.6789  14.7124  14.7124
    15.0777  15.0777  15.1027  15.1027  15.5303  15.5303  15.5522  15.5522
    16.2882  16.2882  16.2988  16.2988  17.4682  17.4770

     occupation numbers 
     1.0000   1.0000   1.0000   1.0000   1.0000   1.0000   1.0000   1.0000
     1.0000   1.0000   1.0000   1.0000   1.0000   1.0000   1.0000   1.0000
     1.0000   1.0000   1.0000   1.0000   1.0000   1.0000   1.0000   1.0000
     1.0000   1.0000   1.0000   1.0000   1.0000   1.0000   1.0000   1.0000
     1.0000   1.0000   1.0000   1.0000   1.0000   1.0000   1.0000   1.0000
     1.0000   1.0000   1.0000   1.0000   1.0000   1.0000   1.0000   1.0000
     1.0000   1.0000   1.0000   1.0000   1.0000   1.0000   1.0000   1.0000
     1.0000   1.0000   1.0000   1.0000   1.0000   1.0000   1.0000   1.0000
     1.0000   1.0000   1.0000   1.0000   1.0302   1.0302   1.0352   1.0352
     0.0573   0.0573   0.0139   0.0139  -0.0001  -0.0001  -0.0000  -0.0000
    -0.0000  -0.0000  -0.0000  -0.0000  -0.0000  -0.0000

          k =-0.1250-0.5000 0.3750 (  9656 PWs)   bands (ev):

   -56.4989 -56.4989 -56.4989 -56.4989 -56.4817 -56.4817 -56.4817 -56.4817
   -28.5786 -28.5786 -28.5750 -28.5750 -28.5364 -28.5364 -28.5335 -28.5335
   -27.6188 -27.6188 -27.5898 -27.5898 -27.5549 -27.5549 -27.5329 -27.5329
   -27.5227 -27.5227 -27.4963 -27.4963 -27.4473 -27.4473 -27.4340 -27.4340
     5.1728   5.1728   5.1739   5.1739   6.8570   6.8570   6.8599   6.8599
     9.9473   9.9473   9.9499   9.9499  11.1545  11.1545  11.1577  11.1577
    11.9546  11.9546  11.9600  11.9600  12.4569  12.4569  12.4662  12.4662
    13.2315  13.2315  13.2374  13.2374  13.7790  13.7790  13.7921  13.7921
    14.1905  14.1905  14.1989  14.1989  14.6771  14.6771  14.7039  14.7039
    14.8663  14.8663  14.9050  14.9050  15.4159  15.4159  15.4323  15.4323
    16.4119  16.4119  16.4232  16.4232  17.1484  17.1490

     occupation numbers 
     1.0000   1.0000   1.0000   1.0000   1.0000   1.0000   1.0000   1.0000
     1.0000   1.0000   1.0000   1.0000   1.0000   1.0000   1.0000   1.0000
     1.0000   1.0000   1.0000   1.0000   1.0000   1.0000   1.0000   1.0000
     1.0000   1.0000   1.0000   1.0000   1.0000   1.0000   1.0000   1.0000
     1.0000   1.0000   1.0000   1.0000   1.0000   1.0000   1.0000   1.0000
     1.0000   1.0000   1.0000   1.0000   1.0000   1.0000   1.0000   1.0000
     1.0000   1.0000   1.0000   1.0000   1.0000   1.0000   1.0000   1.0000
     1.0000   1.0000   1.0000   1.0000   1.0000   1.0000   1.0000   1.0000
     1.0000   1.0000   1.0000   1.0000   1.0298   1.0298   1.0345   1.0345
     0.8452   0.8452   0.7066   0.7066  -0.0016  -0.0016  -0.0011  -0.0011
    -0.0000  -0.0000  -0.0000  -0.0000  -0.0000  -0.0000

          k =-0.2500-0.5000 0.3750 (  9644 PWs)   bands (ev):

   -56.4973 -56.4973 -56.4973 -56.4973 -56.4834 -56.4834 -56.4834 -56.4834
   -28.5748 -28.5748 -28.5712 -28.5712 -28.5411 -28.5411 -28.5380 -28.5380
   -27.6138 -27.6138 -27.5865 -27.5865 -27.5660 -27.5660 -27.5401 -27.5401
   -27.5146 -27.5146 -27.4840 -27.4840 -27.4539 -27.4539 -27.4370 -27.4370
     5.4123   5.4123   5.4139   5.4139   6.9228   6.9228   6.9274   6.9274
     9.2751   9.2751   9.2798   9.2798  10.7783  10.7783  10.7810  10.7810
    12.2797  12.2797  12.2880  12.2880  12.7218  12.7218  12.7317  12.7317
    13.1092  13.1092  13.1181  13.1181  13.5271  13.5271  13.5388  13.5388
    14.3800  14.3800  14.3872  14.3872  14.7979  14.7979  14.8163  14.8163
    14.9943  14.9943  15.0260  15.0260  15.3331  15.3331  15.3472  15.3472
    16.3545  16.3545  16.3644  16.3644  17.0022  17.0028

     occupation numbers 
     1.0000   1.0000   1.0000   1.0000   1.0000   1.0000   1.0000   1.0000
     1.0000   1.0000   1.0000   1.0000   1.0000   1.0000   1.0000   1.0000
     1.0000   1.0000   1.0000   1.0000   1.0000   1.0000   1.0000   1.0000
     1.0000   1.0000   1.0000   1.0000   1.0000   1.0000   1.0000   1.0000
     1.0000   1.0000   1.0000   1.0000   1.0000   1.0000   1.0000   1.0000
     1.0000   1.0000   1.0000   1.0000   1.0000   1.0000   1.0000   1.0000
     1.0000   1.0000   1.0000   1.0000   1.0000   1.0000   1.0000   1.0000
     1.0000   1.0000   1.0000   1.0000   1.0000   1.0000   1.0000   1.0000
     1.0001   1.0001   1.0001   1.0001   0.9939   0.9939   0.9663   0.9663
     0.3220   0.3220   0.2014   0.2014  -0.0081  -0.0081  -0.0064  -0.0064
    -0.0000  -0.0000  -0.0000  -0.0000  -0.0000  -0.0000

     the Fermi energy is    14.9532 ev

!    total energy              =   -1180.35056274 Ry

     total all-electron energy =    -10727.811399 Ry
     estimated scf accuracy    <       0.00000068 Ry
     smearing contrib. (-TS)   =      -0.00000274 Ry
     internal energy E=F+TS    =   -1180.35056001 Ry

     The total energy is F=E-TS. E is the sum of the following terms:
     one-electron contribution =    -336.80232595 Ry
     hartree contribution      =     207.04710973 Ry
     xc contribution           =    -114.36263257 Ry
     ewald contribution        =    -496.51183961 Ry
     one-center paw contrib.   =    -439.72087162 Ry
      -> PAW hartree energy AE =     126.71778920 Ry
      -> PAW hartree energy PS =    -125.75041649 Ry
      -> PAW xc energy AE      =     -96.24011932 Ry
      -> PAW xc energy PS      =      20.93271746 Ry
      -> total E_H with PAW    =     208.01448244 Ry
      -> total E_XC with PAW   =    -189.67003444 Ry

     convergence has been achieved in   8 iterations

     Forces acting on atoms (cartesian axes, Ry/au):

     atom    1 type  1   force =    -0.00283455   -0.00283455    0.00283455
     atom    2 type  1   force =    -0.00283455    0.00283455   -0.00283455
     atom    3 type  1   force =     0.00283455   -0.00283455   -0.00283455
     atom    4 type  1   force =     0.00283455    0.00283455    0.00283455
     atom    5 type  2   force =    -0.00428801   -0.00428801    0.00428801
     atom    6 type  2   force =    -0.00428801    0.00428801   -0.00428801
     atom    7 type  2   force =     0.00428801   -0.00428801   -0.00428801
     atom    8 type  2   force =     0.00428801    0.00428801    0.00428801
     The non-local contrib.  to forces
     atom    1 type  1   force =     0.05113544    0.05113544   -0.05113544
     atom    2 type  1   force =     0.05113544   -0.05113544    0.05113544
     atom    3 type  1   force =    -0.05113544    0.05113544    0.05113544
     atom    4 type  1   force =    -0.05113544   -0.05113544   -0.05113544
     atom    5 type  2   force =    -0.00803319   -0.00803319    0.00803319
     atom    6 type  2   force =    -0.00803319    0.00803319   -0.00803319
     atom    7 type  2   force =     0.00803319   -0.00803319   -0.00803319
     atom    8 type  2   force =     0.00803319    0.00803319    0.00803319
     The ionic contribution  to forces
     atom    1 type  1   force =    -0.85044630   -0.85044630    0.85044630
     atom    2 type  1   force =    -0.85044630    0.85044630   -0.85044630
     atom    3 type  1   force =     0.85044630   -0.85044630   -0.85044630
     atom    4 type  1   force =     0.85044630    0.85044630    0.85044630
     atom    5 type  2   force =    -0.24524978   -0.24524978    0.24524978
     atom    6 type  2   force =    -0.24524978    0.24524978   -0.24524978
     atom    7 type  2   force =     0.24524978   -0.24524978   -0.24524978
     atom    8 type  2   force =     0.24524978    0.24524978    0.24524978
     The local contribution  to forces
     atom    1 type  1   force =     0.79742791    0.79742791   -0.79742791
     atom    2 type  1   force =     0.79742791   -0.79742791    0.79742791
     atom    3 type  1   force =    -0.79742791    0.79742791    0.79742791
     atom    4 type  1   force =    -0.79742791   -0.79742791   -0.79742791
     atom    5 type  2   force =     0.24821921    0.24821921   -0.24821921
     atom    6 type  2   force =     0.24821921   -0.24821921    0.24821921
     atom    7 type  2   force =    -0.24821921    0.24821921    0.24821921
     atom    8 type  2   force =    -0.24821921   -0.24821921   -0.24821921
     The core correction contribution to forces
     atom    1 type  1   force =    -0.00103007   -0.00103007    0.00103007
     atom    2 type  1   force =    -0.00103007    0.00103007   -0.00103007
     atom    3 type  1   force =     0.00103007   -0.00103007   -0.00103007
     atom    4 type  1   force =     0.00103007    0.00103007    0.00103007
     atom    5 type  2   force =     0.00079165    0.00079165   -0.00079165
     atom    6 type  2   force =     0.00079165   -0.00079165    0.00079165
     atom    7 type  2   force =    -0.00079165    0.00079165    0.00079165
     atom    8 type  2   force =    -0.00079165   -0.00079165   -0.00079165
     The Hubbard contrib.    to forces
     atom    1 type  1   force =     0.00000000    0.00000000    0.00000000
     atom    2 type  1   force =     0.00000000    0.00000000    0.00000000
     atom    3 type  1   force =     0.00000000    0.00000000    0.00000000
     atom    4 type  1   force =     0.00000000    0.00000000    0.00000000
     atom    5 type  2   force =     0.00000000    0.00000000    0.00000000
     atom    6 type  2   force =     0.00000000    0.00000000    0.00000000
     atom    7 type  2   force =     0.00000000    0.00000000    0.00000000
     atom    8 type  2   force =     0.00000000    0.00000000    0.00000000
     The SCF correction term to forces
     atom    1 type  1   force =     0.00007848    0.00007848   -0.00007848
     atom    2 type  1   force =     0.00007848   -0.00007848    0.00007848
     atom    3 type  1   force =    -0.00007848    0.00007848    0.00007848
     atom    4 type  1   force =    -0.00007848   -0.00007848   -0.00007848
     atom    5 type  2   force =    -0.00001590   -0.00001590    0.00001590
     atom    6 type  2   force =    -0.00001590    0.00001590   -0.00001590
     atom    7 type  2   force =     0.00001590   -0.00001590   -0.00001590
     atom    8 type  2   force =     0.00001590    0.00001590    0.00001590

     Total force =     0.017806     Total SCF correction =     0.000277


     Computing stress (Cartesian axis) and pressure

          total   stress  (Ry/bohr**3)                   (kbar)     P=      -40.63
  -0.00027621   0.00000000   0.00000000          -40.63        0.00        0.00
   0.00000000  -0.00027621   0.00000000            0.00      -40.63        0.00
   0.00000000   0.00000000  -0.00027621            0.00        0.00      -40.63

     kinetic stress (kbar)  35760.21      0.00      0.00
                                0.00  35760.21      0.00
                                0.00      0.00  35760.21

     local   stress (kbar) -10012.67      0.00     -0.00
                                0.00 -10012.67     -0.00
                               -0.00     -0.00 -10012.67

     nonloc. stress (kbar)   2428.12      0.00      0.00
                                0.00   2428.12      0.00
                                0.00      0.00   2428.12

     hartree stress (kbar)  15167.62      0.00     -0.00
                                0.00  15167.62      0.00
                               -0.00      0.00  15167.62

     exc-cor stress (kbar)  -1706.64     -0.00     -0.00
                               -0.00  -1706.64     -0.00
                               -0.00     -0.00  -1706.64

     corecor stress (kbar)  -5304.38      0.00     -0.00
                                0.00  -5304.38     -0.00
                               -0.00     -0.00  -5304.38

     ewald   stress (kbar) -36372.90      0.00      0.00
                                0.00 -36372.90      0.00
                                0.00      0.00 -36372.90

     hubbard stress (kbar)      0.00      0.00      0.00
                                0.00      0.00      0.00
                                0.00      0.00      0.00

     DFT-D   stress (kbar)      0.00      0.00      0.00
                                0.00      0.00      0.00
                                0.00      0.00      0.00

     XDM     stress (kbar)      0.00      0.00      0.00
                                0.00      0.00      0.00
                                0.00      0.00      0.00

     dft-nl  stress (kbar)      0.00      0.00      0.00
                                0.00      0.00      0.00
                                0.00      0.00      0.00

     TS-vdW  stress (kbar)      0.00      0.00      0.00
                                0.00      0.00      0.00
                                0.00      0.00      0.00



     Writing output data file /zfs_data/vergnior/martin/Scratch/OAL/CrSi/convergence/smearing/8x8x8/0.014/tmp/CrSi.save/
 
     init_run     :      7.51s CPU      8.01s WALL (       1 calls)
     electrons    :    228.81s CPU    238.05s WALL (       1 calls)
     forces       :      6.86s CPU      7.12s WALL (       1 calls)
     stress       :     17.33s CPU     18.10s WALL (       1 calls)

     Called by init_run:
     wfcinit      :      6.28s CPU      6.46s WALL (       1 calls)
     wfcinit:atom :      0.06s CPU      0.06s WALL (      45 calls)
     wfcinit:wfcr :      5.99s CPU      6.15s WALL (      45 calls)
     potinit      :      0.18s CPU      0.25s WALL (       1 calls)
     hinit0       :      0.18s CPU      0.19s WALL (       1 calls)

     Called by electrons:
     c_bands      :    190.79s CPU    193.94s WALL (       9 calls)
     sum_band     :     32.80s CPU     36.75s WALL (       9 calls)
     v_of_rho     :      0.20s CPU      0.21s WALL (       9 calls)
     v_h          :      0.02s CPU      0.02s WALL (       9 calls)
     v_xc         :      0.23s CPU      0.24s WALL (      11 calls)
     newd         :      4.33s CPU      6.63s WALL (       9 calls)
     PAW_pot      :      1.12s CPU      1.14s WALL (       9 calls)
     mix_rho      :      0.11s CPU      0.13s WALL (       9 calls)

     Called by c_bands:
     init_us_2    :      1.02s CPU      1.03s WALL (     945 calls)
     cegterg      :    175.00s CPU    178.01s WALL (     405 calls)

     Called by sum_band:
     sum_band:wei :      0.06s CPU      0.06s WALL (       9 calls)
     sum_band:loo :     30.32s CPU     30.83s WALL (       9 calls)
     sum_band:buf :      0.28s CPU      0.29s WALL (     405 calls)
     sum_band:ini :      0.46s CPU      0.46s WALL (     405 calls)
     sum_band:cal :      2.15s CPU      2.16s WALL (     405 calls)
     sum_band:bec :      5.19s CPU      5.21s WALL (     405 calls)
     addusdens    :      2.37s CPU      5.79s WALL (       9 calls)
     addusd:skk   :      0.00s CPU      0.01s WALL (      18 calls)
     addusd:dgemm :      0.54s CPU      2.13s WALL (      18 calls)
     addusd:qvan2 :      1.78s CPU      1.79s WALL (      18 calls)

     Called by *egterg:
     cdiaghg      :     16.74s CPU     16.81s WALL (    2359 calls)
     cegterg:over :      9.23s CPU      9.28s WALL (    1999 calls)
     cegterg:upda :      4.80s CPU      4.82s WALL (    1999 calls)
     cegterg:last :      9.74s CPU      9.78s WALL (    1284 calls)
     h_psi        :    118.92s CPU    121.84s WALL (    2449 calls)
     s_psi        :     17.14s CPU     17.20s WALL (    2449 calls)
     g_psi        :      0.30s CPU      0.30s WALL (    1999 calls)

     Called by h_psi:
     h_psi:calbec :      8.28s CPU      8.34s WALL (    2449 calls)
     vloc_psi     :     94.09s CPU     96.84s WALL (    2449 calls)
     add_vuspsi   :     15.97s CPU     16.07s WALL (    2449 calls)

     General routines
     calbec       :     11.51s CPU     11.60s WALL (    3079 calls)
     fft          :      0.21s CPU      0.22s WALL (     216 calls)
     ffts         :      0.02s CPU      0.08s WALL (      72 calls)
     fftw         :     86.38s CPU     88.87s WALL (  586224 calls)
     interpolate  :      0.05s CPU      0.11s WALL (      36 calls)
 
     Parallel routines
     fft_scatt_xy :      8.29s CPU      8.50s WALL (  586512 calls)
     fft_scatt_yz :     31.11s CPU     31.98s WALL (  586512 calls)

     PAW routines
     PAW_pot      :      1.12s CPU      1.14s WALL (       9 calls)
     PAW_symme    :      0.02s CPU      0.02s WALL (      18 calls)
 
     PWSCF        :   4m23.89s CPU   4m36.63s WALL

 
   This run was terminated on:  12:49:59   1Aug2021            

=------------------------------------------------------------------------------=
   JOB DONE.
=------------------------------------------------------------------------------=
