
     Program PWSCF v.6.7MaX starts on 18May2022 at 17:50:32 

     This program is part of the open-source Quantum ESPRESSO suite
     for quantum simulation of materials; please cite
         "P. Giannozzi et al., J. Phys.:Condens. Matter 21 395502 (2009);
         "P. Giannozzi et al., J. Phys.:Condens. Matter 29 465901 (2017);
          URL http://www.quantum-espresso.org", 
     in publications or presentations arising from this work. More details at
     http://www.quantum-espresso.org/quote

     Parallel version (MPI), running on    48 processors

     MPI processes distributed on     1 nodes
     R & G space division:  proc/nbgrp/npool/nimage =      48
     Waiting for input...
     Reading input from standard input

     Current dimensions of program PWSCF are:
     Max number of different atomic species (ntypx) = 10
     Max number of k-points (npk) =  40000
     Max angular momentum in pseudopotentials (lmaxx) =  3
     file O.pbe-nl-kjpaw_psl.1.0.0.UPF: wavefunction(s)  2S 2P renormalized
     file Cl.pbe-nl-kjpaw_psl.1.0.0.UPF: wavefunction(s)  3S renormalized
     file Nb.pbe-spn-kjpaw_psl.1.0.0.UPF: wavefunction(s)  4S 4P 4D renormalized

     Subspace diagonalization in iterative solution of the eigenvalue problem:
     a serial algorithm will be used

     Message from routine setup:
     using ibrav=0 with symmetry is DISCOURAGED, use correct ibrav instead
 
     Parallelization info
     --------------------
     sticks:   dense  smooth     PW     G-vecs:    dense   smooth      PW
     Min         226      90     28                 8011     2025     357
     Max         227      91     29                 8013     2026     359
     Sum       10861    4353   1363               384583    97215   17183
 


     bravais-lattice index     =            0
     lattice parameter (alat)  =      12.6717  a.u.
     unit-cell volume          =     547.9313 (a.u.)^3
     number of atoms/cell      =            4
     number of atomic types    =            3
     number of electrons       =        33.00
     number of Kohn-Sham states=           21
     kinetic-energy cutoff     =     120.0000  Ry
     charge density cutoff     =    1200.0000  Ry
     scf convergence threshold =      1.0E-10
     mixing beta               =       0.7000
     number of iterations used =            8  plain     mixing
     Exchange-correlation= SLA  PW   PBX  PBC
                           (   1   4   3   4   0   0   0)

     celldm(1)=  12.671676  celldm(2)=   0.000000  celldm(3)=   0.000000
     celldm(4)=   0.000000  celldm(5)=   0.000000  celldm(6)=   0.000000

     crystal axes: (cart. coord. in units of alat)
               a(1) = (  -0.250426   0.291161   0.923316 )  
               a(2) = (   0.250426  -0.291161   0.923316 )  
               a(3) = (   0.250426   0.291161  -0.923316 )  

     reciprocal axes: (cart. coord. in units 2 pi/alat)
               b(1) = (  0.000000  1.717261  0.541527 )  
               b(2) = (  1.996594  0.000000  0.541527 )  
               b(3) = (  1.996594  1.717261  0.000000 )  


     PseudoPot. # 1 for O  read from file:
     /zfs_data/gutierre/Scratch/Cl2NbO/smearing/8x8x8/0.006/pseudo/O.pbe-nl-kjpaw_psl.1.0.0.UPF
     MD5 check sum: df3ddea38124b4e5de5e1084591730e4
     Pseudo is Projector augmented-wave + core cor, Zval =  6.0
     Generated using 'atomic' code by A. Dal Corso  v.6.7MaX
     Shape of augmentation charge: PSQ
     Using radial grid of 1095 points,  4 beta functions with: 
                l(1) =   0
                l(2) =   0
                l(3) =   1
                l(4) =   1
     Q(r) pseudized with 0 coefficients 


     PseudoPot. # 2 for Cl read from file:
     /zfs_data/gutierre/Scratch/Cl2NbO/smearing/8x8x8/0.006/pseudo/Cl.pbe-nl-kjpaw_psl.1.0.0.UPF
     MD5 check sum: 8cf6bde52c08f6236e0f72a8870677af
     Pseudo is Projector augmented-wave + core cor, Zval =  7.0
     Generated using 'atomic' code by A. Dal Corso  v.6.7MaX
     Shape of augmentation charge: PSQ
     Using radial grid of 1157 points,  4 beta functions with: 
                l(1) =   0
                l(2) =   0
                l(3) =   1
                l(4) =   1
     Q(r) pseudized with 0 coefficients 


     PseudoPot. # 3 for Nb read from file:
     /zfs_data/gutierre/Scratch/Cl2NbO/smearing/8x8x8/0.006/pseudo/Nb.pbe-spn-kjpaw_psl.1.0.0.UPF
     MD5 check sum: 1ec1a3aa7bf3cbf7f7e0d720422bce7a
     Pseudo is Projector augmented-wave + core cor, Zval = 13.0
     Generated using 'atomic' code by A. Dal Corso  v.6.7MaX
     Shape of augmentation charge: PSQ
     Using radial grid of 1227 points,  6 beta functions with: 
                l(1) =   0
                l(2) =   0
                l(3) =   1
                l(4) =   1
                l(5) =   2
                l(6) =   2
     Q(r) pseudized with 0 coefficients 


     atomic species   valence    mass     pseudopotential
        O              6.00    15.99940     O ( 1.00)
        Cl             7.00    35.45150     Cl( 1.00)
        Nb            13.00    92.90637     Nb( 1.00)

      8 Sym. Ops., with inversion, found


                                    s                        frac. trans.

      isym =  1     identity                                     

 cryst.   s( 1) = (     1          0          0      )
                  (     0          1          0      )
                  (     0          0          1      )

 cart.    s( 1) = (  1.0000000  0.0000000  0.0000000 )
                  (  0.0000000  1.0000000  0.0000000 )
                  (  0.0000000  0.0000000  1.0000000 )


      isym =  2     180 deg rotation - cart. axis [0,0,1]        

 cryst.   s( 2) = (     0          1          0      )
                  (     1          0          0      )
                  (    -1         -1         -1      )

 cart.    s( 2) = ( -1.0000000  0.0000000  0.0000000 )
                  (  0.0000000 -1.0000000  0.0000000 )
                  (  0.0000000  0.0000000  1.0000000 )


      isym =  3     180 deg rotation - cart. axis [0,1,0]        

 cryst.   s( 3) = (     0          0          1      )
                  (    -1         -1         -1      )
                  (     1          0          0      )

 cart.    s( 3) = ( -1.0000000  0.0000000  0.0000000 )
                  (  0.0000000  1.0000000  0.0000000 )
                  (  0.0000000  0.0000000 -1.0000000 )


      isym =  4     180 deg rotation - cart. axis [1,0,0]        

 cryst.   s( 4) = (    -1         -1         -1      )
                  (     0          0          1      )
                  (     0          1          0      )

 cart.    s( 4) = (  1.0000000  0.0000000  0.0000000 )
                  (  0.0000000 -1.0000000  0.0000000 )
                  (  0.0000000  0.0000000 -1.0000000 )


      isym =  5     inversion                                    

 cryst.   s( 5) = (    -1          0          0      )
                  (     0         -1          0      )
                  (     0          0         -1      )

 cart.    s( 5) = ( -1.0000000  0.0000000  0.0000000 )
                  (  0.0000000 -1.0000000  0.0000000 )
                  (  0.0000000  0.0000000 -1.0000000 )


      isym =  6     inv. 180 deg rotation - cart. axis [0,0,1]   

 cryst.   s( 6) = (     0         -1          0      )
                  (    -1          0          0      )
                  (     1          1          1      )

 cart.    s( 6) = (  1.0000000  0.0000000  0.0000000 )
                  (  0.0000000  1.0000000  0.0000000 )
                  (  0.0000000  0.0000000 -1.0000000 )


      isym =  7     inv. 180 deg rotation - cart. axis [0,1,0]   

 cryst.   s( 7) = (     0          0         -1      )
                  (     1          1          1      )
                  (    -1          0          0      )

 cart.    s( 7) = (  1.0000000  0.0000000  0.0000000 )
                  (  0.0000000 -1.0000000  0.0000000 )
                  (  0.0000000  0.0000000  1.0000000 )


      isym =  8     inv. 180 deg rotation - cart. axis [1,0,0]   

 cryst.   s( 8) = (     1          1          1      )
                  (     0          0         -1      )
                  (     0         -1          0      )

 cart.    s( 8) = ( -1.0000000  0.0000000  0.0000000 )
                  (  0.0000000  1.0000000  0.0000000 )
                  (  0.0000000  0.0000000  1.0000000 )


   Cartesian axes

     site n.     atom                  positions (alat units)
         1           O   tau(   1) = (   0.0000000   0.2911613   0.0000000  )
         2           Cl  tau(   2) = (  -0.0000000   0.2911613   0.6365338  )
         3           Cl  tau(   3) = (   0.2504264  -0.0000000   0.2867819  )
         4           Nb  tau(   4) = (   0.0000000   0.0000000   0.0000000  )

   Crystallographic axes

     site n.     atom                  positions (cryst. coord.)
         1           O   tau(   1) = (  0.5000000  0.0000000  0.5000000  )
         2           Cl  tau(   2) = (  0.8447000  0.3447000  0.5000000  )
         3           Cl  tau(   3) = (  0.1553000  0.6553000  0.5000000  )
         4           Nb  tau(   4) = (  0.0000000  0.0000000  0.0000000  )

     number of k points=    95  Methfessel-Paxton smearing, width (Ry)=  0.0060
                       cart. coord. in units 2pi/alat
        k(    1) = (   0.0000000   0.0000000   0.0000000), wk =   0.0039062
        k(    2) = (   0.2495743   0.2146577   0.0000000), wk =   0.0156250
        k(    3) = (   0.4991486   0.4293153   0.0000000), wk =   0.0156250
        k(    4) = (   0.7487229   0.6439730   0.0000000), wk =   0.0156250
        k(    5) = (  -0.9982971  -0.8586307   0.0000000), wk =   0.0078125
        k(    6) = (   0.2495743   0.0000000   0.0676908), wk =   0.0156250
        k(    7) = (   0.4991486   0.2146577   0.0676908), wk =   0.0312500
        k(    8) = (   0.7487229   0.4293153   0.0676908), wk =   0.0312500
        k(    9) = (   0.9982971   0.6439730   0.0676908), wk =   0.0312500
        k(   10) = (  -0.7487229  -0.8586307   0.0676908), wk =   0.0312500
        k(   11) = (  -0.4991486  -0.6439730   0.0676908), wk =   0.0312500
        k(   12) = (  -0.2495743  -0.4293153   0.0676908), wk =   0.0312500
        k(   13) = (   0.0000000  -0.2146577   0.0676908), wk =   0.0156250
        k(   14) = (   0.4991486   0.0000000   0.1353817), wk =   0.0156250
        k(   15) = (   0.7487229   0.2146577   0.1353817), wk =   0.0312500
        k(   16) = (   0.9982971   0.4293153   0.1353817), wk =   0.0312500
        k(   17) = (   1.2478714   0.6439730   0.1353817), wk =   0.0312500
        k(   18) = (  -0.4991486  -0.8586307   0.1353817), wk =   0.0312500
        k(   19) = (  -0.2495743  -0.6439730   0.1353817), wk =   0.0312500
        k(   20) = (   0.0000000  -0.4293153   0.1353817), wk =   0.0156250
        k(   21) = (   0.2495743  -0.2146577   0.1353817), wk =   0.0312500
        k(   22) = (   0.7487229   0.0000000   0.2030725), wk =   0.0156250
        k(   23) = (   0.9982971   0.2146577   0.2030725), wk =   0.0312500
        k(   24) = (   1.2478714   0.4293153   0.2030725), wk =   0.0312500
        k(   25) = (   1.4974457   0.6439730   0.2030725), wk =   0.0312500
        k(   26) = (  -0.2495743  -0.8586307   0.2030725), wk =   0.0312500
        k(   27) = (   0.0000000  -0.6439730   0.2030725), wk =   0.0156250
        k(   28) = (   0.2495743  -0.4293153   0.2030725), wk =   0.0312500
        k(   29) = (   0.4991486  -0.2146577   0.2030725), wk =   0.0312500
        k(   30) = (  -0.9982971   0.0000000  -0.2707633), wk =   0.0078125
        k(   31) = (  -0.7487229   0.2146577  -0.2707633), wk =   0.0312500
        k(   32) = (  -0.4991486   0.4293153  -0.2707633), wk =   0.0312500
        k(   33) = (  -0.2495743   0.6439730  -0.2707633), wk =   0.0312500
        k(   34) = (  -1.9965943  -0.8586307  -0.2707633), wk =   0.0078125
        k(   35) = (   0.4991486   0.4293153   0.1353817), wk =   0.0312500
        k(   36) = (   0.7487229   0.6439730   0.1353817), wk =   0.0312500
        k(   37) = (   0.9982971   0.8586307   0.1353817), wk =   0.0156250
        k(   38) = (   0.0000000   0.0000000   0.1353817), wk =   0.0078125
        k(   39) = (   0.7487229   0.4293153   0.2030725), wk =   0.0312500
        k(   40) = (   0.9982971   0.6439730   0.2030725), wk =   0.0312500
        k(   41) = (   1.2478714   0.8586307   0.2030725), wk =   0.0312500
        k(   42) = (  -0.4991486  -0.6439730   0.2030725), wk =   0.0312500
        k(   43) = (   0.0000000  -0.2146577   0.2030725), wk =   0.0156250
        k(   44) = (   0.2495743   0.0000000   0.2030725), wk =   0.0156250
        k(   45) = (   0.9982971   0.4293153   0.2707633), wk =   0.0156250
        k(   46) = (   1.2478714   0.6439730   0.2707633), wk =   0.0312500
        k(   47) = (   1.4974457   0.8586307   0.2707633), wk =   0.0156250
        k(   48) = (   0.0000000  -0.4293153   0.2707633), wk =   0.0156250
        k(   49) = (   0.2495743  -0.2146577   0.2707633), wk =   0.0312500
        k(   50) = (   0.4991486   0.0000000   0.2707633), wk =   0.0156250
        k(   51) = (  -1.9965943  -0.6439730  -0.2030725), wk =   0.0156250
        k(   52) = (  -1.7470200  -0.4293153  -0.2030725), wk =   0.0312500
        k(   53) = (  -1.4974457  -0.2146577  -0.2030725), wk =   0.0312500
        k(   54) = (  -1.2478714   0.0000000  -0.2030725), wk =   0.0156250
        k(   55) = (   0.0000000   0.8586307  -0.1353817), wk =   0.0156250
        k(   56) = (  -1.7470200  -0.6439730  -0.1353817), wk =   0.0312500
        k(   57) = (  -1.4974457  -0.4293153  -0.1353817), wk =   0.0312500
        k(   58) = (  -1.2478714  -0.2146577  -0.1353817), wk =   0.0312500
        k(   59) = (  -0.9982971   0.0000000  -0.1353817), wk =   0.0156250
        k(   60) = (   0.0000000   0.6439730  -0.0676908), wk =   0.0156250
        k(   61) = (   0.2495743   0.8586307  -0.0676908), wk =   0.0312500
        k(   62) = (  -1.4974457  -0.6439730  -0.0676908), wk =   0.0312500
        k(   63) = (  -1.2478714  -0.4293153  -0.0676908), wk =   0.0312500
        k(   64) = (  -0.9982971  -0.2146577  -0.0676908), wk =   0.0312500
        k(   65) = (  -0.7487229   0.0000000  -0.0676908), wk =   0.0156250
        k(   66) = (   0.0000000   0.4293153   0.0000000), wk =   0.0078125
        k(   67) = (   0.2495743   0.6439730   0.0000000), wk =   0.0156250
        k(   68) = (   0.4991486   0.8586307   0.0000000), wk =   0.0156250
        k(   69) = (  -1.2478714  -0.6439730   0.0000000), wk =   0.0156250
        k(   70) = (  -0.9982971  -0.4293153   0.0000000), wk =   0.0156250
        k(   71) = (  -0.7487229  -0.2146577   0.0000000), wk =   0.0156250
        k(   72) = (  -0.4991486   0.0000000   0.0000000), wk =   0.0078125
        k(   73) = (   0.9982971   0.8586307   0.2707633), wk =   0.0078125
        k(   74) = (   0.0000000   0.0000000   0.2707633), wk =   0.0078125
        k(   75) = (   0.0000000  -0.2146577   0.3384542), wk =   0.0156250
        k(   76) = (   0.2495743   0.0000000   0.3384542), wk =   0.0156250
        k(   77) = (  -1.9965943  -0.4293153  -0.1353817), wk =   0.0156250
        k(   78) = (  -1.7470200  -0.2146577  -0.1353817), wk =   0.0312500
        k(   79) = (  -1.4974457   0.0000000  -0.1353817), wk =   0.0156250
        k(   80) = (   0.0000000   1.0732883  -0.0676908), wk =   0.0156250
        k(   81) = (  -1.7470200  -0.4293153  -0.0676908), wk =   0.0312500
        k(   82) = (  -1.4974457  -0.2146577  -0.0676908), wk =   0.0312500
        k(   83) = (  -1.2478714   0.0000000  -0.0676908), wk =   0.0156250
        k(   84) = (   0.0000000   0.8586307   0.0000000), wk =   0.0078125
        k(   85) = (   0.2495743   1.0732883   0.0000000), wk =   0.0156250
        k(   86) = (  -1.4974457  -0.4293153   0.0000000), wk =   0.0156250
        k(   87) = (  -1.2478714  -0.2146577   0.0000000), wk =   0.0156250
        k(   88) = (  -0.9982971   0.0000000   0.0000000), wk =   0.0078125
        k(   89) = (   0.0000000   0.0000000   0.4061450), wk =   0.0078125
        k(   90) = (  -1.9965943  -0.2146577  -0.0676908), wk =   0.0156250
        k(   91) = (  -1.7470200   0.0000000  -0.0676908), wk =   0.0156250
        k(   92) = (   0.0000000   1.2879460   0.0000000), wk =   0.0078125
        k(   93) = (  -1.7470200  -0.2146577   0.0000000), wk =   0.0156250
        k(   94) = (  -1.4974457   0.0000000   0.0000000), wk =   0.0078125
        k(   95) = (  -1.9965943  -1.7172613  -0.5415266), wk =   0.0039062

                       cryst. coord.
        k(    1) = (   0.0000000   0.0000000   0.0000000), wk =   0.0039062
        k(    2) = (   0.0000000   0.0000000   0.1250000), wk =   0.0156250
        k(    3) = (   0.0000000   0.0000000   0.2500000), wk =   0.0156250
        k(    4) = (  -0.0000000   0.0000000   0.3750000), wk =   0.0156250
        k(    5) = (   0.0000000   0.0000000  -0.5000000), wk =   0.0078125
        k(    6) = (   0.0000000   0.1250000   0.0000000), wk =   0.0156250
        k(    7) = (   0.0000000   0.1250000   0.1250000), wk =   0.0312500
        k(    8) = (   0.0000000   0.1250000   0.2500000), wk =   0.0312500
        k(    9) = (  -0.0000000   0.1250000   0.3750000), wk =   0.0312500
        k(   10) = (   0.0000000   0.1250000  -0.5000000), wk =   0.0312500
        k(   11) = (   0.0000000   0.1250000  -0.3750000), wk =   0.0312500
        k(   12) = (   0.0000000   0.1250000  -0.2500000), wk =   0.0312500
        k(   13) = (   0.0000000   0.1250000  -0.1250000), wk =   0.0156250
        k(   14) = (   0.0000000   0.2500000   0.0000000), wk =   0.0156250
        k(   15) = (   0.0000000   0.2500000   0.1250000), wk =   0.0312500
        k(   16) = (   0.0000000   0.2500000   0.2500000), wk =   0.0312500
        k(   17) = (  -0.0000000   0.2500000   0.3750000), wk =   0.0312500
        k(   18) = (   0.0000000   0.2500000  -0.5000000), wk =   0.0312500
        k(   19) = (   0.0000000   0.2500000  -0.3750000), wk =   0.0312500
        k(   20) = (   0.0000000   0.2500000  -0.2500000), wk =   0.0156250
        k(   21) = (   0.0000000   0.2500000  -0.1250000), wk =   0.0312500
        k(   22) = (   0.0000000   0.3750000   0.0000000), wk =   0.0156250
        k(   23) = (   0.0000000   0.3750000   0.1250000), wk =   0.0312500
        k(   24) = (  -0.0000000   0.3750000   0.2500000), wk =   0.0312500
        k(   25) = (  -0.0000000   0.3750000   0.3750000), wk =   0.0312500
        k(   26) = (   0.0000000   0.3750000  -0.5000000), wk =   0.0312500
        k(   27) = (   0.0000000   0.3750000  -0.3750000), wk =   0.0156250
        k(   28) = (   0.0000000   0.3750000  -0.2500000), wk =   0.0312500
        k(   29) = (   0.0000000   0.3750000  -0.1250000), wk =   0.0312500
        k(   30) = (   0.0000000  -0.5000000   0.0000000), wk =   0.0078125
        k(   31) = (   0.0000000  -0.5000000   0.1250000), wk =   0.0312500
        k(   32) = (   0.0000000  -0.5000000   0.2500000), wk =   0.0312500
        k(   33) = (   0.0000000  -0.5000000   0.3750000), wk =   0.0312500
        k(   34) = (   0.0000000  -0.5000000  -0.5000000), wk =   0.0078125
        k(   35) = (   0.1250000   0.1250000   0.1250000), wk =   0.0312500
        k(   36) = (   0.1250000   0.1250000   0.2500000), wk =   0.0312500
        k(   37) = (   0.1250000   0.1250000   0.3750000), wk =   0.0156250
        k(   38) = (   0.1250000   0.1250000  -0.1250000), wk =   0.0078125
        k(   39) = (   0.1250000   0.2500000   0.1250000), wk =   0.0312500
        k(   40) = (   0.1250000   0.2500000   0.2500000), wk =   0.0312500
        k(   41) = (   0.1250000   0.2500000   0.3750000), wk =   0.0312500
        k(   42) = (   0.1250000   0.2500000  -0.5000000), wk =   0.0312500
        k(   43) = (   0.1250000   0.2500000  -0.2500000), wk =   0.0156250
        k(   44) = (   0.1250000   0.2500000  -0.1250000), wk =   0.0156250
        k(   45) = (   0.1250000   0.3750000   0.1250000), wk =   0.0156250
        k(   46) = (   0.1250000   0.3750000   0.2500000), wk =   0.0312500
        k(   47) = (   0.1250000   0.3750000   0.3750000), wk =   0.0156250
        k(   48) = (   0.1250000   0.3750000  -0.3750000), wk =   0.0156250
        k(   49) = (   0.1250000   0.3750000  -0.2500000), wk =   0.0312500
        k(   50) = (   0.1250000   0.3750000  -0.1250000), wk =   0.0156250
        k(   51) = (   0.1250000  -0.5000000  -0.5000000), wk =   0.0156250
        k(   52) = (   0.1250000  -0.5000000  -0.3750000), wk =   0.0312500
        k(   53) = (   0.1250000  -0.5000000  -0.2500000), wk =   0.0312500
        k(   54) = (   0.1250000  -0.5000000  -0.1250000), wk =   0.0156250
        k(   55) = (   0.1250000  -0.3750000   0.3750000), wk =   0.0156250
        k(   56) = (   0.1250000  -0.3750000  -0.5000000), wk =   0.0312500
        k(   57) = (   0.1250000  -0.3750000  -0.3750000), wk =   0.0312500
        k(   58) = (   0.1250000  -0.3750000  -0.2500000), wk =   0.0312500
        k(   59) = (   0.1250000  -0.3750000  -0.1250000), wk =   0.0156250
        k(   60) = (   0.1250000  -0.2500000   0.2500000), wk =   0.0156250
        k(   61) = (   0.1250000  -0.2500000   0.3750000), wk =   0.0312500
        k(   62) = (   0.1250000  -0.2500000  -0.5000000), wk =   0.0312500
        k(   63) = (   0.1250000  -0.2500000  -0.3750000), wk =   0.0312500
        k(   64) = (   0.1250000  -0.2500000  -0.2500000), wk =   0.0312500
        k(   65) = (   0.1250000  -0.2500000  -0.1250000), wk =   0.0156250
        k(   66) = (   0.1250000  -0.1250000   0.1250000), wk =   0.0078125
        k(   67) = (   0.1250000  -0.1250000   0.2500000), wk =   0.0156250
        k(   68) = (   0.1250000  -0.1250000   0.3750000), wk =   0.0156250
        k(   69) = (   0.1250000  -0.1250000  -0.5000000), wk =   0.0156250
        k(   70) = (   0.1250000  -0.1250000  -0.3750000), wk =   0.0156250
        k(   71) = (   0.1250000  -0.1250000  -0.2500000), wk =   0.0156250
        k(   72) = (   0.1250000  -0.1250000  -0.1250000), wk =   0.0078125
        k(   73) = (   0.2500000   0.2500000   0.2500000), wk =   0.0078125
        k(   74) = (   0.2500000   0.2500000  -0.2500000), wk =   0.0078125
        k(   75) = (   0.2500000   0.3750000  -0.3750000), wk =   0.0156250
        k(   76) = (   0.2500000   0.3750000  -0.2500000), wk =   0.0156250
        k(   77) = (   0.2500000  -0.5000000  -0.5000000), wk =   0.0156250
        k(   78) = (   0.2500000  -0.5000000  -0.3750000), wk =   0.0312500
        k(   79) = (   0.2500000  -0.5000000  -0.2500000), wk =   0.0156250
        k(   80) = (   0.2500000  -0.3750000   0.3750000), wk =   0.0156250
        k(   81) = (   0.2500000  -0.3750000  -0.5000000), wk =   0.0312500
        k(   82) = (   0.2500000  -0.3750000  -0.3750000), wk =   0.0312500
        k(   83) = (   0.2500000  -0.3750000  -0.2500000), wk =   0.0156250
        k(   84) = (   0.2500000  -0.2500000   0.2500000), wk =   0.0078125
        k(   85) = (   0.2500000  -0.2500000   0.3750000), wk =   0.0156250
        k(   86) = (   0.2500000  -0.2500000  -0.5000000), wk =   0.0156250
        k(   87) = (   0.2500000  -0.2500000  -0.3750000), wk =   0.0156250
        k(   88) = (   0.2500000  -0.2500000  -0.2500000), wk =   0.0078125
        k(   89) = (   0.3750000   0.3750000  -0.3750000), wk =   0.0078125
        k(   90) = (   0.3750000  -0.5000000  -0.5000000), wk =   0.0156250
        k(   91) = (   0.3750000  -0.5000000  -0.3750000), wk =   0.0156250
        k(   92) = (   0.3750000  -0.3750000   0.3750000), wk =   0.0078125
        k(   93) = (   0.3750000  -0.3750000  -0.5000000), wk =   0.0156250
        k(   94) = (   0.3750000  -0.3750000  -0.3750000), wk =   0.0078125
        k(   95) = (  -0.5000000  -0.5000000  -0.5000000), wk =   0.0039062

     Dense  grid:   384583 G-vectors     FFT dimensions: ( 144, 144, 144)

     Smooth grid:    97215 G-vectors     FFT dimensions: (  90,  90,  90)

     Dynamical RAM for                 wfc:       0.08 MB

     Dynamical RAM for     wfc (w. buffer):       7.78 MB

     Dynamical RAM for           str. fact:       0.37 MB

     Dynamical RAM for           local pot:       0.00 MB

     Dynamical RAM for          nlocal pot:       0.16 MB

     Dynamical RAM for                qrad:       8.33 MB

     Dynamical RAM for          rho,v,vnew:       1.79 MB

     Dynamical RAM for               rhoin:       0.60 MB

     Dynamical RAM for            rho*nmix:       1.96 MB

     Dynamical RAM for           G-vectors:       0.47 MB

     Dynamical RAM for          h,s,v(r/c):       0.08 MB

     Dynamical RAM for          <psi|beta>:       0.01 MB

     Dynamical RAM for                 psi:       0.16 MB

     Dynamical RAM for                hpsi:       0.16 MB

     Dynamical RAM for                spsi:       0.16 MB

     Dynamical RAM for      wfcinit/wfcrot:       0.21 MB

     Dynamical RAM for           addusdens:      22.98 MB

     Dynamical RAM for          addusforce:      23.30 MB

     Dynamical RAM for         addusstress:      24.57 MB

     Estimated static dynamical RAM per process >      24.33 MB

     Estimated max dynamical RAM per process >      48.90 MB

     Estimated total dynamical RAM >       2.29 GB

     Initial potential from superposition of free atoms

     starting charge   32.99867, renormalised to   33.00000
     Starting wfcs are   25 randomized atomic wfcs
     Checking if some PAW data can be deallocated... 
       PAW data deallocated on   36 nodes for type:  1
       PAW data deallocated on   24 nodes for type:  2
       PAW data deallocated on   36 nodes for type:  3

     total cpu time spent up to now is        3.4 secs

     Self-consistent Calculation

     iteration #  1     ecut=   120.00 Ry     beta= 0.70
     Davidson diagonalization with overlap
     ethr =  1.00E-02,  avg # of iterations =  2.3

     total cpu time spent up to now is        8.3 secs

     total energy              =    -534.52402390 Ry
     estimated scf accuracy    <       0.76480284 Ry

     iteration #  2     ecut=   120.00 Ry     beta= 0.70
     Davidson diagonalization with overlap
     ethr =  2.32E-03,  avg # of iterations =  3.6

     total cpu time spent up to now is       13.9 secs

     total energy              =    -533.65620353 Ry
     estimated scf accuracy    <       8.24805310 Ry

     iteration #  3     ecut=   120.00 Ry     beta= 0.70
     Davidson diagonalization with overlap
     ethr =  2.32E-03,  avg # of iterations =  3.5

     total cpu time spent up to now is       19.2 secs

     total energy              =    -534.97355459 Ry
     estimated scf accuracy    <       0.12148283 Ry

     iteration #  4     ecut=   120.00 Ry     beta= 0.70
     Davidson diagonalization with overlap
     ethr =  3.68E-04,  avg # of iterations =  1.4

     total cpu time spent up to now is       23.6 secs

     total energy              =    -534.96778134 Ry
     estimated scf accuracy    <       0.05844343 Ry

     iteration #  5     ecut=   120.00 Ry     beta= 0.70
     Davidson diagonalization with overlap
     ethr =  1.77E-04,  avg # of iterations =  1.5

     total cpu time spent up to now is       27.8 secs

     total energy              =    -534.96361773 Ry
     estimated scf accuracy    <       0.02415117 Ry

     iteration #  6     ecut=   120.00 Ry     beta= 0.70
     Davidson diagonalization with overlap
     ethr =  7.32E-05,  avg # of iterations =  2.0

     total cpu time spent up to now is       32.3 secs

     total energy              =    -534.96627722 Ry
     estimated scf accuracy    <       0.00066254 Ry

     iteration #  7     ecut=   120.00 Ry     beta= 0.70
     Davidson diagonalization with overlap
     ethr =  2.01E-06,  avg # of iterations =  3.6

     total cpu time spent up to now is       38.0 secs

     total energy              =    -534.96648459 Ry
     estimated scf accuracy    <       0.00017871 Ry

     iteration #  8     ecut=   120.00 Ry     beta= 0.70
     Davidson diagonalization with overlap
     ethr =  5.42E-07,  avg # of iterations =  1.7

     total cpu time spent up to now is       42.3 secs

     total energy              =    -534.96648957 Ry
     estimated scf accuracy    <       0.00002462 Ry

     iteration #  9     ecut=   120.00 Ry     beta= 0.70
     Davidson diagonalization with overlap
     ethr =  7.46E-08,  avg # of iterations =  2.4

     total cpu time spent up to now is       47.1 secs

     total energy              =    -534.96649542 Ry
     estimated scf accuracy    <       0.00000039 Ry

     iteration # 10     ecut=   120.00 Ry     beta= 0.70
     Davidson diagonalization with overlap
     ethr =  1.19E-09,  avg # of iterations =  4.4

     total cpu time spent up to now is       53.4 secs

     total energy              =    -534.96649569 Ry
     estimated scf accuracy    <       0.00000001 Ry

     iteration # 11     ecut=   120.00 Ry     beta= 0.70
     Davidson diagonalization with overlap
     ethr =  4.16E-11,  avg # of iterations =  3.9

     total cpu time spent up to now is       59.5 secs

     total energy              =    -534.96649569 Ry
     estimated scf accuracy    <          1.2E-09 Ry

     iteration # 12     ecut=   120.00 Ry     beta= 0.70
     Davidson diagonalization with overlap
     ethr =  3.51E-12,  avg # of iterations =  2.6

     total cpu time spent up to now is       64.6 secs

     total energy              =    -534.96649569 Ry
     estimated scf accuracy    <          2.9E-10 Ry

     iteration # 13     ecut=   120.00 Ry     beta= 0.70
     Davidson diagonalization with overlap
     ethr =  8.69E-13,  avg # of iterations =  2.0

     total cpu time spent up to now is       69.4 secs

     End of self-consistent calculation

          k = 0.0000 0.0000 0.0000 ( 12131 PWs)   bands (ev):

   -49.8393 -26.0473 -25.7940 -25.7190 -12.3732  -9.5211  -8.8318   0.6126
     2.4620   2.7391   2.8729   3.0102   3.4629   3.9431   4.2036   4.2828
     5.5006   7.2182   7.3587   8.6419   9.3905

     occupation numbers 
     1.0000   1.0000   1.0000   1.0000   1.0000   1.0000   1.0000   1.0000
     1.0000   1.0000   1.0000   1.0000   1.0000   1.0000   1.0000   1.0000
     1.0000  -0.0000  -0.0000  -0.0000  -0.0000

          k = 0.2496 0.2147 0.0000 ( 12121 PWs)   bands (ev):

   -49.8367 -26.0724 -25.7874 -25.7501 -12.1780  -9.4125  -8.8395   0.8243
     2.1240   2.2520   2.4510   2.9965   3.2899   3.5034   3.8854   4.0365
     5.9344   7.5280   7.6037   8.7462  10.0935

     occupation numbers 
     1.0000   1.0000   1.0000   1.0000   1.0000   1.0000   1.0000   1.0000
     1.0000   1.0000   1.0000   1.0000   1.0000   1.0000   1.0000   1.0000
     1.0000  -0.0000  -0.0000  -0.0000  -0.0000

          k = 0.4991 0.4293 0.0000 ( 12152 PWs)   bands (ev):

   -49.8303 -26.1311 -25.8240 -25.7715 -11.6791  -9.1351  -8.8616   1.1178
     1.3992   1.7353   1.8939   2.0098   2.1841   2.9200   3.8472   4.0143
     6.8054   8.1662   8.2779   9.1555  11.1516

     occupation numbers 
     1.0000   1.0000   1.0000   1.0000   1.0000   1.0000   1.0000   1.0000
     1.0000   1.0000   1.0000   1.0000   1.0000   1.0000   1.0000   1.0000
     0.5933  -0.0000  -0.0000  -0.0000  -0.0000

          k = 0.7487 0.6440 0.0000 ( 12176 PWs)   bands (ev):

   -49.8240 -26.1876 -25.8966 -25.7556 -11.1295  -8.8888  -8.8306  -0.0626
     0.9815   1.2616   1.6629   1.7808   2.1824   2.3078   3.5232   3.9762
     7.8629   8.8544   9.0637   9.5720  11.3814

     occupation numbers 
     1.0000   1.0000   1.0000   1.0000   1.0000   1.0000   1.0000   1.0000
     1.0000   1.0000   1.0000   1.0000   1.0000   1.0000   1.0000   1.0000
    -0.0000  -0.0000  -0.0000  -0.0000  -0.0000

          k =-0.9983-0.8586 0.0000 ( 12140 PWs)   bands (ev):

   -49.8213 -26.2103 -25.9262 -25.7490 -10.8822  -8.9016  -8.6940  -0.5514
     0.6081   0.9538   1.7484   1.8269   1.9866   2.5685   3.2682   3.8806
     8.4625   9.1855   9.3784   9.7641  11.4055

     occupation numbers 
     1.0000   1.0000   1.0000   1.0000   1.0000   1.0000   1.0000   1.0000
     1.0000   1.0000   1.0000   1.0000   1.0000   1.0000   1.0000   1.0000
    -0.0000  -0.0000  -0.0000  -0.0000  -0.0000

          k = 0.2496 0.0000 0.0677 ( 12148 PWs)   bands (ev):

   -49.8371 -26.0448 -25.7884 -25.7510 -12.3559  -9.4318  -8.8448   0.8024
     2.2461   2.6639   2.9521   3.0633   3.1021   3.8042   3.9347   4.1228
     5.9188   7.1276   7.2986   8.7262   9.7697

     occupation numbers 
     1.0000   1.0000   1.0000   1.0000   1.0000   1.0000   1.0000   1.0000
     1.0000   1.0000   1.0000   1.0000   1.0000   1.0000   1.0000   1.0000
     1.0000  -0.0000  -0.0000  -0.0000  -0.0000

          k = 0.4991 0.2147 0.0677 ( 12153 PWs)   bands (ev):

   -49.8315 -26.0661 -25.8264 -25.7739 -12.1369  -9.1921  -8.8633   1.2323
     1.9006   2.0802   2.2402   2.4909   2.8969   3.0635   3.8722   4.0717
     6.7544   7.3235   7.4431   9.1582  10.5550

     occupation numbers 
     1.0000   1.0000   1.0000   1.0000   1.0000   1.0000   1.0000   1.0000
     1.0000   1.0000   1.0000   1.0000   1.0000   1.0000   1.0000   1.0000
     0.9718  -0.0000  -0.0000  -0.0000  -0.0000

          k = 0.7487 0.4293 0.0677 ( 12179 PWs)   bands (ev):

   -49.8251 -26.1244 -25.8991 -25.7579 -11.6396  -8.9138  -8.8670   1.0951
     1.2415   1.4460   1.6798   1.9096   2.2586   2.5438   3.7135   4.1149
     7.7168   8.0645   8.1752   9.6494  11.1274

     occupation numbers 
     1.0000   1.0000   1.0000   1.0000   1.0000   1.0000   1.0000   1.0000
     1.0000   1.0000   1.0000   1.0000   1.0000   1.0000   1.0000   1.0000
    -0.0000  -0.0000  -0.0000  -0.0000  -0.0000

          k = 0.9983 0.6440 0.0677 ( 12173 PWs)   bands (ev):

   -49.8218 -26.1846 -25.9273 -25.7500 -11.1140  -8.9136  -8.7073  -0.0498
     0.7518   0.9298   1.5567   1.9384   2.2151   2.5988   3.3431   3.9458
     8.4505   8.7814   9.0224   9.7480  11.2807

     occupation numbers 
     1.0000   1.0000   1.0000   1.0000   1.0000   1.0000   1.0000   1.0000
     1.0000   1.0000   1.0000   1.0000   1.0000   1.0000   1.0000   1.0000
    -0.0000  -0.0000  -0.0000  -0.0000  -0.0000

          k =-0.7487-0.8586 0.0677 ( 12172 PWs)   bands (ev):

   -49.8235 -26.2133 -25.8955 -25.7546 -10.8969  -8.9075  -8.7848  -0.5621
     0.7948   1.2424   1.4358   1.8079   2.3264   2.3985   3.4322   3.8235
     7.9144   9.2363   9.4260   9.4845  11.3407

     occupation numbers 
     1.0000   1.0000   1.0000   1.0000   1.0000   1.0000   1.0000   1.0000
     1.0000   1.0000   1.0000   1.0000   1.0000   1.0000   1.0000   1.0000
    -0.0000  -0.0000  -0.0000  -0.0000  -0.0000

          k =-0.4991-0.6440 0.0677 ( 12166 PWs)   bands (ev):

   -49.8291 -26.1947 -25.8217 -25.7691 -11.1663  -9.0592  -8.8800  -0.0918
     1.3264   1.4647   1.5676   1.8762   2.1329   2.9277   3.7160   3.8074
     6.8819   8.9649   9.0542   9.2222  11.4245

     occupation numbers 
     1.0000   1.0000   1.0000   1.0000   1.0000   1.0000   1.0000   1.0000
     1.0000   1.0000   1.0000   1.0000   1.0000   1.0000   1.0000   1.0000
     0.0036  -0.0000  -0.0000  -0.0000  -0.0000

          k =-0.2496-0.4293 0.0677 ( 12135 PWs)   bands (ev):

   -49.8355 -26.1378 -25.7850 -25.7479 -11.7183  -9.3442  -8.8531   0.9144
     1.1394   1.4974   2.2491   2.5243   3.1805   3.4055   3.7288   3.9177
     5.9989   8.3761   8.4067   8.7818  10.6500

     occupation numbers 
     1.0000   1.0000   1.0000   1.0000   1.0000   1.0000   1.0000   1.0000
     1.0000   1.0000   1.0000   1.0000   1.0000   1.0000   1.0000   1.0000
     1.0000  -0.0000  -0.0000  -0.0000  -0.0000

          k = 0.0000-0.2147 0.0677 ( 12112 PWs)   bands (ev):

   -49.8388 -26.0750 -25.7930 -25.7182 -12.1950  -9.4908  -8.8405   0.6651
     2.0647   2.4395   2.4845   3.2989   3.3550   3.7553   3.9573   4.1584
     5.5293   7.6436   7.6688   8.6714   9.7260

     occupation numbers 
     1.0000   1.0000   1.0000   1.0000   1.0000   1.0000   1.0000   1.0000
     1.0000   1.0000   1.0000   1.0000   1.0000   1.0000   1.0000   1.0000
     1.0000  -0.0000  -0.0000  -0.0000  -0.0000

          k = 0.4991 0.0000 0.1354 ( 12156 PWs)   bands (ev):

   -49.8320 -26.0387 -25.8274 -25.7748 -12.3142  -9.2090  -8.8710   1.1801
     1.9227   2.0208   2.4789   3.0540   3.3270   3.4679   3.7885   3.9117
     6.7833   6.9399   7.0992   9.0996  10.1174

     occupation numbers 
     1.0000   1.0000   1.0000   1.0000   1.0000   1.0000   1.0000   1.0000
     1.0000   1.0000   1.0000   1.0000   1.0000   1.0000   1.0000   1.0000
     0.7984  -0.0260  -0.0000  -0.0000  -0.0000

          k = 0.7487 0.2147 0.1354 ( 12169 PWs)   bands (ev):

   -49.8263 -26.0598 -25.9017 -25.7602 -12.0959  -8.9740  -8.8659   1.0759
     1.4563   1.8250   2.0136   2.6224   2.7689   3.1420   3.8344   4.0174
     7.0943   7.2320   7.8474   9.6393  10.4540

     occupation numbers 
     1.0000   1.0000   1.0000   1.0000   1.0000   1.0000   1.0000   1.0000
     1.0000   1.0000   1.0000   1.0000   1.0000   1.0000   1.0000   1.0000
    -0.0000  -0.0000  -0.0000  -0.0000  -0.0000

          k = 0.9983 0.4293 0.1354 ( 12163 PWs)   bands (ev):

   -49.8230 -26.1216 -25.9299 -25.7523 -11.6232  -8.9423  -8.7391   0.7652
     1.2201   1.2486   1.4264   1.9480   2.6346   2.8138   3.5527   4.0456
     7.8538   8.1240   8.4529   9.7314  10.9013

     occupation numbers 
     1.0000   1.0000   1.0000   1.0000   1.0000   1.0000   1.0000   1.0000
     1.0000   1.0000   1.0000   1.0000   1.0000   1.0000   1.0000   1.0000
    -0.0000  -0.0000  -0.0000  -0.0000  -0.0000

          k = 1.2479 0.6440 0.1354 ( 12184 PWs)   bands (ev):

   -49.8240 -26.1876 -25.8966 -25.7556 -11.1292  -8.9447  -8.7706  -0.0629
     0.9249   1.1543   1.3334   1.9111   2.5086   2.5765   3.5035   3.8069
     7.9311   8.8383   9.0688   9.4094  11.1838

     occupation numbers 
     1.0000   1.0000   1.0000   1.0000   1.0000   1.0000   1.0000   1.0000
     1.0000   1.0000   1.0000   1.0000   1.0000   1.0000   1.0000   1.0000
    -0.0000  -0.0000  -0.0000  -0.0000  -0.0000

          k =-0.4991-0.8586 0.1354 ( 12184 PWs)   bands (ev):

   -49.8286 -26.2206 -25.8207 -25.7682 -10.9320  -8.9937  -8.9230  -0.5879
     1.1780   1.2242   1.7209   1.7992   2.1784   2.9593   3.5796   3.7477
     6.9359   8.9559   9.4224   9.5220  11.4689

     occupation numbers 
     1.0000   1.0000   1.0000   1.0000   1.0000   1.0000   1.0000   1.0000
     1.0000   1.0000   1.0000   1.0000   1.0000   1.0000   1.0000   1.0000
    -0.0282  -0.0000  -0.0000  -0.0000  -0.0000

          k =-0.2496-0.6440 0.1354 ( 12161 PWs)   bands (ev):

   -49.8343 -26.2019 -25.7826 -25.7457 -11.2026  -9.2544  -8.8928  -0.1201
     0.9537   1.2472   2.0127   2.2582   2.9719   3.3164   3.5269   3.9377
     6.0676   8.7610   9.2247   9.2567  11.0506

     occupation numbers 
     1.0000   1.0000   1.0000   1.0000   1.0000   1.0000   1.0000   1.0000
     1.0000   1.0000   1.0000   1.0000   1.0000   1.0000   1.0000   1.0000
     1.0000  -0.0000  -0.0000  -0.0000  -0.0000

          k = 0.0000-0.4293 0.1354 ( 12137 PWs)   bands (ev):

   -49.8376 -26.1406 -25.7906 -25.7160 -11.7344  -9.4111  -8.8694   0.7775
     1.1168   1.4414   2.5410   2.9099   3.0125   3.5489   3.9541   4.0074
     5.5844   8.4279   8.5382   8.7434  10.3251

     occupation numbers 
     1.0000   1.0000   1.0000   1.0000   1.0000   1.0000   1.0000   1.0000
     1.0000   1.0000   1.0000   1.0000   1.0000   1.0000   1.0000   1.0000
     1.0000  -0.0000  -0.0000  -0.0000  -0.0000

          k = 0.2496-0.2147 0.1354 ( 12130 PWs)   bands (ev):

   -49.8367 -26.0724 -25.7874 -25.7501 -12.1777  -9.3934  -8.8626   0.8804
     2.1392   2.2477   2.4614   2.9590   3.2041   3.4975   3.8623   4.0677
     5.9579   7.5219   7.6214   8.7283  10.1587

     occupation numbers 
     1.0000   1.0000   1.0000   1.0000   1.0000   1.0000   1.0000   1.0000
     1.0000   1.0000   1.0000   1.0000   1.0000   1.0000   1.0000   1.0000
     1.0000  -0.0000  -0.0000  -0.0000  -0.0000

          k = 0.7487 0.0000 0.2031 ( 12173 PWs)   bands (ev):

   -49.8268 -26.0326 -25.9028 -25.7612 -12.2727  -9.0121  -8.8505   1.0066
     1.3312   1.9949   2.0932   3.1733   3.4442   3.5831   3.7340   3.7602
     6.7838   6.7982   7.8350   9.5427   9.9827

     occupation numbers 
     1.0000   1.0000   1.0000   1.0000   1.0000   1.0000   1.0000   1.0000
     1.0000   1.0000   1.0000   1.0000   1.0000   1.0000   1.0000   1.0000
     0.7943   0.6651  -0.0000  -0.0000  -0.0000

          k = 0.9983 0.2147 0.2031 ( 12179 PWs)   bands (ev):

   -49.8242 -26.0572 -25.9326 -25.7546 -12.0789  -8.9707  -8.7702   0.6941
     1.3320   1.7694   1.9261   2.6955   2.9035   3.4059   3.8031   3.9320
     7.0337   7.1243   8.4294   9.6713  10.3134

     occupation numbers 
     1.0000   1.0000   1.0000   1.0000   1.0000   1.0000   1.0000   1.0000
     1.0000   1.0000   1.0000   1.0000   1.0000   1.0000   1.0000   1.0000
    -0.0005  -0.0000  -0.0000  -0.0000  -0.0000

          k = 1.2479 0.4293 0.2031 ( 12170 PWs)   bands (ev):

   -49.8251 -26.1244 -25.8991 -25.7579 -11.6393  -8.9870  -8.7881   1.0040
     1.1859   1.2971   1.3986   2.0981   2.6479   2.8078   3.6924   3.9539
     7.8572   7.9902   8.1798   9.4013  10.8624

     occupation numbers 
     1.0000   1.0000   1.0000   1.0000   1.0000   1.0000   1.0000   1.0000
     1.0000   1.0000   1.0000   1.0000   1.0000   1.0000   1.0000   1.0000
    -0.0000  -0.0000  -0.0000  -0.0000  -0.0000

          k = 1.4974 0.6440 0.2031 ( 12175 PWs)   bands (ev):

   -49.8291 -26.1947 -25.8217 -25.7692 -11.1658  -9.0243  -8.9157  -0.0931
     1.2556   1.3227   1.6936   1.8452   2.2839   3.0072   3.5560   3.8708
     6.9404   8.8535   9.1200   9.1580  11.3590

     occupation numbers 
     1.0000   1.0000   1.0000   1.0000   1.0000   1.0000   1.0000   1.0000
     1.0000   1.0000   1.0000   1.0000   1.0000   1.0000   1.0000   1.0000
    -0.0257  -0.0000  -0.0000  -0.0000  -0.0000

          k =-0.2496-0.8586 0.2031 ( 12167 PWs)   bands (ev):

   -49.8338 -26.2280 -25.7817 -25.7448 -10.9664  -9.1902  -8.9401  -0.6135
     0.8402   1.4183   1.7752   2.1698   2.8857   3.2217   3.4784   3.9650
     6.1045   8.7756   9.5741   9.6033  11.2113

     occupation numbers 
     1.0000   1.0000   1.0000   1.0000   1.0000   1.0000   1.0000   1.0000
     1.0000   1.0000   1.0000   1.0000   1.0000   1.0000   1.0000   1.0000
     1.0000  -0.0000  -0.0000  -0.0000  -0.0000

          k = 0.0000-0.6440 0.2031 ( 12156 PWs)   bands (ev):

   -49.8364 -26.2048 -25.7882 -25.7139 -11.2173  -9.3165  -8.9168  -0.1321
     0.7853   1.2387   2.4051   2.5655   2.6044   3.4561   3.9213   3.9869
     5.6383   8.8143   9.2272   9.3640  10.7878

     occupation numbers 
     1.0000   1.0000   1.0000   1.0000   1.0000   1.0000   1.0000   1.0000
     1.0000   1.0000   1.0000   1.0000   1.0000   1.0000   1.0000   1.0000
     1.0000  -0.0000  -0.0000  -0.0000  -0.0000

          k = 0.2496-0.4293 0.2031 ( 12155 PWs)   bands (ev):

   -49.8355 -26.1378 -25.7851 -25.7479 -11.7179  -9.3098  -8.8935   0.9618
     1.1622   1.5925   2.1746   2.5448   2.9580   3.4615   3.5786   4.0761
     6.0284   8.3964   8.4046   8.7569  10.7503

     occupation numbers 
     1.0000   1.0000   1.0000   1.0000   1.0000   1.0000   1.0000   1.0000
     1.0000   1.0000   1.0000   1.0000   1.0000   1.0000   1.0000   1.0000
     1.0000  -0.0000  -0.0000  -0.0000  -0.0000

          k = 0.4991-0.2147 0.2031 ( 12152 PWs)   bands (ev):

   -49.8315 -26.0661 -25.8264 -25.7739 -12.1366  -9.1780  -8.8779   1.2053
     1.8845   1.9424   2.3090   2.5238   2.9367   3.1613   3.8441   4.0836
     6.8097   7.2892   7.4574   9.0273  10.4978

     occupation numbers 
     1.0000   1.0000   1.0000   1.0000   1.0000   1.0000   1.0000   1.0000
     1.0000   1.0000   1.0000   1.0000   1.0000   1.0000   1.0000   1.0000
     0.5495  -0.0000  -0.0000  -0.0000  -0.0000

          k =-0.9983 0.0000-0.2708 ( 12202 PWs)   bands (ev):

   -49.8246 -26.0301 -25.9337 -25.7555 -12.2556  -8.9823  -8.7830   0.6601
     1.3118   1.8862   2.0438   3.3073   3.4170   3.5039   3.7861   3.9211
     6.6077   6.7470   8.4170   9.5359  10.0280

     occupation numbers 
     1.0000   1.0000   1.0000   1.0000   1.0000   1.0000   1.0000   1.0000
     1.0000   1.0000   1.0000   1.0000   1.0000   1.0000   1.0000   1.0000
     1.0010   0.9966  -0.0000  -0.0000  -0.0000

          k =-0.7487 0.2147-0.2708 ( 12174 PWs)   bands (ev):

   -49.8263 -26.0598 -25.9017 -25.7602 -12.0958  -9.0149  -8.8211   0.9943
     1.2670   1.8248   2.1560   2.6429   2.8949   3.2527   3.8093   4.0112
     7.0834   7.2259   7.8775   9.4583  10.3208

     occupation numbers 
     1.0000   1.0000   1.0000   1.0000   1.0000   1.0000   1.0000   1.0000
     1.0000   1.0000   1.0000   1.0000   1.0000   1.0000   1.0000   1.0000
    -0.0000  -0.0000  -0.0000  -0.0000  -0.0000

          k =-0.4991 0.4293-0.2708 ( 12174 PWs)   bands (ev):

   -49.8303 -26.1311 -25.8240 -25.7715 -11.6785  -9.1084  -8.8892   1.0991
     1.3074   1.6909   1.8866   1.9359   2.4012   3.0789   3.6944   4.0591
     6.8888   8.1368   8.3018   8.9833  11.0561

     occupation numbers 
     1.0000   1.0000   1.0000   1.0000   1.0000   1.0000   1.0000   1.0000
     1.0000   1.0000   1.0000   1.0000   1.0000   1.0000   1.0000   1.0000
    -0.0132  -0.0000  -0.0000  -0.0000  -0.0000

          k =-0.2496 0.6440-0.2708 ( 12165 PWs)   bands (ev):

   -49.8343 -26.2019 -25.7827 -25.7457 -11.2022  -9.2179  -8.9338  -0.1213
     0.9466   1.4632   1.8437   2.2691   2.8809   3.2726   3.4990   4.0211
     6.0895   8.7663   9.2133   9.2591  11.1184

     occupation numbers 
     1.0000   1.0000   1.0000   1.0000   1.0000   1.0000   1.0000   1.0000
     1.0000   1.0000   1.0000   1.0000   1.0000   1.0000   1.0000   1.0000
     1.0000  -0.0000  -0.0000  -0.0000  -0.0000

          k =-1.9966-0.8586-0.2708 ( 12134 PWs)   bands (ev):

   -49.8359 -26.2310 -25.7872 -25.7131 -10.9804  -9.2685  -8.9476  -0.6241
     0.6869   1.3304   2.1180   2.4399   2.6285   3.4147   3.8914   3.9835
     5.6607   8.8444   9.5778   9.7017  10.9580

     occupation numbers 
     1.0000   1.0000   1.0000   1.0000   1.0000   1.0000   1.0000   1.0000
     1.0000   1.0000   1.0000   1.0000   1.0000   1.0000   1.0000   1.0000
     1.0000  -0.0000  -0.0000  -0.0000  -0.0000

          k = 0.4991 0.4293 0.1354 ( 12160 PWs)   bands (ev):

   -49.8303 -26.1311 -25.8240 -25.7715 -11.6789  -9.1279  -8.8691   1.1118
     1.3641   1.7509   1.8373   2.0637   2.1915   2.9815   3.7957   4.0347
     6.8289   8.1527   8.2883   9.1057  11.1280

     occupation numbers 
     1.0000   1.0000   1.0000   1.0000   1.0000   1.0000   1.0000   1.0000
     1.0000   1.0000   1.0000   1.0000   1.0000   1.0000   1.0000   1.0000
     0.3527  -0.0000  -0.0000  -0.0000  -0.0000

          k = 0.7487 0.6440 0.1354 ( 12164 PWs)   bands (ev):

   -49.8240 -26.1876 -25.8966 -25.7556 -11.1294  -8.9041  -8.8147  -0.0627
     0.9745   1.2270   1.6408   1.7388   2.2797   2.3562   3.5173   3.9490
     7.8751   8.8423   9.0637   9.5533  11.3626

     occupation numbers 
     1.0000   1.0000   1.0000   1.0000   1.0000   1.0000   1.0000   1.0000
     1.0000   1.0000   1.0000   1.0000   1.0000   1.0000   1.0000   1.0000
    -0.0000  -0.0000  -0.0000  -0.0000  -0.0000

          k = 0.9983 0.8586 0.1354 ( 12170 PWs)   bands (ev):

   -49.8213 -26.2103 -25.9262 -25.7490 -10.8822  -8.9016  -8.6940  -0.5514
     0.6227   0.9235   1.7711   1.8589   1.9529   2.5803   3.2245   3.9088
     8.4642   9.1872   9.3882   9.7352  11.3865

     occupation numbers 
     1.0000   1.0000   1.0000   1.0000   1.0000   1.0000   1.0000   1.0000
     1.0000   1.0000   1.0000   1.0000   1.0000   1.0000   1.0000   1.0000
    -0.0000  -0.0000  -0.0000  -0.0000  -0.0000

          k = 0.0000 0.0000 0.1354 ( 12125 PWs)   bands (ev):

   -49.8393 -26.0473 -25.7940 -25.7190 -12.3729  -9.4983  -8.8608   0.6909
     2.4862   2.7075   2.8472   3.0637   3.4491   3.8241   4.1570   4.2476
     5.5184   7.2184   7.3888   8.6936   9.4828

     occupation numbers 
     1.0000   1.0000   1.0000   1.0000   1.0000   1.0000   1.0000   1.0000
     1.0000   1.0000   1.0000   1.0000   1.0000   1.0000   1.0000   1.0000
     1.0000  -0.0000  -0.0000  -0.0000  -0.0000

          k = 0.7487 0.4293 0.2031 ( 12170 PWs)   bands (ev):

   -49.8251 -26.1244 -25.8991 -25.7579 -11.6395  -8.9556  -8.8228   1.0548
     1.2129   1.4169   1.4944   1.9873   2.4660   2.6474   3.7011   4.0561
     7.7703   8.0331   8.1766   9.5492  11.0209

     occupation numbers 
     1.0000   1.0000   1.0000   1.0000   1.0000   1.0000   1.0000   1.0000
     1.0000   1.0000   1.0000   1.0000   1.0000   1.0000   1.0000   1.0000
    -0.0000  -0.0000  -0.0000  -0.0000  -0.0000

          k = 0.9983 0.6440 0.2031 ( 12179 PWs)   bands (ev):

   -49.8218 -26.1846 -25.9273 -25.7500 -11.1140  -8.9136  -8.7074  -0.0499
     0.7855   0.8763   1.6388   1.8495   2.2283   2.6378   3.2896   3.9755
     8.4587   8.7772   9.0292   9.7161  11.2713

     occupation numbers 
     1.0000   1.0000   1.0000   1.0000   1.0000   1.0000   1.0000   1.0000
     1.0000   1.0000   1.0000   1.0000   1.0000   1.0000   1.0000   1.0000
    -0.0000  -0.0000  -0.0000  -0.0000  -0.0000

          k = 1.2479 0.8586 0.2031 ( 12154 PWs)   bands (ev):

   -49.8235 -26.2133 -25.8955 -25.7546 -10.8969  -8.9075  -8.7848  -0.5621
     0.7984   1.2092   1.5364   1.7013   2.3613   2.4077   3.4285   3.8180
     7.9152   9.1978   9.4326   9.5155  11.3795

     occupation numbers 
     1.0000   1.0000   1.0000   1.0000   1.0000   1.0000   1.0000   1.0000
     1.0000   1.0000   1.0000   1.0000   1.0000   1.0000   1.0000   1.0000
    -0.0000  -0.0000  -0.0000  -0.0000  -0.0000

          k =-0.4991-0.6440 0.2031 ( 12177 PWs)   bands (ev):

   -49.8291 -26.1947 -25.8217 -25.7692 -11.1661  -9.0468  -8.8928  -0.0923
     1.2935   1.3919   1.6098   1.9227   2.1559   2.9692   3.6282   3.8545
     6.9054   8.8920   9.1166   9.1880  11.4063

     occupation numbers 
     1.0000   1.0000   1.0000   1.0000   1.0000   1.0000   1.0000   1.0000
     1.0000   1.0000   1.0000   1.0000   1.0000   1.0000   1.0000   1.0000
    -0.0332  -0.0000  -0.0000  -0.0000  -0.0000

          k = 0.0000-0.2147 0.2031 ( 12117 PWs)   bands (ev):

   -49.8388 -26.0750 -25.7931 -25.7182 -12.1944  -9.4469  -8.8952   0.8092
     2.1048   2.4371   2.5281   3.1488   3.2845   3.5651   4.0600   4.0882
     5.5456   7.6431   7.6918   8.7597   9.9090

     occupation numbers 
     1.0000   1.0000   1.0000   1.0000   1.0000   1.0000   1.0000   1.0000
     1.0000   1.0000   1.0000   1.0000   1.0000   1.0000   1.0000   1.0000
     1.0000  -0.0000  -0.0000  -0.0000  -0.0000

          k = 0.2496 0.0000 0.2031 ( 12145 PWs)   bands (ev):

   -49.8371 -26.0448 -25.7884 -25.7510 -12.3554  -9.3936  -8.8909   0.9208
     2.2510   2.5877   2.8887   3.0463   3.1787   3.7029   3.9616   4.0512
     5.9717   7.1076   7.3453   8.6987   9.8669

     occupation numbers 
     1.0000   1.0000   1.0000   1.0000   1.0000   1.0000   1.0000   1.0000
     1.0000   1.0000   1.0000   1.0000   1.0000   1.0000   1.0000   1.0000
     1.0000  -0.0000  -0.0000  -0.0000  -0.0000

          k = 0.9983 0.4293 0.2708 ( 12166 PWs)   bands (ev):

   -49.8230 -26.1216 -25.9299 -25.7523 -11.6232  -8.9423  -8.7391   0.7521
     1.2197   1.2472   1.5047   1.8568   2.6231   2.8717   3.5259   4.0539
     7.8627   8.1256   8.4462   9.7086  10.9203

     occupation numbers 
     1.0000   1.0000   1.0000   1.0000   1.0000   1.0000   1.0000   1.0000
     1.0000   1.0000   1.0000   1.0000   1.0000   1.0000   1.0000   1.0000
    -0.0000  -0.0000  -0.0000  -0.0000  -0.0000

          k = 1.2479 0.6440 0.2708 ( 12163 PWs)   bands (ev):

   -49.8240 -26.1876 -25.8966 -25.7556 -11.1293  -8.9277  -8.7894  -0.0628
     0.9542   1.1696   1.4813   1.8170   2.4211   2.4706   3.5063   3.8807
     7.9040   8.8273   9.0657   9.4933  11.2900

     occupation numbers 
     1.0000   1.0000   1.0000   1.0000   1.0000   1.0000   1.0000   1.0000
     1.0000   1.0000   1.0000   1.0000   1.0000   1.0000   1.0000   1.0000
    -0.0000  -0.0000  -0.0000  -0.0000  -0.0000

          k = 1.4974 0.8586 0.2708 ( 12186 PWs)   bands (ev):

   -49.8286 -26.2206 -25.8207 -25.7682 -10.9320  -8.9937  -8.9230  -0.5879
     1.1941   1.2076   1.7075   1.8070   2.1933   2.9472   3.5713   3.7594
     6.9355   8.9463   9.4422   9.5132  11.4809

     occupation numbers 
     1.0000   1.0000   1.0000   1.0000   1.0000   1.0000   1.0000   1.0000
     1.0000   1.0000   1.0000   1.0000   1.0000   1.0000   1.0000   1.0000
    -0.0284  -0.0000  -0.0000  -0.0000  -0.0000

          k = 0.0000-0.4293 0.2708 ( 12158 PWs)   bands (ev):

   -49.8376 -26.1406 -25.7907 -25.7160 -11.7336  -9.3530  -8.9388   0.8931
     1.1480   1.5773   2.5886   2.6209   2.9056   3.3849   3.9243   4.1564
     5.5965   8.4188   8.5370   8.8322  10.5423

     occupation numbers 
     1.0000   1.0000   1.0000   1.0000   1.0000   1.0000   1.0000   1.0000
     1.0000   1.0000   1.0000   1.0000   1.0000   1.0000   1.0000   1.0000
     1.0000  -0.0000  -0.0000  -0.0000  -0.0000

          k = 0.2496-0.2147 0.2708 ( 12146 PWs)   bands (ev):

   -49.8367 -26.0724 -25.7875 -25.7501 -12.1771  -9.3390  -8.9267   1.0415
     2.1067   2.2761   2.4760   2.8365   3.1163   3.4564   3.7870   4.1164
     6.0130   7.5136   7.6518   8.7190  10.2812

     occupation numbers 
     1.0000   1.0000   1.0000   1.0000   1.0000   1.0000   1.0000   1.0000
     1.0000   1.0000   1.0000   1.0000   1.0000   1.0000   1.0000   1.0000
     1.0000  -0.0000  -0.0000  -0.0000  -0.0000

          k = 0.4991 0.0000 0.2708 ( 12154 PWs)   bands (ev):

   -49.8320 -26.0387 -25.8274 -25.7749 -12.3138  -9.1895  -8.8911   1.1627
     1.7818   2.0215   2.5640   2.9885   3.4484   3.5476   3.8514   3.8687
     6.8510   6.8897   7.1132   8.9176  10.0379

     occupation numbers 
     1.0000   1.0000   1.0000   1.0000   1.0000   1.0000   1.0000   1.0000
     1.0000   1.0000   1.0000   1.0000   1.0000   1.0000   1.0000   1.0000
     0.1598  -0.0149  -0.0000  -0.0000  -0.0000

          k =-1.9966-0.6440-0.2031 ( 12169 PWs)   bands (ev):

   -49.8364 -26.2048 -25.7882 -25.7139 -11.2168  -9.2661  -8.9742  -0.1337
     0.8484   1.3886   2.1981   2.5652   2.6340   3.2617   3.8690   4.1472
     5.6445   8.8663   9.2183   9.3633  10.9065

     occupation numbers 
     1.0000   1.0000   1.0000   1.0000   1.0000   1.0000   1.0000   1.0000
     1.0000   1.0000   1.0000   1.0000   1.0000   1.0000   1.0000   1.0000
     1.0000  -0.0000  -0.0000  -0.0000  -0.0000

          k =-1.7470-0.4293-0.2031 ( 12164 PWs)   bands (ev):

   -49.8355 -26.1378 -25.7851 -25.7479 -11.7172  -9.2453  -8.9665   1.0157
     1.2522   1.7371   1.9961   2.5364   2.8769   3.3802   3.4251   4.2219
     6.0707   8.3821   8.4124   8.7741  10.8698

     occupation numbers 
     1.0000   1.0000   1.0000   1.0000   1.0000   1.0000   1.0000   1.0000
     1.0000   1.0000   1.0000   1.0000   1.0000   1.0000   1.0000   1.0000
     1.0000  -0.0000  -0.0000  -0.0000  -0.0000

          k =-1.4974-0.2147-0.2031 ( 12140 PWs)   bands (ev):

   -49.8315 -26.0661 -25.8264 -25.7739 -12.1362  -9.1552  -8.9014   1.1943
     1.6755   1.9702   2.3826   2.5458   3.0368   3.2489   3.7872   4.1078
     6.8976   7.2560   7.4645   8.8523  10.3976

     occupation numbers 
     1.0000   1.0000   1.0000   1.0000   1.0000   1.0000   1.0000   1.0000
     1.0000   1.0000   1.0000   1.0000   1.0000   1.0000   1.0000   1.0000
    -0.0269  -0.0000  -0.0000  -0.0000  -0.0000

          k =-1.2479 0.0000-0.2031 ( 12202 PWs)   bands (ev):

   -49.8268 -26.0326 -25.9027 -25.7612 -12.2726  -9.0475  -8.8105   0.9303
     1.1503   2.0138   2.2735   3.1301   3.5596   3.5722   3.7951   3.8477
     6.7426   6.7750   7.8843   9.3388   9.8462

     occupation numbers 
     1.0000   1.0000   1.0000   1.0000   1.0000   1.0000   1.0000   1.0000
     1.0000   1.0000   1.0000   1.0000   1.0000   1.0000   1.0000   1.0000
     1.0080   0.8610  -0.0000  -0.0000  -0.0000

          k = 0.0000 0.8586-0.1354 ( 12137 PWs)   bands (ev):

   -49.8359 -26.2310 -25.7872 -25.7131 -10.9804  -9.2685  -8.9476  -0.6241
     0.7415   1.1804   2.3358   2.4400   2.6284   3.1827   3.8915   4.0989
     5.6563   8.8444   9.5876   9.7016  10.9159

     occupation numbers 
     1.0000   1.0000   1.0000   1.0000   1.0000   1.0000   1.0000   1.0000
     1.0000   1.0000   1.0000   1.0000   1.0000   1.0000   1.0000   1.0000
     1.0000  -0.0000  -0.0000  -0.0000  -0.0000

          k =-1.7470-0.6440-0.1354 ( 12171 PWs)   bands (ev):

   -49.8343 -26.2019 -25.7827 -25.7457 -11.2018  -9.1656  -8.9906  -0.1225
     1.0347   1.4546   1.8635   2.2213   2.9257   3.1775   3.3416   4.1507
     6.1079   8.7592   9.2307   9.2584  11.1733

     occupation numbers 
     1.0000   1.0000   1.0000   1.0000   1.0000   1.0000   1.0000   1.0000
     1.0000   1.0000   1.0000   1.0000   1.0000   1.0000   1.0000   1.0000
     1.0000  -0.0000  -0.0000  -0.0000  -0.0000

          k =-1.4974-0.4293-0.1354 ( 12163 PWs)   bands (ev):

   -49.8303 -26.1311 -25.8240 -25.7715 -11.6782  -9.0844  -8.9139   1.0907
     1.2723   1.6252   1.7929   1.9916   2.6082   3.1197   3.6033   4.0715
     6.9533   8.1453   8.2992   8.8567  10.9652

     occupation numbers 
     1.0000   1.0000   1.0000   1.0000   1.0000   1.0000   1.0000   1.0000
     1.0000   1.0000   1.0000   1.0000   1.0000   1.0000   1.0000   1.0000
    -0.0185  -0.0000  -0.0000  -0.0000  -0.0000

          k =-1.2479-0.2147-0.1354 ( 12175 PWs)   bands (ev):

   -49.8263 -26.0598 -25.9017 -25.7603 -12.0956  -9.0420  -8.7901   0.9385
     1.1152   1.7949   2.2948   2.6434   3.0110   3.3690   3.8087   3.9756
     7.0704   7.2212   7.9212   9.2829  10.1737

     occupation numbers 
     1.0000   1.0000   1.0000   1.0000   1.0000   1.0000   1.0000   1.0000
     1.0000   1.0000   1.0000   1.0000   1.0000   1.0000   1.0000   1.0000
    -0.0000  -0.0000  -0.0000  -0.0000  -0.0000

          k =-0.9983 0.0000-0.1354 ( 12175 PWs)   bands (ev):

   -49.8246 -26.0301 -25.9337 -25.7555 -12.2556  -8.9823  -8.7830   0.6782
     1.2578   1.9078   2.0690   3.3070   3.4175   3.5178   3.7575   3.9207
     6.6144   6.7402   8.4204   9.6036   9.9517

     occupation numbers 
     1.0000   1.0000   1.0000   1.0000   1.0000   1.0000   1.0000   1.0000
     1.0000   1.0000   1.0000   1.0000   1.0000   1.0000   1.0000   1.0000
     1.0014   1.0131  -0.0000  -0.0000  -0.0000

          k = 0.0000 0.6440-0.0677 ( 12143 PWs)   bands (ev):

   -49.8364 -26.2048 -25.7882 -25.7139 -11.2177  -9.3446  -8.8837  -0.1311
     0.8314   1.0149   2.5677   2.5826   2.8021   3.2213   3.9574   4.0287
     5.6290   8.7776   9.2482   9.3642  10.6653

     occupation numbers 
     1.0000   1.0000   1.0000   1.0000   1.0000   1.0000   1.0000   1.0000
     1.0000   1.0000   1.0000   1.0000   1.0000   1.0000   1.0000   1.0000
     1.0000  -0.0000  -0.0000  -0.0000  -0.0000

          k = 0.2496 0.8586-0.0677 ( 12173 PWs)   bands (ev):

   -49.8338 -26.2280 -25.7817 -25.7448 -10.9664  -9.1901  -8.9401  -0.6135
     0.9132   1.2190   1.9489   2.1439   2.9878   3.1505   3.3552   4.0381
     6.1007   8.7745   9.5874   9.5996  11.2018

     occupation numbers 
     1.0000   1.0000   1.0000   1.0000   1.0000   1.0000   1.0000   1.0000
     1.0000   1.0000   1.0000   1.0000   1.0000   1.0000   1.0000   1.0000
     1.0000  -0.0000  -0.0000  -0.0000  -0.0000

          k =-1.4974-0.6440-0.0677 ( 12172 PWs)   bands (ev):

   -49.8291 -26.1947 -25.8217 -25.7692 -11.1656  -8.9992  -8.9412  -0.0936
     1.2276   1.2968   1.7545   1.7781   2.3689   3.0297   3.5150   3.8705
     6.9666   8.8545   9.0541   9.1764  11.3102

     occupation numbers 
     1.0000   1.0000   1.0000   1.0000   1.0000   1.0000   1.0000   1.0000
     1.0000   1.0000   1.0000   1.0000   1.0000   1.0000   1.0000   1.0000
    -0.0121  -0.0000  -0.0000  -0.0000  -0.0000

          k =-1.2479-0.4293-0.0677 ( 12169 PWs)   bands (ev):

   -49.8251 -26.1244 -25.8991 -25.7579 -11.6392  -9.0037  -8.7690   0.9807
     1.1500   1.1988   1.3877   2.1670   2.7623   2.9143   3.7141   3.8461
     7.9291   7.9609   8.1830   9.2900  10.7438

     occupation numbers 
     1.0000   1.0000   1.0000   1.0000   1.0000   1.0000   1.0000   1.0000
     1.0000   1.0000   1.0000   1.0000   1.0000   1.0000   1.0000   1.0000
    -0.0000  -0.0000  -0.0000  -0.0000  -0.0000

          k =-0.9983-0.2147-0.0677 ( 12179 PWs)   bands (ev):

   -49.8242 -26.0572 -25.9326 -25.7546 -12.0789  -8.9707  -8.7703   0.7202
     1.2615   1.7173   2.0567   2.6918   2.8937   3.3671   3.8209   3.9307
     7.0300   7.1217   8.4352   9.7415  10.2327

     occupation numbers 
     1.0000   1.0000   1.0000   1.0000   1.0000   1.0000   1.0000   1.0000
     1.0000   1.0000   1.0000   1.0000   1.0000   1.0000   1.0000   1.0000
    -0.0006  -0.0000  -0.0000  -0.0000  -0.0000

          k =-0.7487 0.0000-0.0677 ( 12188 PWs)   bands (ev):

   -49.8268 -26.0326 -25.9028 -25.7612 -12.2729  -8.9680  -8.8979   1.0779
     1.5379   1.8232   2.0335   3.2099   3.3594   3.6117   3.6721   3.6902
     6.8012   6.8258   7.8065   9.7081  10.0535

     occupation numbers 
     1.0000   1.0000   1.0000   1.0000   1.0000   1.0000   1.0000   1.0000
     1.0000   1.0000   1.0000   1.0000   1.0000   1.0000   1.0000   1.0000
     0.6361   0.3838  -0.0000  -0.0000  -0.0000

          k = 0.0000 0.4293 0.0000 ( 12139 PWs)   bands (ev):

   -49.8376 -26.1406 -25.7906 -25.7160 -11.7347  -9.4312  -8.8446   0.7312
     1.1127   1.3882   2.5228   2.9112   3.3686   3.3951   3.8851   4.0411
     5.5791   8.4377   8.5392   8.7060  10.2293

     occupation numbers 
     1.0000   1.0000   1.0000   1.0000   1.0000   1.0000   1.0000   1.0000
     1.0000   1.0000   1.0000   1.0000   1.0000   1.0000   1.0000   1.0000
     1.0000  -0.0000  -0.0000  -0.0000  -0.0000

          k = 0.2496 0.6440 0.0000 ( 12153 PWs)   bands (ev):

   -49.8343 -26.2019 -25.7826 -25.7457 -11.2028  -9.2673  -8.8780  -0.1196
     1.0561   1.0625   2.1003   2.2276   3.1492   3.2011   3.5027   3.9377
     6.0574   8.7551   9.2450   9.2480  11.0182

     occupation numbers 
     1.0000   1.0000   1.0000   1.0000   1.0000   1.0000   1.0000   1.0000
     1.0000   1.0000   1.0000   1.0000   1.0000   1.0000   1.0000   1.0000
     1.0000  -0.0000  -0.0000  -0.0000  -0.0000

          k = 0.4991 0.8586 0.0000 ( 12181 PWs)   bands (ev):

   -49.8286 -26.2206 -25.8207 -25.7682 -10.9320  -8.9936  -8.9230  -0.5879
     1.1698   1.2329   1.7447   1.7806   2.1644   2.9708   3.5898   3.7342
     6.9363   8.9661   9.4044   9.5284  11.4570

     occupation numbers 
     1.0000   1.0000   1.0000   1.0000   1.0000   1.0000   1.0000   1.0000
     1.0000   1.0000   1.0000   1.0000   1.0000   1.0000   1.0000   1.0000
    -0.0280  -0.0000  -0.0000  -0.0000  -0.0000

          k =-1.2479-0.6440 0.0000 ( 12181 PWs)   bands (ev):

   -49.8240 -26.1876 -25.8966 -25.7556 -11.1292  -8.9508  -8.7639  -0.0630
     0.9099   1.1743   1.2581   1.9517   2.5439   2.6090   3.5071   3.7731
     7.9415   8.8544   9.0690   9.3661  11.1309

     occupation numbers 
     1.0000   1.0000   1.0000   1.0000   1.0000   1.0000   1.0000   1.0000
     1.0000   1.0000   1.0000   1.0000   1.0000   1.0000   1.0000   1.0000
    -0.0000  -0.0000  -0.0000  -0.0000  -0.0000

          k =-0.9983-0.4293 0.0000 ( 12173 PWs)   bands (ev):

   -49.8230 -26.1216 -25.9299 -25.7523 -11.6232  -8.9423  -8.7391   0.7795
     1.2208   1.2510   1.3634   2.0244   2.6669   2.7336   3.5783   4.0368
     7.8452   8.1224   8.4593   9.7552  10.8809

     occupation numbers 
     1.0000   1.0000   1.0000   1.0000   1.0000   1.0000   1.0000   1.0000
     1.0000   1.0000   1.0000   1.0000   1.0000   1.0000   1.0000   1.0000
    -0.0000  -0.0000  -0.0000  -0.0000  -0.0000

          k =-0.7487-0.2147 0.0000 ( 12171 PWs)   bands (ev):

   -49.8263 -26.0598 -25.9017 -25.7602 -12.0960  -8.9367  -8.9049   1.1177
     1.6336   1.6839   2.0070   2.5845   2.7264   3.1000   3.8500   4.0130
     7.0983   7.2348   7.8381   9.7177  10.5042

     occupation numbers 
     1.0000   1.0000   1.0000   1.0000   1.0000   1.0000   1.0000   1.0000
     1.0000   1.0000   1.0000   1.0000   1.0000   1.0000   1.0000   1.0000
    -0.0000  -0.0000  -0.0000  -0.0000  -0.0000

          k =-0.4991 0.0000 0.0000 ( 12159 PWs)   bands (ev):

   -49.8320 -26.0387 -25.8274 -25.7748 -12.3144  -9.2164  -8.8633   1.1946
     1.8890   2.1483   2.4035   3.1023   3.2592   3.4351   3.7587   3.9258
     6.7585   6.9655   7.0885   9.1812  10.1439

     occupation numbers 
     1.0000   1.0000   1.0000   1.0000   1.0000   1.0000   1.0000   1.0000
     1.0000   1.0000   1.0000   1.0000   1.0000   1.0000   1.0000   1.0000
     0.9548  -0.0126  -0.0000  -0.0000  -0.0000

          k = 0.9983 0.8586 0.2708 ( 12188 PWs)   bands (ev):

   -49.8213 -26.2103 -25.9262 -25.7490 -10.8822  -8.9015  -8.6941  -0.5514
     0.6401   0.8915   1.8059   1.8908   1.9076   2.5916   3.1828   3.9341
     8.4658   9.1890   9.3995   9.7053  11.3677

     occupation numbers 
     1.0000   1.0000   1.0000   1.0000   1.0000   1.0000   1.0000   1.0000
     1.0000   1.0000   1.0000   1.0000   1.0000   1.0000   1.0000   1.0000
    -0.0000  -0.0000  -0.0000  -0.0000  -0.0000

          k = 0.0000 0.0000 0.2708 ( 12121 PWs)   bands (ev):

   -49.8393 -26.0473 -25.7941 -25.7190 -12.3721  -9.4326  -8.9414   0.9130
     2.5510   2.5793   2.8128   3.1769   3.4078   3.5802   4.0345   4.1664
     5.5434   7.2188   7.4603   8.8180   9.6904

     occupation numbers 
     1.0000   1.0000   1.0000   1.0000   1.0000   1.0000   1.0000   1.0000
     1.0000   1.0000   1.0000   1.0000   1.0000   1.0000   1.0000   1.0000
     1.0000  -0.0000  -0.0000  -0.0000  -0.0000

          k = 0.0000-0.2147 0.3385 ( 12164 PWs)   bands (ev):

   -49.8388 -26.0750 -25.7931 -25.7182 -12.1935  -9.3644  -8.9929   1.0679
     2.1595   2.4321   2.5993   2.7736   3.2557   3.4552   3.9901   4.0876
     5.5627   7.6427   7.7340   8.8841  10.1515

     occupation numbers 
     1.0000   1.0000   1.0000   1.0000   1.0000   1.0000   1.0000   1.0000
     1.0000   1.0000   1.0000   1.0000   1.0000   1.0000   1.0000   1.0000
     1.0000  -0.0000  -0.0000  -0.0000  -0.0000

          k = 0.2496 0.0000 0.3385 ( 12138 PWs)   bands (ev):

   -49.8371 -26.0448 -25.7885 -25.7510 -12.3546  -9.3235  -8.9721   1.1434
     2.1080   2.5775   2.8457   2.9609   3.3165   3.6556   3.9118   3.9292
     6.0341   7.0902   7.3999   8.7099   9.9475

     occupation numbers 
     1.0000   1.0000   1.0000   1.0000   1.0000   1.0000   1.0000   1.0000
     1.0000   1.0000   1.0000   1.0000   1.0000   1.0000   1.0000   1.0000
     1.0000  -0.0000  -0.0000  -0.0000  -0.0000

          k =-1.9966-0.4293-0.1354 ( 12189 PWs)   bands (ev):

   -49.8376 -26.1406 -25.7907 -25.7160 -11.7329  -9.2638  -9.0393   0.9856
     1.2746   1.6927   2.3268   2.6438   2.8985   3.1203   3.8377   4.3115
     5.6074   8.4265   8.5366   8.9199  10.7410

     occupation numbers 
     1.0000   1.0000   1.0000   1.0000   1.0000   1.0000   1.0000   1.0000
     1.0000   1.0000   1.0000   1.0000   1.0000   1.0000   1.0000   1.0000
     1.0000  -0.0000  -0.0000  -0.0000  -0.0000

          k =-1.7470-0.2147-0.1354 ( 12147 PWs)   bands (ev):

   -49.8367 -26.0724 -25.7875 -25.7501 -12.1764  -9.2587  -9.0166   1.2844
     1.9216   2.3531   2.4557   2.7757   3.0843   3.3920   3.6998   4.1403
     6.0643   7.5084   7.6722   8.7485  10.3618

     occupation numbers 
     1.0000   1.0000   1.0000   1.0000   1.0000   1.0000   1.0000   1.0000
     1.0000   1.0000   1.0000   1.0000   1.0000   1.0000   1.0000   1.0000
     1.0000  -0.0000  -0.0000  -0.0000  -0.0000

          k =-1.4974 0.0000-0.1354 ( 12156 PWs)   bands (ev):

   -49.8320 -26.0387 -25.8274 -25.7749 -12.3134  -9.1669  -8.9144   1.1756
     1.5850   2.0911   2.6139   2.9449   3.5768   3.6358   3.7969   3.8957
     6.8471   6.9320   7.1196   8.7492   9.9410

     occupation numbers 
     1.0000   1.0000   1.0000   1.0000   1.0000   1.0000   1.0000   1.0000
     1.0000   1.0000   1.0000   1.0000   1.0000   1.0000   1.0000   1.0000
     0.1896  -0.0302  -0.0000  -0.0000  -0.0000

          k = 0.0000 1.0733-0.0677 ( 12170 PWs)   bands (ev):

   -49.8364 -26.2048 -25.7883 -25.7139 -11.2164  -9.2130  -9.0323  -0.1348
     1.0099   1.2547   2.3724   2.5654   2.6558   2.8977   3.8311   4.2951
     5.6446   8.9033   9.2246   9.3625  10.9452

     occupation numbers 
     1.0000   1.0000   1.0000   1.0000   1.0000   1.0000   1.0000   1.0000
     1.0000   1.0000   1.0000   1.0000   1.0000   1.0000   1.0000   1.0000
     1.0000  -0.0000  -0.0000  -0.0000  -0.0000

          k =-1.7470-0.4293-0.0677 ( 12175 PWs)   bands (ev):

   -49.8355 -26.1378 -25.7851 -25.7479 -11.7167  -9.1597  -9.0580   1.0370
     1.4383   1.6989   1.9086   2.4807   2.9666   3.2238   3.3350   4.3035
     6.1007   8.3598   8.4135   8.8150  10.9402

     occupation numbers 
     1.0000   1.0000   1.0000   1.0000   1.0000   1.0000   1.0000   1.0000
     1.0000   1.0000   1.0000   1.0000   1.0000   1.0000   1.0000   1.0000
     1.0000  -0.0000  -0.0000  -0.0000  -0.0000

          k =-1.4974-0.2147-0.0677 ( 12154 PWs)   bands (ev):

   -49.8315 -26.0661 -25.8264 -25.7739 -12.1359  -9.1362  -8.9210   1.2142
     1.5261   1.9763   2.4456   2.5481   3.1178   3.3089   3.7219   4.1302
     6.9656   7.2447   7.4613   8.7323  10.3153

     occupation numbers 
     1.0000   1.0000   1.0000   1.0000   1.0000   1.0000   1.0000   1.0000
     1.0000   1.0000   1.0000   1.0000   1.0000   1.0000   1.0000   1.0000
    -0.0125  -0.0000  -0.0000  -0.0000  -0.0000

          k =-1.2479 0.0000-0.0677 ( 12165 PWs)   bands (ev):

   -49.8268 -26.0326 -25.9027 -25.7612 -12.2724  -9.0666  -8.7882   0.8958
     1.0355   2.0157   2.3833   3.1038   3.5686   3.6477   3.8300   3.9019
     6.7093   6.7620   7.9282   9.2047   9.7326

     occupation numbers 
     1.0000   1.0000   1.0000   1.0000   1.0000   1.0000   1.0000   1.0000
     1.0000   1.0000   1.0000   1.0000   1.0000   1.0000   1.0000   1.0000
     1.0349   0.9381  -0.0000  -0.0000  -0.0000

          k = 0.0000 0.8586 0.0000 ( 12151 PWs)   bands (ev):

   -49.8359 -26.2310 -25.7872 -25.7131 -10.9804  -9.2684  -8.9477  -0.6241
     0.8456   1.0058   2.4401   2.6283   2.7269   2.7861   3.8915   4.1809
     5.6517   8.8444   9.5978   9.7015  10.8751

     occupation numbers 
     1.0000   1.0000   1.0000   1.0000   1.0000   1.0000   1.0000   1.0000
     1.0000   1.0000   1.0000   1.0000   1.0000   1.0000   1.0000   1.0000
     1.0000  -0.0000  -0.0000  -0.0000  -0.0000

          k = 0.2496 1.0733 0.0000 ( 12164 PWs)   bands (ev):

   -49.8343 -26.2019 -25.7827 -25.7457 -11.2016  -9.1287  -9.0293  -0.1230
     1.1501   1.3037   2.0002   2.1467   3.0128   3.1083   3.2326   4.2048
     6.1146   8.7533   9.2466   9.2557  11.1927

     occupation numbers 
     1.0000   1.0000   1.0000   1.0000   1.0000   1.0000   1.0000   1.0000
     1.0000   1.0000   1.0000   1.0000   1.0000   1.0000   1.0000   1.0000
     1.0000  -0.0000  -0.0000  -0.0000  -0.0000

          k =-1.4974-0.4293 0.0000 ( 12157 PWs)   bands (ev):

   -49.8303 -26.1311 -25.8240 -25.7716 -11.6780  -9.0721  -8.9264   1.0891
     1.2622   1.5919   1.7561   2.0243   2.7034   3.1153   3.5666   4.0753
     6.9813   8.1614   8.2881   8.8029  10.9225

     occupation numbers 
     1.0000   1.0000   1.0000   1.0000   1.0000   1.0000   1.0000   1.0000
     1.0000   1.0000   1.0000   1.0000   1.0000   1.0000   1.0000   1.0000
    -0.0069  -0.0000  -0.0000  -0.0000  -0.0000

          k =-1.2479-0.2147 0.0000 ( 12169 PWs)   bands (ev):

   -49.8263 -26.0598 -25.9017 -25.7603 -12.0955  -9.0514  -8.7790   0.9262
     1.0509   1.7843   2.3460   2.6422   3.0578   3.4151   3.8279   3.9416
     7.0643   7.2197   7.9447   9.2102  10.1090

     occupation numbers 
     1.0000   1.0000   1.0000   1.0000   1.0000   1.0000   1.0000   1.0000
     1.0000   1.0000   1.0000   1.0000   1.0000   1.0000   1.0000   1.0000
    -0.0001  -0.0000  -0.0000  -0.0000  -0.0000

          k =-0.9983 0.0000 0.0000 ( 12191 PWs)   bands (ev):

   -49.8246 -26.0301 -25.9337 -25.7555 -12.2556  -8.9823  -8.7830   0.6986
     1.2061   1.9216   2.0976   3.3068   3.4179   3.5364   3.7241   3.9203
     6.6219   6.7326   8.4237   9.7606   9.7863

     occupation numbers 
     1.0000   1.0000   1.0000   1.0000   1.0000   1.0000   1.0000   1.0000
     1.0000   1.0000   1.0000   1.0000   1.0000   1.0000   1.0000   1.0000
     1.0021   1.0255  -0.0000  -0.0000  -0.0000

          k = 0.0000 0.0000 0.4061 ( 12117 PWs)   bands (ev):

   -49.8393 -26.0473 -25.7941 -25.7190 -12.3713  -9.3336  -9.0553   1.2308
     2.3101   2.6293   2.7915   3.3079   3.3495   3.4056   3.8833   4.0915
     5.5522   7.2191   7.5303   8.9420   9.8716

     occupation numbers 
     1.0000   1.0000   1.0000   1.0000   1.0000   1.0000   1.0000   1.0000
     1.0000   1.0000   1.0000   1.0000   1.0000   1.0000   1.0000   1.0000
     1.0000  -0.0000  -0.0000  -0.0000  -0.0000

          k =-1.9966-0.2147-0.0677 ( 12164 PWs)   bands (ev):

   -49.8388 -26.0750 -25.7931 -25.7182 -12.1929  -9.2568  -9.1111   1.3444
     2.1525   2.4120   2.4897   2.6600   3.2253   3.3879   3.9219   4.0899
     5.5709   7.6425   7.7693   8.9719  10.3094

     occupation numbers 
     1.0000   1.0000   1.0000   1.0000   1.0000   1.0000   1.0000   1.0000
     1.0000   1.0000   1.0000   1.0000   1.0000   1.0000   1.0000   1.0000
     1.0000  -0.0000  -0.0000  -0.0000  -0.0000

          k =-1.7470 0.0000-0.0677 ( 12142 PWs)   bands (ev):

   -49.8371 -26.0448 -25.7885 -25.7510 -12.3541  -9.2419  -9.0615   1.4385
     1.8051   2.6748   2.8247   2.8623   3.4423   3.6547   3.8057   3.8453
     6.0697   7.0816   7.4343   8.7469   9.9728

     occupation numbers 
     1.0000   1.0000   1.0000   1.0000   1.0000   1.0000   1.0000   1.0000
     1.0000   1.0000   1.0000   1.0000   1.0000   1.0000   1.0000   1.0000
     1.0000  -0.0000  -0.0000  -0.0000  -0.0000

          k = 0.0000 1.2879 0.0000 ( 12185 PWs)   bands (ev):

   -49.8376 -26.1406 -25.7907 -25.7160 -11.7326  -9.1638  -9.1439   1.0072
     1.4257   1.6464   2.2626   2.6699   2.8940   2.9756   3.8005   4.3656
     5.6116   8.4339   8.5366   8.9561  10.8175

     occupation numbers 
     1.0000   1.0000   1.0000   1.0000   1.0000   1.0000   1.0000   1.0000
     1.0000   1.0000   1.0000   1.0000   1.0000   1.0000   1.0000   1.0000
     1.0000  -0.0000  -0.0000  -0.0000  -0.0000

          k =-1.7470-0.2147 0.0000 ( 12152 PWs)   bands (ev):

   -49.8367 -26.0724 -25.7875 -25.7501 -12.1761  -9.1958  -9.0835   1.5013
     1.7110   2.4040   2.4265   2.7831   3.0739   3.3564   3.6610   4.1460
     6.0842   7.5066   7.6789   8.7706  10.3843

     occupation numbers 
     1.0000   1.0000   1.0000   1.0000   1.0000   1.0000   1.0000   1.0000
     1.0000   1.0000   1.0000   1.0000   1.0000   1.0000   1.0000   1.0000
     1.0000  -0.0000  -0.0000  -0.0000  -0.0000

          k =-1.4974 0.0000 0.0000 ( 12179 PWs)   bands (ev):

   -49.8320 -26.0387 -25.8274 -25.7749 -12.3132  -9.1562  -8.9254   1.1975
     1.4954   2.1173   2.6305   2.9300   3.6782   3.6839   3.7102   3.9055
     6.8308   6.9703   7.1210   8.6816   9.8965

     occupation numbers 
     1.0000   1.0000   1.0000   1.0000   1.0000   1.0000   1.0000   1.0000
     1.0000   1.0000   1.0000   1.0000   1.0000   1.0000   1.0000   1.0000
     0.3346  -0.0106  -0.0000  -0.0000  -0.0000

          k =-1.9966-1.7173-0.5415 ( 12132 PWs)   bands (ev):

   -49.8393 -26.0473 -25.7941 -25.7190 -12.3710  -9.2476  -9.1474   1.4522
     2.0929   2.6679   2.7845   3.3178   3.3544   3.3825   3.7990   4.0625
     5.5526   7.2193   7.5590   8.9934   9.9375

     occupation numbers 
     1.0000   1.0000   1.0000   1.0000   1.0000   1.0000   1.0000   1.0000
     1.0000   1.0000   1.0000   1.0000   1.0000   1.0000   1.0000   1.0000
     1.0000  -0.0000  -0.0000  -0.0000  -0.0000

     the Fermi energy is     6.8145 ev

!    total energy              =    -534.96649569 Ry

     total all-electron energy =     -9636.856738 Ry
     estimated scf accuracy    <          3.0E-12 Ry
     smearing contrib. (-TS)   =      -0.00002614 Ry
     internal energy E=F+TS    =    -534.96646956 Ry

     The total energy is F=E-TS. E is the sum of the following terms:
     one-electron contribution =     -93.95755192 Ry
     hartree contribution      =      61.22506438 Ry
     xc contribution           =     -39.53455132 Ry
     ewald contribution        =    -135.48921389 Ry
     one-center paw contrib.   =    -327.21021681 Ry
      -> PAW hartree energy AE =      29.07255111 Ry
      -> PAW hartree energy PS =     -29.04249255 Ry
      -> PAW xc energy AE      =     -17.03513514 Ry
      -> PAW xc energy PS      =       7.41099856 Ry
      -> total E_H with PAW    =      61.25512293 Ry
      -> total E_XC with PAW   =     -49.15868789 Ry

     convergence has been achieved in  13 iterations

     Forces acting on atoms (cartesian axes, Ry/au):

     atom    1 type  1   force =     0.00000000    0.00000000    0.00000000
     atom    2 type  2   force =    -0.00000000   -0.00000000    0.03671353
     atom    3 type  2   force =    -0.00000000   -0.00000000   -0.03671353
     atom    4 type  3   force =    -0.00000000   -0.00000000    0.00000000
     The non-local contrib.  to forces
     atom    1 type  1   force =    -0.00000000   -0.00000000   -0.00000000
     atom    2 type  2   force =     0.00000000    0.00000000    0.06282164
     atom    3 type  2   force =    -0.00000000    0.00000000   -0.06282164
     atom    4 type  3   force =    -0.00000000   -0.00000000    0.00000000
     The ionic contribution  to forces
     atom    1 type  1   force =    -0.00000000   -0.00000000    0.00000000
     atom    2 type  2   force =     0.00000001    0.00000000  -10.07462875
     atom    3 type  2   force =    -0.00000001   -0.00000000   10.07462875
     atom    4 type  3   force =    -0.00000000   -0.00000000    0.00000000
     The local contribution  to forces
     atom    1 type  1   force =     0.00000000    0.00000000    0.00000000
     atom    2 type  2   force =     0.00000002   -0.00000003   10.04696507
     atom    3 type  2   force =    -0.00000002    0.00000003  -10.04696507
     atom    4 type  3   force =     0.00000000    0.00000000    0.00000000
     The core correction contribution to forces
     atom    1 type  1   force =     0.00000000    0.00000000    0.00000000
     atom    2 type  2   force =    -0.00000000    0.00000000    0.00155411
     atom    3 type  2   force =     0.00000000   -0.00000000   -0.00155411
     atom    4 type  3   force =     0.00000000    0.00000000    0.00000000
     The Hubbard contrib.    to forces
     atom    1 type  1   force =     0.00000000    0.00000000    0.00000000
     atom    2 type  2   force =     0.00000000    0.00000000    0.00000000
     atom    3 type  2   force =     0.00000000    0.00000000    0.00000000
     atom    4 type  3   force =     0.00000000    0.00000000    0.00000000
     The SCF correction term to forces
     atom    1 type  1   force =    -0.00000000   -0.00000000    0.00000000
     atom    2 type  2   force =    -0.00000000   -0.00000000    0.00000146
     atom    3 type  2   force =     0.00000000    0.00000000   -0.00000146
     atom    4 type  3   force =    -0.00000000   -0.00000000    0.00000000

     Total force =     0.051921     Total SCF correction =     0.000002


     Computing stress (Cartesian axis) and pressure

          total   stress  (Ry/bohr**3)                   (kbar)     P=      -39.34
  -0.00026461  -0.00000000   0.00000000          -38.93       -0.00        0.00
   0.00000000  -0.00026272  -0.00000000            0.00      -38.65       -0.00
   0.00000000   0.00000000  -0.00027501            0.00        0.00      -40.46

     kinetic stress (kbar)  14740.19     -0.00     -0.00
                               -0.00  14853.97     -0.00
                               -0.00     -0.00  14756.24

     local   stress (kbar) -18873.59      0.00      0.00
                                0.00 -24260.44      0.00
                                0.00      0.00   4126.77

     nonloc. stress (kbar)   8011.40      0.00      0.00
                                0.00   7930.71     -0.00
                               -0.00      0.00   8005.16

     hartree stress (kbar)   8368.56     -0.00     -0.00
                               -0.00  10129.01      0.00
                               -0.00      0.00  -2060.26

     exc-cor stress (kbar)  -1131.09     -0.00     -0.00
                               -0.00  -1121.05     -0.00
                               -0.00     -0.00  -1130.55

     corecor stress (kbar)  -2029.27      0.00      0.00
                                0.00  -2029.41      0.00
                                0.00      0.00  -2029.12

     ewald   stress (kbar)  -9125.13      0.00     -0.00
                                0.00  -5541.44     -0.00
                               -0.00     -0.00 -21708.70

     hubbard stress (kbar)      0.00      0.00      0.00
                                0.00      0.00      0.00
                                0.00      0.00      0.00

     DFT-D   stress (kbar)      0.00      0.00      0.00
                                0.00      0.00      0.00
                                0.00      0.00      0.00

     XDM     stress (kbar)      0.00      0.00      0.00
                                0.00      0.00      0.00
                                0.00      0.00      0.00

     dft-nl  stress (kbar)      0.00      0.00      0.00
                                0.00      0.00      0.00
                                0.00      0.00      0.00

     TS-vdW  stress (kbar)      0.00      0.00      0.00
                                0.00      0.00      0.00
                                0.00      0.00      0.00



     Writing output data file /zfs_data/gutierre/Scratch/Cl2NbO/smearing/8x8x8/0.006/tmp/Cl2NbO.save/
 
     init_run     :      2.97s CPU      3.16s WALL (       1 calls)
     electrons    :     63.79s CPU     66.01s WALL (       1 calls)
     forces       :      0.77s CPU      0.78s WALL (       1 calls)
     stress       :      1.76s CPU      1.77s WALL (       1 calls)

     Called by init_run:
     wfcinit      :      1.78s CPU      1.92s WALL (       1 calls)
     wfcinit:atom :      0.01s CPU      0.01s WALL (      95 calls)
     wfcinit:wfcr :      1.71s CPU      1.84s WALL (      95 calls)
     potinit      :      0.37s CPU      0.38s WALL (       1 calls)
     hinit0       :      0.46s CPU      0.48s WALL (       1 calls)

     Called by electrons:
     c_bands      :     49.36s CPU     51.11s WALL (      13 calls)
     sum_band     :     11.28s CPU     11.62s WALL (      13 calls)
     v_of_rho     :      1.24s CPU      1.31s WALL (      14 calls)
     v_h          :      0.10s CPU      0.13s WALL (      14 calls)
     v_xc         :      1.30s CPU      1.35s WALL (      16 calls)
     newd         :      1.06s CPU      1.08s WALL (      14 calls)
     PAW_pot      :      0.72s CPU      0.74s WALL (      14 calls)
     mix_rho      :      0.19s CPU      0.19s WALL (      13 calls)

     Called by c_bands:
     init_us_2    :      0.67s CPU      0.72s WALL (    2755 calls)
     cegterg      :     47.94s CPU     49.60s WALL (    1235 calls)

     Called by sum_band:
     sum_band:wei :      0.04s CPU      0.04s WALL (      13 calls)
     sum_band:loo :     10.01s CPU     10.30s WALL (      13 calls)
     sum_band:buf :      0.09s CPU      0.10s WALL (    1235 calls)
     sum_band:ini :      0.32s CPU      0.34s WALL (    1235 calls)
     sum_band:cal :      0.36s CPU      0.37s WALL (    1235 calls)
     sum_band:bec :      0.04s CPU      0.04s WALL (    1235 calls)
     addusdens    :      1.06s CPU      1.10s WALL (      13 calls)
     addusd:skk   :      0.01s CPU      0.01s WALL (      39 calls)
     addusd:dgemm :      0.31s CPU      0.34s WALL (      39 calls)
     addusd:qvan2 :      0.69s CPU      0.70s WALL (      39 calls)

     Called by *egterg:
     cdiaghg      :      2.66s CPU      2.87s WALL (    4552 calls)
     cegterg:over :      0.93s CPU      0.96s WALL (    3317 calls)
     cegterg:upda :      0.29s CPU      0.30s WALL (    3317 calls)
     cegterg:last :      0.46s CPU      0.47s WALL (    2447 calls)
     h_psi        :     43.98s CPU     45.46s WALL (    4647 calls)
     s_psi        :      0.32s CPU      0.36s WALL (    4647 calls)
     g_psi        :      0.06s CPU      0.06s WALL (    3317 calls)

     Called by h_psi:
     h_psi:calbec :      1.16s CPU      1.20s WALL (    4647 calls)
     vloc_psi     :     42.19s CPU     43.61s WALL (    4647 calls)
     add_vuspsi   :      0.47s CPU      0.49s WALL (    4647 calls)

     General routines
     calbec       :      1.56s CPU      1.61s WALL (    6357 calls)
     fft          :      1.06s CPU      1.12s WALL (     205 calls)
     ffts         :      0.02s CPU      0.02s WALL (      27 calls)
     fftw         :     46.15s CPU     47.71s WALL (  157891 calls)
     interpolate  :      0.10s CPU      0.10s WALL (      14 calls)
 
     Parallel routines
     fft_scatt_xy :      6.15s CPU      6.30s WALL (  158123 calls)
     fft_scatt_yz :     20.83s CPU     21.53s WALL (  158123 calls)

     PAW routines
     PAW_pot      :      0.72s CPU      0.74s WALL (      14 calls)
     PAW_symme    :      0.02s CPU      0.02s WALL (      27 calls)
 
     PWSCF        :   1m10.07s CPU   1m13.43s WALL

 
   This run was terminated on:  17:51:45  18May2022            

=------------------------------------------------------------------------------=
   JOB DONE.
=------------------------------------------------------------------------------=
