MPI startup(): Warning: I_MPI_PMI_LIBRARY will be ignored since the hydra process manager was found
MPI startup(): Warning: I_MPI_PMI_LIBRARY will be ignored since the hydra process manager was found
MPI startup(): Warning: I_MPI_PMI_LIBRARY will be ignored since the hydra process manager was found
MPI startup(): Warning: I_MPI_PMI_LIBRARY will be ignored since the hydra process manager was found
MPI startup(): Warning: I_MPI_PMI_LIBRARY will be ignored since the hydra process manager was found
MPI startup(): Warning: I_MPI_PMI_LIBRARY will be ignored since the hydra process manager was found
MPI startup(): Warning: I_MPI_PMI_LIBRARY will be ignored since the hydra process manager was found
MPI startup(): Warning: I_MPI_PMI_LIBRARY will be ignored since the hydra process manager was found
MPI startup(): Warning: I_MPI_PMI_LIBRARY will be ignored since the hydra process manager was found
MPI startup(): Warning: I_MPI_PMI_LIBRARY will be ignored since the hydra process manager was found
MPI startup(): Warning: I_MPI_PMI_LIBRARY will be ignored since the hydra process manager was found
MPI startup(): Warning: I_MPI_PMI_LIBRARY will be ignored since the hydra process manager was found
MPI startup(): Warning: I_MPI_PMI_LIBRARY will be ignored since the hydra process manager was found
MPI startup(): Warning: I_MPI_PMI_LIBRARY will be ignored since the hydra process manager was found
MPI startup(): Warning: I_MPI_PMI_LIBRARY will be ignored since the hydra process manager was found
MPI startup(): Warning: I_MPI_PMI_LIBRARY will be ignored since the hydra process manager was found
MPI startup(): Warning: I_MPI_PMI_LIBRARY will be ignored since the hydra process manager was found
MPI startup(): Warning: I_MPI_PMI_LIBRARY will be ignored since the hydra process manager was found
MPI startup(): Warning: I_MPI_PMI_LIBRARY will be ignored since the hydra process manager was found
MPI startup(): Warning: I_MPI_PMI_LIBRARY will be ignored since the hydra process manager was found
MPI startup(): Warning: I_MPI_PMI_LIBRARY will be ignored since the hydra process manager was found
MPI startup(): Warning: I_MPI_PMI_LIBRARY will be ignored since the hydra process manager was found
MPI startup(): Warning: I_MPI_PMI_LIBRARY will be ignored since the hydra process manager was found
MPI startup(): Warning: I_MPI_PMI_LIBRARY will be ignored since the hydra process manager was found

     Program PWSCF v.6.7MaX starts on  1Aug2021 at 12:44:21 

     This program is part of the open-source Quantum ESPRESSO suite
     for quantum simulation of materials; please cite
         "P. Giannozzi et al., J. Phys.:Condens. Matter 21 395502 (2009);
         "P. Giannozzi et al., J. Phys.:Condens. Matter 29 465901 (2017);
          URL http://www.quantum-espresso.org", 
     in publications or presentations arising from this work. More details at
     http://www.quantum-espresso.org/quote

     Parallel version (MPI), running on    24 processors

     MPI processes distributed on     1 nodes
     R & G space division:  proc/nbgrp/npool/nimage =      24
     Waiting for input...
     Reading input from standard input

     Current dimensions of program PWSCF are:
     Max number of different atomic species (ntypx) = 10
     Max number of k-points (npk) =  40000
     Max angular momentum in pseudopotentials (lmaxx) =  3
     file Cr.rel-pbe-spn-kjpaw_psl.1.0.0.UPF: wavefunction(s)  3S 3P 3P 3D 3D renormalized
     file Si.rel-pbe-n-kjpaw_psl.1.0.0.UPF: wavefunction(s)  3S 3P 3P renormalized

     Subspace diagonalization in iterative solution of the eigenvalue problem:
     a serial algorithm will be used

     Message from routine setup:
     using ibrav=0 with symmetry is DISCOURAGED, use correct ibrav instead
 
     Parallelization info
     --------------------
     sticks:   dense  smooth     PW     G-vecs:    dense   smooth      PW
     Min         228      91     25                12702     3210     487
     Max         229      93     26                12704     3214     492
     Sum        5473    2201    621               304867    77053   11753
 


     bravais-lattice index     =            0
     lattice parameter (alat)  =       8.7475  a.u.
     unit-cell volume          =     669.3575 (a.u.)^3
     number of atoms/cell      =            8
     number of atomic types    =            2
     number of electrons       =        72.00
     number of Kohn-Sham states=           86
     kinetic-energy cutoff     =      90.0000  Ry
     charge density cutoff     =     900.0000  Ry
     scf convergence threshold =      1.0E-06
     mixing beta               =       0.7000
     number of iterations used =            8  plain     mixing
     Exchange-correlation= SLA  PW   PBX  PBC
                           (   1   4   3   4   0   0   0)
     Non magnetic calculation with spin-orbit


     celldm(1)=   8.747542  celldm(2)=   0.000000  celldm(3)=   0.000000
     celldm(4)=   0.000000  celldm(5)=   0.000000  celldm(6)=   0.000000

     crystal axes: (cart. coord. in units of alat)
               a(1) = (   1.000000   0.000000   0.000000 )  
               a(2) = (   0.000000   1.000000   0.000000 )  
               a(3) = (   0.000000   0.000000   1.000000 )  

     reciprocal axes: (cart. coord. in units 2 pi/alat)
               b(1) = (  1.000000  0.000000  0.000000 )  
               b(2) = (  0.000000  1.000000  0.000000 )  
               b(3) = (  0.000000  0.000000  1.000000 )  


     PseudoPot. # 1 for Cr read from file:
     ../../../../pseudo/Cr.rel-pbe-spn-kjpaw_psl.1.0.0.UPF
     MD5 check sum: 1e24e2b5251376a8b945118fca0c7981
     Pseudo is Projector augmented-wave + core cor, Zval = 14.0
     Generated using &quot;atomic&quot; code by A. Dal Corso  v.6.3
     Shape of augmentation charge: PSQ
     Using radial grid of 1183 points, 10 beta functions with: 
                l(1) =   0
                l(2) =   0
                l(3) =   1
                l(4) =   1
                l(5) =   1
                l(6) =   1
                l(7) =   2
                l(8) =   2
                l(9) =   2
               l(10) =   2
     Q(r) pseudized with 0 coefficients 


     PseudoPot. # 2 for Si read from file:
     ../../../../pseudo/Si.rel-pbe-n-kjpaw_psl.1.0.0.UPF
     MD5 check sum: d74f6caf6830ea4c2076867160cab1b0
     Pseudo is Projector augmented-wave + core cor, Zval =  4.0
     Generated using &quot;atomic&quot; code by A. Dal Corso  v.6.3
     Shape of augmentation charge: PSQ
     Using radial grid of 1141 points, 10 beta functions with: 
                l(1) =   0
                l(2) =   0
                l(3) =   1
                l(4) =   1
                l(5) =   1
                l(6) =   1
                l(7) =   2
                l(8) =   2
                l(9) =   2
               l(10) =   2
     Q(r) pseudized with 0 coefficients 


     atomic species   valence    mass     pseudopotential
        Cr            14.00    51.99600     Cr( 1.00)
        Si             4.00    28.08500     Si( 1.00)

     12 Sym. Ops. (no inversion) found ( 9 have fractional translation)


                                    s                        frac. trans.

      isym =  1     identity                                     

 cryst.   s( 1) = (     1          0          0      )
                  (     0          1          0      )
                  (     0          0          1      )

 cart.    s( 1) = (  1.0000000  0.0000000  0.0000000 )
                  (  0.0000000  1.0000000  0.0000000 )
                  (  0.0000000  0.0000000  1.0000000 )


      isym =  2     180 deg rotation - cart. axis [0,0,1]        

 cryst.   s( 2) = (    -1          0          0      )    f =(  0.5000000 )
                  (     0         -1          0      )       (  0.0000000 )
                  (     0          0          1      )       ( -0.5000000 )

 cart.    s( 2) = ( -1.0000000  0.0000000  0.0000000 )    f =(  0.5000000 )
                  (  0.0000000 -1.0000000  0.0000000 )       (  0.0000000 )
                  (  0.0000000  0.0000000  1.0000000 )       ( -0.5000000 )


      isym =  3     180 deg rotation - cart. axis [0,1,0]        

 cryst.   s( 3) = (    -1          0          0      )    f =(  0.0000000 )
                  (     0          1          0      )       ( -0.5000000 )
                  (     0          0         -1      )       (  0.5000000 )

 cart.    s( 3) = ( -1.0000000  0.0000000  0.0000000 )    f =(  0.0000000 )
                  (  0.0000000  1.0000000  0.0000000 )       ( -0.5000000 )
                  (  0.0000000  0.0000000 -1.0000000 )       (  0.5000000 )


      isym =  4     180 deg rotation - cart. axis [1,0,0]        

 cryst.   s( 4) = (     1          0          0      )    f =(  0.5000000 )
                  (     0         -1          0      )       (  0.5000000 )
                  (     0          0         -1      )       (  0.0000000 )

 cart.    s( 4) = (  1.0000000  0.0000000  0.0000000 )    f =(  0.5000000 )
                  (  0.0000000 -1.0000000  0.0000000 )       (  0.5000000 )
                  (  0.0000000  0.0000000 -1.0000000 )       (  0.0000000 )


      isym =  5     120 deg rotation - cart. axis [-1,-1,-1]     

 cryst.   s( 5) = (     0          0          1      )
                  (     1          0          0      )
                  (     0          1          0      )

 cart.    s( 5) = (  0.0000000  1.0000000  0.0000000 )
                  (  0.0000000  0.0000000  1.0000000 )
                  (  1.0000000  0.0000000  0.0000000 )


      isym =  6     120 deg rotation - cart. axis [-1,1,1]       

 cryst.   s( 6) = (     0          0         -1      )    f =(  0.0000000 )
                  (    -1          0          0      )       ( -0.5000000 )
                  (     0          1          0      )       (  0.5000000 )

 cart.    s( 6) = (  0.0000000 -1.0000000  0.0000000 )    f =(  0.0000000 )
                  (  0.0000000  0.0000000  1.0000000 )       ( -0.5000000 )
                  ( -1.0000000  0.0000000  0.0000000 )       (  0.5000000 )


      isym =  7     120 deg rotation - cart. axis [1,1,-1]       

 cryst.   s( 7) = (     0          0         -1      )    f =(  0.5000000 )
                  (     1          0          0      )       (  0.5000000 )
                  (     0         -1          0      )       (  0.0000000 )

 cart.    s( 7) = (  0.0000000  1.0000000  0.0000000 )    f =(  0.5000000 )
                  (  0.0000000  0.0000000 -1.0000000 )       (  0.5000000 )
                  ( -1.0000000  0.0000000  0.0000000 )       (  0.0000000 )


      isym =  8     120 deg rotation - cart. axis [1,-1,1]       

 cryst.   s( 8) = (     0          0          1      )    f =(  0.5000000 )
                  (    -1          0          0      )       (  0.0000000 )
                  (     0         -1          0      )       ( -0.5000000 )

 cart.    s( 8) = (  0.0000000 -1.0000000  0.0000000 )    f =(  0.5000000 )
                  (  0.0000000  0.0000000 -1.0000000 )       (  0.0000000 )
                  (  1.0000000  0.0000000  0.0000000 )       ( -0.5000000 )


      isym =  9     120 deg rotation - cart. axis [1,1,1]        

 cryst.   s( 9) = (     0          1          0      )
                  (     0          0          1      )
                  (     1          0          0      )

 cart.    s( 9) = (  0.0000000  0.0000000  1.0000000 )
                  (  1.0000000  0.0000000  0.0000000 )
                  (  0.0000000  1.0000000  0.0000000 )


      isym = 10     120 deg rotation - cart. axis [-1,1,-1]      

 cryst.   s(10) = (     0         -1          0      )    f =(  0.5000000 )
                  (     0          0         -1      )       (  0.5000000 )
                  (     1          0          0      )       (  0.0000000 )

 cart.    s(10) = (  0.0000000  0.0000000  1.0000000 )    f =(  0.5000000 )
                  ( -1.0000000  0.0000000  0.0000000 )       (  0.5000000 )
                  (  0.0000000 -1.0000000  0.0000000 )       (  0.0000000 )


      isym = 11     120 deg rotation - cart. axis [1,-1,-1]      

 cryst.   s(11) = (     0         -1          0      )    f =(  0.5000000 )
                  (     0          0          1      )       (  0.0000000 )
                  (    -1          0          0      )       ( -0.5000000 )

 cart.    s(11) = (  0.0000000  0.0000000 -1.0000000 )    f =(  0.5000000 )
                  ( -1.0000000  0.0000000  0.0000000 )       (  0.0000000 )
                  (  0.0000000  1.0000000  0.0000000 )       ( -0.5000000 )


      isym = 12     120 deg rotation - cart. axis [-1,-1,1]      

 cryst.   s(12) = (     0          1          0      )    f =(  0.0000000 )
                  (     0          0         -1      )       ( -0.5000000 )
                  (    -1          0          0      )       (  0.5000000 )

 cart.    s(12) = (  0.0000000  0.0000000 -1.0000000 )    f =(  0.0000000 )
                  (  1.0000000  0.0000000  0.0000000 )       ( -0.5000000 )
                  (  0.0000000 -1.0000000  0.0000000 )       (  0.5000000 )


   Cartesian axes

     site n.     atom                  positions (alat units)
         1           Cr  tau(   1) = (   0.8640000   0.3640000   0.1360000  )
         2           Cr  tau(   2) = (   0.3640000   0.1360000   0.8640000  )
         3           Cr  tau(   3) = (   0.1360000   0.8640000   0.3640000  )
         4           Cr  tau(   4) = (   0.6360000   0.6360000   0.6360000  )
         5           Si  tau(   5) = (   0.1540000   0.6540000   0.8460000  )
         6           Si  tau(   6) = (   0.6540000   0.8460000   0.1540000  )
         7           Si  tau(   7) = (   0.8460000   0.1540000   0.6540000  )
         8           Si  tau(   8) = (   0.3460000   0.3460000   0.3460000  )

   Crystallographic axes

     site n.     atom                  positions (cryst. coord.)
         1           Cr  tau(   1) = (  0.8640000  0.3640000  0.1360000  )
         2           Cr  tau(   2) = (  0.3640000  0.1360000  0.8640000  )
         3           Cr  tau(   3) = (  0.1360000  0.8640000  0.3640000  )
         4           Cr  tau(   4) = (  0.6360000  0.6360000  0.6360000  )
         5           Si  tau(   5) = (  0.1540000  0.6540000  0.8460000  )
         6           Si  tau(   6) = (  0.6540000  0.8460000  0.1540000  )
         7           Si  tau(   7) = (  0.8460000  0.1540000  0.6540000  )
         8           Si  tau(   8) = (  0.3460000  0.3460000  0.3460000  )

     number of k points=    45  Methfessel-Paxton smearing, width (Ry)=  0.0060
                       cart. coord. in units 2pi/alat
        k(    1) = (   0.0000000   0.0000000   0.0000000), wk =   0.0019531
        k(    2) = (   0.0000000   0.0000000   0.1250000), wk =   0.0117188
        k(    3) = (   0.0000000   0.0000000   0.2500000), wk =   0.0117188
        k(    4) = (   0.0000000   0.0000000   0.3750000), wk =   0.0117188
        k(    5) = (   0.0000000   0.0000000  -0.5000000), wk =   0.0058594
        k(    6) = (   0.0000000   0.1250000   0.1250000), wk =   0.0234375
        k(    7) = (   0.0000000   0.1250000   0.2500000), wk =   0.0234375
        k(    8) = (   0.0000000   0.1250000   0.3750000), wk =   0.0234375
        k(    9) = (   0.0000000   0.1250000  -0.5000000), wk =   0.0117188
        k(   10) = (   0.0000000   0.2500000   0.2500000), wk =   0.0234375
        k(   11) = (   0.0000000   0.2500000   0.3750000), wk =   0.0234375
        k(   12) = (   0.0000000   0.2500000  -0.5000000), wk =   0.0117188
        k(   13) = (   0.0000000   0.3750000   0.3750000), wk =   0.0234375
        k(   14) = (   0.0000000   0.3750000  -0.5000000), wk =   0.0117188
        k(   15) = (   0.0000000  -0.5000000  -0.5000000), wk =   0.0058594
        k(   16) = (   0.1250000   0.1250000   0.1250000), wk =   0.0156250
        k(   17) = (   0.1250000   0.1250000   0.2500000), wk =   0.0468750
        k(   18) = (   0.1250000   0.1250000   0.3750000), wk =   0.0468750
        k(   19) = (   0.1250000   0.1250000  -0.5000000), wk =   0.0234375
        k(   20) = (   0.1250000   0.2500000   0.2500000), wk =   0.0468750
        k(   21) = (   0.1250000   0.2500000   0.3750000), wk =   0.0468750
        k(   22) = (   0.1250000   0.2500000  -0.5000000), wk =   0.0234375
        k(   23) = (   0.1250000   0.3750000   0.3750000), wk =   0.0468750
        k(   24) = (   0.1250000   0.3750000  -0.5000000), wk =   0.0234375
        k(   25) = (   0.1250000  -0.5000000  -0.5000000), wk =   0.0117188
        k(   26) = (   0.2500000   0.2500000   0.2500000), wk =   0.0156250
        k(   27) = (   0.2500000   0.2500000   0.3750000), wk =   0.0468750
        k(   28) = (   0.2500000   0.2500000  -0.5000000), wk =   0.0234375
        k(   29) = (   0.2500000   0.3750000   0.3750000), wk =   0.0468750
        k(   30) = (   0.2500000   0.3750000  -0.5000000), wk =   0.0234375
        k(   31) = (   0.2500000  -0.5000000  -0.5000000), wk =   0.0117188
        k(   32) = (   0.3750000   0.3750000   0.3750000), wk =   0.0156250
        k(   33) = (   0.3750000   0.3750000  -0.5000000), wk =   0.0234375
        k(   34) = (   0.3750000  -0.5000000  -0.5000000), wk =   0.0117188
        k(   35) = (  -0.5000000  -0.5000000  -0.5000000), wk =   0.0019531
        k(   36) = (   0.0000000   0.2500000   0.1250000), wk =   0.0234375
        k(   37) = (   0.0000000   0.3750000   0.1250000), wk =   0.0234375
        k(   38) = (   0.0000000  -0.5000000   0.1250000), wk =   0.0117188
        k(   39) = (   0.0000000   0.3750000   0.2500000), wk =   0.0234375
        k(   40) = (   0.0000000  -0.5000000   0.2500000), wk =   0.0117188
        k(   41) = (   0.0000000  -0.5000000   0.3750000), wk =   0.0117188
        k(   42) = (  -0.1250000   0.3750000   0.2500000), wk =   0.0468750
        k(   43) = (  -0.1250000  -0.5000000   0.2500000), wk =   0.0234375
        k(   44) = (  -0.1250000  -0.5000000   0.3750000), wk =   0.0234375
        k(   45) = (  -0.2500000  -0.5000000   0.3750000), wk =   0.0234375

                       cryst. coord.
        k(    1) = (   0.0000000   0.0000000   0.0000000), wk =   0.0019531
        k(    2) = (   0.0000000   0.0000000   0.1250000), wk =   0.0117188
        k(    3) = (   0.0000000   0.0000000   0.2500000), wk =   0.0117188
        k(    4) = (   0.0000000   0.0000000   0.3750000), wk =   0.0117188
        k(    5) = (   0.0000000   0.0000000  -0.5000000), wk =   0.0058594
        k(    6) = (   0.0000000   0.1250000   0.1250000), wk =   0.0234375
        k(    7) = (   0.0000000   0.1250000   0.2500000), wk =   0.0234375
        k(    8) = (   0.0000000   0.1250000   0.3750000), wk =   0.0234375
        k(    9) = (   0.0000000   0.1250000  -0.5000000), wk =   0.0117188
        k(   10) = (   0.0000000   0.2500000   0.2500000), wk =   0.0234375
        k(   11) = (   0.0000000   0.2500000   0.3750000), wk =   0.0234375
        k(   12) = (   0.0000000   0.2500000  -0.5000000), wk =   0.0117188
        k(   13) = (   0.0000000   0.3750000   0.3750000), wk =   0.0234375
        k(   14) = (   0.0000000   0.3750000  -0.5000000), wk =   0.0117188
        k(   15) = (   0.0000000  -0.5000000  -0.5000000), wk =   0.0058594
        k(   16) = (   0.1250000   0.1250000   0.1250000), wk =   0.0156250
        k(   17) = (   0.1250000   0.1250000   0.2500000), wk =   0.0468750
        k(   18) = (   0.1250000   0.1250000   0.3750000), wk =   0.0468750
        k(   19) = (   0.1250000   0.1250000  -0.5000000), wk =   0.0234375
        k(   20) = (   0.1250000   0.2500000   0.2500000), wk =   0.0468750
        k(   21) = (   0.1250000   0.2500000   0.3750000), wk =   0.0468750
        k(   22) = (   0.1250000   0.2500000  -0.5000000), wk =   0.0234375
        k(   23) = (   0.1250000   0.3750000   0.3750000), wk =   0.0468750
        k(   24) = (   0.1250000   0.3750000  -0.5000000), wk =   0.0234375
        k(   25) = (   0.1250000  -0.5000000  -0.5000000), wk =   0.0117188
        k(   26) = (   0.2500000   0.2500000   0.2500000), wk =   0.0156250
        k(   27) = (   0.2500000   0.2500000   0.3750000), wk =   0.0468750
        k(   28) = (   0.2500000   0.2500000  -0.5000000), wk =   0.0234375
        k(   29) = (   0.2500000   0.3750000   0.3750000), wk =   0.0468750
        k(   30) = (   0.2500000   0.3750000  -0.5000000), wk =   0.0234375
        k(   31) = (   0.2500000  -0.5000000  -0.5000000), wk =   0.0117188
        k(   32) = (   0.3750000   0.3750000   0.3750000), wk =   0.0156250
        k(   33) = (   0.3750000   0.3750000  -0.5000000), wk =   0.0234375
        k(   34) = (   0.3750000  -0.5000000  -0.5000000), wk =   0.0117188
        k(   35) = (  -0.5000000  -0.5000000  -0.5000000), wk =   0.0019531
        k(   36) = (   0.0000000   0.2500000   0.1250000), wk =   0.0234375
        k(   37) = (   0.0000000   0.3750000   0.1250000), wk =   0.0234375
        k(   38) = (   0.0000000  -0.5000000   0.1250000), wk =   0.0117188
        k(   39) = (   0.0000000   0.3750000   0.2500000), wk =   0.0234375
        k(   40) = (   0.0000000  -0.5000000   0.2500000), wk =   0.0117188
        k(   41) = (   0.0000000  -0.5000000   0.3750000), wk =   0.0117188
        k(   42) = (  -0.1250000   0.3750000   0.2500000), wk =   0.0468750
        k(   43) = (  -0.1250000  -0.5000000   0.2500000), wk =   0.0234375
        k(   44) = (  -0.1250000  -0.5000000   0.3750000), wk =   0.0234375
        k(   45) = (  -0.2500000  -0.5000000   0.3750000), wk =   0.0234375

     Dense  grid:   304867 G-vectors     FFT dimensions: (  90,  90,  90)

     Smooth grid:    77053 G-vectors     FFT dimensions: (  54,  54,  54)

     Dynamical RAM for                 wfc:       1.06 MB

     Dynamical RAM for     wfc (w. buffer):      48.53 MB

     Dynamical RAM for           str. fact:       0.39 MB

     Dynamical RAM for           local pot:       0.00 MB

     Dynamical RAM for          nlocal pot:       1.67 MB

     Dynamical RAM for                qrad:      12.61 MB

     Dynamical RAM for          rho,v,vnew:       5.29 MB

     Dynamical RAM for               rhoin:       1.76 MB

     Dynamical RAM for            rho*nmix:      12.41 MB

     Dynamical RAM for           G-vectors:       0.75 MB

     Dynamical RAM for          h,s,v(r/c):       1.35 MB

     Dynamical RAM for          <psi|beta>:       0.71 MB

     Dynamical RAM for                 psi:       2.11 MB

     Dynamical RAM for                hpsi:       2.11 MB

     Dynamical RAM for                spsi:       2.11 MB

     Dynamical RAM for      wfcinit/wfcrot:       2.35 MB

     Dynamical RAM for           addusdens:     119.02 MB

     Dynamical RAM for          addusforce:     120.34 MB

     Dynamical RAM for         addusstress:     121.74 MB

     Estimated static dynamical RAM per process >      85.97 MB

     Estimated max dynamical RAM per process >     207.70 MB

     Estimated total dynamical RAM >       4.87 GB

     Initial potential from superposition of free atoms

     starting charge   71.99469, renormalised to   72.00000
     Starting wfcs are  112 randomized atomic wfcs
     Checking if some PAW data can be deallocated... 
       PAW data deallocated on   12 nodes for type:  1
       PAW data deallocated on   12 nodes for type:  2

     total cpu time spent up to now is       10.5 secs

     Self-consistent Calculation

     iteration #  1     ecut=    90.00 Ry     beta= 0.70
     Davidson diagonalization with overlap
     ethr =  1.00E-02,  avg # of iterations =  2.0

     Threshold (ethr) on eigenvalues was too large:
     Diagonalizing with lowered threshold

     Davidson diagonalization with overlap
     ethr =  2.09E-04,  avg # of iterations =  4.4

     total cpu time spent up to now is       54.3 secs

     total energy              =   -1180.31007278 Ry
     estimated scf accuracy    <       0.18966349 Ry

     iteration #  2     ecut=    90.00 Ry     beta= 0.70
     Davidson diagonalization with overlap
     ethr =  2.63E-04,  avg # of iterations =  3.2

     total cpu time spent up to now is       76.8 secs

     total energy              =   -1180.31373008 Ry
     estimated scf accuracy    <       0.08444500 Ry

     iteration #  3     ecut=    90.00 Ry     beta= 0.70
     Davidson diagonalization with overlap
     ethr =  1.17E-04,  avg # of iterations =  5.0

     total cpu time spent up to now is      103.9 secs

     total energy              =   -1180.32606085 Ry
     estimated scf accuracy    <       0.16599766 Ry

     iteration #  4     ecut=    90.00 Ry     beta= 0.70
     Davidson diagonalization with overlap
     ethr =  1.17E-04,  avg # of iterations =  4.1

     total cpu time spent up to now is      125.8 secs

     total energy              =   -1180.35019568 Ry
     estimated scf accuracy    <       0.00023911 Ry

     iteration #  5     ecut=    90.00 Ry     beta= 0.70
     Davidson diagonalization with overlap
     ethr =  3.32E-07,  avg # of iterations =  8.6

     total cpu time spent up to now is      161.1 secs

     total energy              =   -1180.35083335 Ry
     estimated scf accuracy    <       0.00039527 Ry

     iteration #  6     ecut=    90.00 Ry     beta= 0.70
     Davidson diagonalization with overlap
     ethr =  3.32E-07,  avg # of iterations =  4.1

     total cpu time spent up to now is      183.4 secs

     total energy              =   -1180.35090898 Ry
     estimated scf accuracy    <       0.00001473 Ry

     iteration #  7     ecut=    90.00 Ry     beta= 0.70
     Davidson diagonalization with overlap
     ethr =  2.05E-08,  avg # of iterations =  3.2

     total cpu time spent up to now is      203.1 secs

     total energy              =   -1180.35091015 Ry
     estimated scf accuracy    <       0.00000331 Ry

     iteration #  8     ecut=    90.00 Ry     beta= 0.70
     Davidson diagonalization with overlap
     ethr =  4.59E-09,  avg # of iterations =  4.3

     total cpu time spent up to now is      226.6 secs

     total energy              =   -1180.35091146 Ry
     estimated scf accuracy    <       0.00000123 Ry

     iteration #  9     ecut=    90.00 Ry     beta= 0.70
     Davidson diagonalization with overlap
     ethr =  1.70E-09,  avg # of iterations =  2.6

     total cpu time spent up to now is      244.6 secs

     End of self-consistent calculation

          k = 0.0000 0.0000 0.0000 (  9771 PWs)   bands (ev):

   -56.5166 -56.5166 -56.4819 -56.4819 -56.4819 -56.4819 -56.4819 -56.4819
   -28.5826 -28.5826 -28.5746 -28.5746 -28.5746 -28.5746 -28.4853 -28.4853
   -27.6185 -27.6185 -27.6185 -27.6185 -27.5411 -27.5411 -27.5411 -27.5411
   -27.5318 -27.5318 -27.4509 -27.4509 -27.4509 -27.4509 -27.4488 -27.4488
     2.6989   2.6989   7.4570   7.4570   7.4570   7.4570   7.4662   7.4662
    10.5367  10.5367  10.5447  10.5447  10.5447  10.5447  11.9123  11.9123
    11.9123  11.9123  11.9234  11.9234  12.6035  12.6035  12.7721  12.7721
    12.7721  12.7721  13.1419  13.1419  13.1419  13.1419  13.1431  13.1431
    13.6702  13.6702  13.6702  13.6702  13.6741  13.6741  15.5509  15.5509
    15.5822  15.5822  15.5822  15.5822  15.7628  15.7628  15.7628  15.7628
    16.6659  16.6659  16.6963  16.6963  16.6963  16.6963

     occupation numbers 
     1.0000   1.0000   1.0000   1.0000   1.0000   1.0000   1.0000   1.0000
     1.0000   1.0000   1.0000   1.0000   1.0000   1.0000   1.0000   1.0000
     1.0000   1.0000   1.0000   1.0000   1.0000   1.0000   1.0000   1.0000
     1.0000   1.0000   1.0000   1.0000   1.0000   1.0000   1.0000   1.0000
     1.0000   1.0000   1.0000   1.0000   1.0000   1.0000   1.0000   1.0000
     1.0000   1.0000   1.0000   1.0000   1.0000   1.0000   1.0000   1.0000
     1.0000   1.0000   1.0000   1.0000   1.0000   1.0000   1.0000   1.0000
     1.0000   1.0000   1.0000   1.0000   1.0000   1.0000   1.0000   1.0000
     1.0000   1.0000   1.0000   1.0000   1.0000   1.0000  -0.0000  -0.0000
    -0.0000  -0.0000  -0.0000  -0.0000  -0.0000  -0.0000  -0.0000  -0.0000
    -0.0000  -0.0000  -0.0000  -0.0000  -0.0000  -0.0000

          k = 0.0000 0.0000 0.1250 (  9667 PWs)   bands (ev):

   -56.5156 -56.5156 -56.4859 -56.4859 -56.4816 -56.4816 -56.4792 -56.4792
   -28.5888 -28.5813 -28.5785 -28.5778 -28.5679 -28.5647 -28.4881 -28.4881
   -27.6318 -27.6255 -27.6088 -27.6025 -27.5496 -27.5467 -27.5393 -27.5359
   -27.5344 -27.5195 -27.4580 -27.4565 -27.4538 -27.4489 -27.4481 -27.4432
     2.8072   2.8072   6.7955   6.7988   7.5182   7.5196   7.9728   7.9815
    10.0748  10.0799  10.6131  10.6148  11.0389  11.0408  11.3211  11.3212
    11.6510  11.6549  12.5301  12.5367  12.5617  12.5799  12.7796  12.7868
    12.9233  12.9246  13.1122  13.1143  13.1767  13.1771  13.2078  13.2083
    13.5207  13.5284  13.6522  13.6537  13.8985  13.8987  15.3973  15.4155
    15.4440  15.4536  15.7198  15.7234  15.7388  15.7506  15.7636  15.7694
    16.4744  16.4914  16.6344  16.6392  16.8965  16.9171

     occupation numbers 
     1.0000   1.0000   1.0000   1.0000   1.0000   1.0000   1.0000   1.0000
     1.0000   1.0000   1.0000   1.0000   1.0000   1.0000   1.0000   1.0000
     1.0000   1.0000   1.0000   1.0000   1.0000   1.0000   1.0000   1.0000
     1.0000   1.0000   1.0000   1.0000   1.0000   1.0000   1.0000   1.0000
     1.0000   1.0000   1.0000   1.0000   1.0000   1.0000   1.0000   1.0000
     1.0000   1.0000   1.0000   1.0000   1.0000   1.0000   1.0000   1.0000
     1.0000   1.0000   1.0000   1.0000   1.0000   1.0000   1.0000   1.0000
     1.0000   1.0000   1.0000   1.0000   1.0000   1.0000   1.0000   1.0000
     1.0000   1.0000   1.0000   1.0000   1.0000   1.0000  -0.0000  -0.0000
    -0.0000  -0.0000  -0.0000  -0.0000  -0.0000  -0.0000  -0.0000  -0.0000
    -0.0000  -0.0000  -0.0000  -0.0000  -0.0000  -0.0000

          k = 0.0000 0.0000 0.2500 (  9618 PWs)   bands (ev):

   -56.5127 -56.5127 -56.4910 -56.4910 -56.4807 -56.4807 -56.4779 -56.4779
   -28.5923 -28.5848 -28.5818 -28.5792 -28.5553 -28.5522 -28.4964 -28.4961
   -27.6404 -27.6316 -27.5957 -27.5883 -27.5589 -27.5485 -27.5373 -27.5363
   -27.5314 -27.5052 -27.4696 -27.4614 -27.4595 -27.4499 -27.4471 -27.4402
     3.1274   3.1274   5.9921   5.9936   7.6896   7.6926   8.3701   8.3802
     9.7438   9.7451  10.7561  10.7613  10.8666  10.8754  11.1956  11.2029
    11.5680  11.5687  12.2656  12.2804  12.8664  12.8730  12.9122  12.9340
    13.1189  13.1231  13.1281  13.1334  13.2501  13.2507  13.2813  13.2852
    13.5432  13.5466  13.6973  13.7049  14.0458  14.0464  15.0728  15.1014
    15.3790  15.3795  15.6142  15.6294  15.7365  15.7608  15.8508  15.8747
    16.2856  16.3003  16.4938  16.5054  17.1880  17.2082

     occupation numbers 
     1.0000   1.0000   1.0000   1.0000   1.0000   1.0000   1.0000   1.0000
     1.0000   1.0000   1.0000   1.0000   1.0000   1.0000   1.0000   1.0000
     1.0000   1.0000   1.0000   1.0000   1.0000   1.0000   1.0000   1.0000
     1.0000   1.0000   1.0000   1.0000   1.0000   1.0000   1.0000   1.0000
     1.0000   1.0000   1.0000   1.0000   1.0000   1.0000   1.0000   1.0000
     1.0000   1.0000   1.0000   1.0000   1.0000   1.0000   1.0000   1.0000
     1.0000   1.0000   1.0000   1.0000   1.0000   1.0000   1.0000   1.0000
     1.0000   1.0000   1.0000   1.0000   1.0000   1.0000   1.0000   1.0000
     1.0000   1.0000   1.0000   1.0000   1.0000   1.0000  -0.0284  -0.0132
    -0.0000  -0.0000  -0.0000  -0.0000  -0.0000  -0.0000  -0.0000  -0.0000
    -0.0000  -0.0000  -0.0000  -0.0000  -0.0000  -0.0000

          k = 0.0000 0.0000 0.3750 (  9662 PWs)   bands (ev):

   -56.5083 -56.5083 -56.4968 -56.4968 -56.4795 -56.4795 -56.4777 -56.4777
   -28.5927 -28.5864 -28.5856 -28.5817 -28.5401 -28.5377 -28.5089 -28.5081
   -27.6436 -27.6375 -27.5818 -27.5772 -27.5673 -27.5453 -27.5452 -27.5332
   -27.5242 -27.4909 -27.4859 -27.4676 -27.4611 -27.4529 -27.4456 -27.4405
     3.6440   3.6440   5.1360   5.1365   7.9592   7.9638   8.5100   8.5189
     9.6771   9.6799  10.5128  10.5134  10.7728  10.7860  11.0296  11.0314
    12.0046  12.0068  12.1208  12.1355  12.7678  12.7831  12.9433  12.9561
    13.0779  13.0853  13.1838  13.1878  13.2451  13.2483  13.3243  13.3278
    13.5401  13.5405  13.9308  13.9352  14.2204  14.2339  14.8129  14.8478
    15.3555  15.3671  15.4942  15.5132  15.7513  15.7807  15.8453  15.8705
    16.1648  16.1807  16.3083  16.3222  17.3509  17.3616

     occupation numbers 
     1.0000   1.0000   1.0000   1.0000   1.0000   1.0000   1.0000   1.0000
     1.0000   1.0000   1.0000   1.0000   1.0000   1.0000   1.0000   1.0000
     1.0000   1.0000   1.0000   1.0000   1.0000   1.0000   1.0000   1.0000
     1.0000   1.0000   1.0000   1.0000   1.0000   1.0000   1.0000   1.0000
     1.0000   1.0000   1.0000   1.0000   1.0000   1.0000   1.0000   1.0000
     1.0000   1.0000   1.0000   1.0000   1.0000   1.0000   1.0000   1.0000
     1.0000   1.0000   1.0000   1.0000   1.0000   1.0000   1.0000   1.0000
     1.0000   1.0000   1.0000   1.0000   1.0000   1.0000   1.0000   1.0000
     1.0000   1.0000   1.0000   1.0000   1.0000   1.0000   1.0184   1.0351
    -0.0000  -0.0000  -0.0000  -0.0000  -0.0000  -0.0000  -0.0000  -0.0000
    -0.0000  -0.0000  -0.0000  -0.0000  -0.0000  -0.0000

          k = 0.0000 0.0000-0.5000 (  9658 PWs)   bands (ev):

   -56.5028 -56.5028 -56.5028 -56.5028 -56.4784 -56.4784 -56.4784 -56.4784
   -28.5904 -28.5904 -28.5842 -28.5842 -28.5240 -28.5240 -28.5225 -28.5225
   -27.6421 -27.6421 -27.5745 -27.5745 -27.5607 -27.5607 -27.5389 -27.5389
   -27.5051 -27.5051 -27.4781 -27.4781 -27.4572 -27.4572 -27.4429 -27.4429
     4.3289   4.3289   4.3291   4.3291   8.2825   8.2825   8.2889   8.2889
    10.0174  10.0174  10.0215  10.0215  10.8981  10.8981  10.9094  10.9094
    12.2472  12.2472  12.2538  12.2538  12.6843  12.6843  12.6967  12.6967
    13.1413  13.1413  13.1417  13.1417  13.2358  13.2358  13.2395  13.2395
    13.7824  13.7824  13.7855  13.7855  14.5659  14.5659  14.5944  14.5944
    15.3990  15.3990  15.4168  15.4168  15.8042  15.8042  15.8340  15.8340
    16.1658  16.1658  16.1794  16.1794  17.5426  17.5474

     occupation numbers 
     1.0000   1.0000   1.0000   1.0000   1.0000   1.0000   1.0000   1.0000
     1.0000   1.0000   1.0000   1.0000   1.0000   1.0000   1.0000   1.0000
     1.0000   1.0000   1.0000   1.0000   1.0000   1.0000   1.0000   1.0000
     1.0000   1.0000   1.0000   1.0000   1.0000   1.0000   1.0000   1.0000
     1.0000   1.0000   1.0000   1.0000   1.0000   1.0000   1.0000   1.0000
     1.0000   1.0000   1.0000   1.0000   1.0000   1.0000   1.0000   1.0000
     1.0000   1.0000   1.0000   1.0000   1.0000   1.0000   1.0000   1.0000
     1.0000   1.0000   1.0000   1.0000   1.0000   1.0000   1.0000   1.0000
     1.0000   1.0000   1.0000   1.0000   1.0000   1.0000   1.0000   1.0000
    -0.0000  -0.0000  -0.0000  -0.0000  -0.0000  -0.0000  -0.0000  -0.0000
    -0.0000  -0.0000  -0.0000  -0.0000  -0.0000  -0.0000

          k = 0.0000 0.1250 0.1250 (  9657 PWs)   bands (ev):

   -56.5146 -56.5146 -56.4874 -56.4874 -56.4819 -56.4819 -56.4784 -56.4784
   -28.5907 -28.5841 -28.5772 -28.5764 -28.5652 -28.5611 -28.4909 -28.4909
   -27.6336 -27.6300 -27.6017 -27.5979 -27.5522 -27.5479 -27.5419 -27.5402
   -27.5280 -27.5130 -27.4632 -27.4615 -27.4552 -27.4500 -27.4450 -27.4407
     2.9148   2.9148   6.6456   6.6505   7.3155   7.3194   8.2193   8.2251
     9.9472   9.9522  10.6664  10.6724  10.8549  10.8595  11.2389  11.2420
    11.8053  11.8064  12.4439  12.4550  12.5948  12.6027  12.9028  12.9090
    13.0101  13.0195  13.1589  13.1599  13.1642  13.1691  13.2657  13.2676
    13.4633  13.4697  13.6770  13.6885  13.9937  13.9991  15.3444  15.3566
    15.3924  15.4017  15.6222  15.6316  15.7212  15.7375  15.7921  15.8136
    16.3741  16.3923  16.6468  16.6542  16.9388  16.9681

     occupation numbers 
     1.0000   1.0000   1.0000   1.0000   1.0000   1.0000   1.0000   1.0000
     1.0000   1.0000   1.0000   1.0000   1.0000   1.0000   1.0000   1.0000
     1.0000   1.0000   1.0000   1.0000   1.0000   1.0000   1.0000   1.0000
     1.0000   1.0000   1.0000   1.0000   1.0000   1.0000   1.0000   1.0000
     1.0000   1.0000   1.0000   1.0000   1.0000   1.0000   1.0000   1.0000
     1.0000   1.0000   1.0000   1.0000   1.0000   1.0000   1.0000   1.0000
     1.0000   1.0000   1.0000   1.0000   1.0000   1.0000   1.0000   1.0000
     1.0000   1.0000   1.0000   1.0000   1.0000   1.0000   1.0000   1.0000
     1.0000   1.0000   1.0000   1.0000   1.0000   1.0000  -0.0000  -0.0000
    -0.0000  -0.0000  -0.0000  -0.0000  -0.0000  -0.0000  -0.0000  -0.0000
    -0.0000  -0.0000  -0.0000  -0.0000  -0.0000  -0.0000

          k = 0.0000 0.1250 0.2500 (  9633 PWs)   bands (ev):

   -56.5118 -56.5118 -56.4914 -56.4914 -56.4814 -56.4814 -56.4777 -56.4777
   -28.5925 -28.5862 -28.5790 -28.5776 -28.5549 -28.5515 -28.4988 -28.4987
   -27.6390 -27.6327 -27.5920 -27.5866 -27.5585 -27.5505 -27.5420 -27.5392
   -27.5257 -27.5008 -27.4754 -27.4666 -27.4593 -27.4522 -27.4424 -27.4375
     3.2326   3.2327   6.0269   6.0294   7.3763   7.3790   8.4794   8.4845
     9.7444   9.7459  10.4129  10.4167  10.8567  10.8575  11.4948  11.5001
    11.5884  11.5899  12.3108  12.3206  12.6388  12.6415  13.0338  13.0412
    13.0728  13.0842  13.2019  13.2081  13.2804  13.2817  13.3797  13.3840
    13.5196  13.5261  13.8042  13.8195  14.1005  14.1076  15.0888  15.1158
    15.2969  15.3118  15.5052  15.5198  15.6868  15.7088  15.8380  15.8636
    16.2237  16.2389  16.5276  16.5399  17.1528  17.1859

     occupation numbers 
     1.0000   1.0000   1.0000   1.0000   1.0000   1.0000   1.0000   1.0000
     1.0000   1.0000   1.0000   1.0000   1.0000   1.0000   1.0000   1.0000
     1.0000   1.0000   1.0000   1.0000   1.0000   1.0000   1.0000   1.0000
     1.0000   1.0000   1.0000   1.0000   1.0000   1.0000   1.0000   1.0000
     1.0000   1.0000   1.0000   1.0000   1.0000   1.0000   1.0000   1.0000
     1.0000   1.0000   1.0000   1.0000   1.0000   1.0000   1.0000   1.0000
     1.0000   1.0000   1.0000   1.0000   1.0000   1.0000   1.0000   1.0000
     1.0000   1.0000   1.0000   1.0000   1.0000   1.0000   1.0000   1.0000
     1.0000   1.0000   1.0000   1.0000   1.0000   1.0000  -0.0195  -0.0078
    -0.0000  -0.0000  -0.0000  -0.0000  -0.0000  -0.0000  -0.0000  -0.0000
    -0.0000  -0.0000  -0.0000  -0.0000  -0.0000  -0.0000

          k = 0.0000 0.1250 0.3750 (  9657 PWs)   bands (ev):

   -56.5076 -56.5076 -56.4967 -56.4967 -56.4801 -56.4801 -56.4779 -56.4779
   -28.5919 -28.5866 -28.5830 -28.5801 -28.5409 -28.5385 -28.5109 -28.5103
   -27.6412 -27.6361 -27.5817 -27.5756 -27.5669 -27.5501 -27.5446 -27.5316
   -27.5262 -27.4925 -27.4869 -27.4700 -27.4624 -27.4562 -27.4402 -27.4369
     3.7448   3.7450   5.2139   5.2149   7.6679   7.6698   8.4241   8.4278
     9.7362   9.7395  10.2163  10.2203  11.0142  11.0202  11.1803  11.1942
    11.8664  11.8717  12.1812  12.1908  12.6387  12.6453  12.8659  12.8758
    13.0650  13.0712  13.2695  13.2743  13.3335  13.3354  13.4465  13.4494
    13.6023  13.6092  13.9673  13.9741  14.2911  14.3082  14.8251  14.8587
    15.2780  15.2938  15.3776  15.3900  15.6912  15.7174  15.8248  15.8543
    16.1470  16.1556  16.3590  16.3724  17.3038  17.3275

     occupation numbers 
     1.0000   1.0000   1.0000   1.0000   1.0000   1.0000   1.0000   1.0000
     1.0000   1.0000   1.0000   1.0000   1.0000   1.0000   1.0000   1.0000
     1.0000   1.0000   1.0000   1.0000   1.0000   1.0000   1.0000   1.0000
     1.0000   1.0000   1.0000   1.0000   1.0000   1.0000   1.0000   1.0000
     1.0000   1.0000   1.0000   1.0000   1.0000   1.0000   1.0000   1.0000
     1.0000   1.0000   1.0000   1.0000   1.0000   1.0000   1.0000   1.0000
     1.0000   1.0000   1.0000   1.0000   1.0000   1.0000   1.0000   1.0000
     1.0000   1.0000   1.0000   1.0000   1.0000   1.0000   1.0000   1.0000
     1.0000   1.0000   1.0000   1.0000   1.0000   1.0000   1.0253   1.0342
    -0.0000  -0.0000  -0.0000  -0.0000  -0.0000  -0.0000  -0.0000  -0.0000
    -0.0000  -0.0000  -0.0000  -0.0000  -0.0000  -0.0000

          k = 0.0000 0.1250-0.5000 (  9664 PWs)   bands (ev):

   -56.5023 -56.5023 -56.5023 -56.5023 -56.4788 -56.4788 -56.4788 -56.4788
   -28.5890 -28.5890 -28.5829 -28.5829 -28.5260 -28.5260 -28.5237 -28.5237
   -27.6397 -27.6397 -27.5746 -27.5746 -27.5614 -27.5614 -27.5383 -27.5383
   -27.5097 -27.5097 -27.4770 -27.4770 -27.4605 -27.4605 -27.4382 -27.4382
     4.4221   4.4221   4.4227   4.4227   8.0586   8.0586   8.0655   8.0655
     9.9962   9.9962  10.0006  10.0006  11.0367  11.0367  11.0508  11.0508
    12.1471  12.1471  12.1526  12.1526  12.5969  12.5969  12.6133  12.6133
    13.2261  13.2261  13.2287  13.2287  13.3314  13.3314  13.3326  13.3326
    13.8295  13.8295  13.8331  13.8331  14.5992  14.5992  14.6296  14.6296
    15.3005  15.3005  15.3163  15.3163  15.7554  15.7554  15.7851  15.7851
    16.2050  16.2050  16.2160  16.2160  17.5189  17.5263

     occupation numbers 
     1.0000   1.0000   1.0000   1.0000   1.0000   1.0000   1.0000   1.0000
     1.0000   1.0000   1.0000   1.0000   1.0000   1.0000   1.0000   1.0000
     1.0000   1.0000   1.0000   1.0000   1.0000   1.0000   1.0000   1.0000
     1.0000   1.0000   1.0000   1.0000   1.0000   1.0000   1.0000   1.0000
     1.0000   1.0000   1.0000   1.0000   1.0000   1.0000   1.0000   1.0000
     1.0000   1.0000   1.0000   1.0000   1.0000   1.0000   1.0000   1.0000
     1.0000   1.0000   1.0000   1.0000   1.0000   1.0000   1.0000   1.0000
     1.0000   1.0000   1.0000   1.0000   1.0000   1.0000   1.0000   1.0000
     1.0000   1.0000   1.0000   1.0000   1.0000   1.0000   1.0000   1.0000
    -0.0000  -0.0000  -0.0000  -0.0000  -0.0000  -0.0000  -0.0000  -0.0000
    -0.0000  -0.0000  -0.0000  -0.0000  -0.0000  -0.0000

          k = 0.0000 0.2500 0.2500 (  9661 PWs)   bands (ev):

   -56.5094 -56.5094 -56.4932 -56.4932 -56.4819 -56.4819 -56.4778 -56.4778
   -28.5918 -28.5864 -28.5767 -28.5760 -28.5514 -28.5479 -28.5061 -28.5057
   -27.6365 -27.6334 -27.5851 -27.5827 -27.5590 -27.5550 -27.5426 -27.5419
   -27.5224 -27.4950 -27.4849 -27.4753 -27.4645 -27.4485 -27.4381 -27.4343
     3.5429   3.5430   5.9655   5.9687   6.9414   6.9453   8.4362   8.4412
     9.7518   9.7550  10.1866  10.1918  10.9256  10.9280  11.3505  11.3516
    11.8600  11.8637  12.2864  12.2899  12.5059  12.5151  12.9031  12.9107
    13.1467  13.1560  13.2693  13.2788  13.4407  13.4422  13.5194  13.5286
    13.5704  13.5809  13.9839  13.9962  14.2201  14.2257  15.0458  15.0662
    15.1391  15.1637  15.2922  15.3037  15.6129  15.6381  15.7617  15.7905
    16.1594  16.1703  16.5122  16.5229  17.1853  17.2282

     occupation numbers 
     1.0000   1.0000   1.0000   1.0000   1.0000   1.0000   1.0000   1.0000
     1.0000   1.0000   1.0000   1.0000   1.0000   1.0000   1.0000   1.0000
     1.0000   1.0000   1.0000   1.0000   1.0000   1.0000   1.0000   1.0000
     1.0000   1.0000   1.0000   1.0000   1.0000   1.0000   1.0000   1.0000
     1.0000   1.0000   1.0000   1.0000   1.0000   1.0000   1.0000   1.0000
     1.0000   1.0000   1.0000   1.0000   1.0000   1.0000   1.0000   1.0000
     1.0000   1.0000   1.0000   1.0000   1.0000   1.0000   1.0000   1.0000
     1.0000   1.0000   1.0000   1.0000   1.0000   1.0000   1.0000   1.0000
     1.0000   1.0000   1.0000   1.0000   1.0000   1.0000  -0.0345  -0.0317
    -0.0028  -0.0007  -0.0000  -0.0000  -0.0000  -0.0000  -0.0000  -0.0000
    -0.0000  -0.0000  -0.0000  -0.0000  -0.0000  -0.0000

          k = 0.0000 0.2500 0.3750 (  9639 PWs)   bands (ev):

   -56.5056 -56.5056 -56.4967 -56.4967 -56.4813 -56.4813 -56.4787 -56.4786
   -28.5892 -28.5848 -28.5790 -28.5770 -28.5421 -28.5398 -28.5168 -28.5163
   -27.6348 -27.6320 -27.5838 -27.5767 -27.5635 -27.5530 -27.5434 -27.5331
   -27.5262 -27.5003 -27.4916 -27.4817 -27.4610 -27.4488 -27.4353 -27.4327
     4.0410   4.0415   5.4175   5.4193   7.0450   7.0481   8.0210   8.0244
     9.9170   9.9203  10.1871  10.1904  11.0281  11.0319  11.3806  11.3881
    11.8896  11.8916  12.0246  12.0288  12.4327  12.4437  12.6520  12.6620
    13.2334  13.2428  13.3288  13.3341  13.4376  13.4414  13.6530  13.6559
    13.7900  13.7934  14.0663  14.0758  14.4540  14.4794  14.8302  14.8570
    15.0706  15.0918  15.1459  15.1513  15.5744  15.5989  15.6785  15.7106
    16.2000  16.2070  16.4541  16.4646  17.1901  17.2189

     occupation numbers 
     1.0000   1.0000   1.0000   1.0000   1.0000   1.0000   1.0000   1.0000
     1.0000   1.0000   1.0000   1.0000   1.0000   1.0000   1.0000   1.0000
     1.0000   1.0000   1.0000   1.0000   1.0000   1.0000   1.0000   1.0000
     1.0000   1.0000   1.0000   1.0000   1.0000   1.0000   1.0000   1.0000
     1.0000   1.0000   1.0000   1.0000   1.0000   1.0000   1.0000   1.0000
     1.0000   1.0000   1.0000   1.0000   1.0000   1.0000   1.0000   1.0000
     1.0000   1.0000   1.0000   1.0000   1.0000   1.0000   1.0000   1.0000
     1.0000   1.0000   1.0000   1.0000   1.0000   1.0000   1.0000   1.0000
     1.0000   1.0000   1.0000   1.0000   1.0000   1.0000   1.0281   1.0348
    -0.0296  -0.0179  -0.0020  -0.0015  -0.0000  -0.0000  -0.0000  -0.0000
    -0.0000  -0.0000  -0.0000  -0.0000  -0.0000  -0.0000

          k = 0.0000 0.2500-0.5000 (  9686 PWs)   bands (ev):

   -56.5011 -56.5011 -56.5011 -56.5011 -56.4800 -56.4800 -56.4800 -56.4800
   -28.5853 -28.5853 -28.5798 -28.5798 -28.5306 -28.5306 -28.5274 -28.5274
   -27.6327 -27.6327 -27.5804 -27.5804 -27.5579 -27.5579 -27.5366 -27.5366
   -27.5167 -27.5167 -27.4875 -27.4875 -27.4537 -27.4537 -27.4333 -27.4333
     4.6919   4.6919   4.6929   4.6929   7.4837   7.4837   7.4899   7.4899
    10.1294  10.1294  10.1324  10.1324  11.2001  11.2001  11.2118  11.2118
    11.9550  11.9550  11.9569  11.9569  12.4182  12.4182  12.4306  12.4306
    13.3454  13.3454  13.3519  13.3519  13.5152  13.5152  13.5213  13.5213
    13.9873  13.9873  13.9929  13.9929  14.6543  14.6543  14.6848  14.6848
    15.0835  15.0835  15.0952  15.0952  15.6016  15.6016  15.6304  15.6304
    16.3324  16.3324  16.3434  16.3434  17.3577  17.3608

     occupation numbers 
     1.0000   1.0000   1.0000   1.0000   1.0000   1.0000   1.0000   1.0000
     1.0000   1.0000   1.0000   1.0000   1.0000   1.0000   1.0000   1.0000
     1.0000   1.0000   1.0000   1.0000   1.0000   1.0000   1.0000   1.0000
     1.0000   1.0000   1.0000   1.0000   1.0000   1.0000   1.0000   1.0000
     1.0000   1.0000   1.0000   1.0000   1.0000   1.0000   1.0000   1.0000
     1.0000   1.0000   1.0000   1.0000   1.0000   1.0000   1.0000   1.0000
     1.0000   1.0000   1.0000   1.0000   1.0000   1.0000   1.0000   1.0000
     1.0000   1.0000   1.0000   1.0000   1.0000   1.0000   1.0000   1.0000
     1.0000   1.0000   1.0000   1.0000   1.0000   1.0000   1.0000   1.0000
    -0.0224  -0.0224  -0.0162  -0.0162  -0.0000  -0.0000  -0.0000  -0.0000
    -0.0000  -0.0000  -0.0000  -0.0000  -0.0000  -0.0000

          k = 0.0000 0.3750 0.3750 (  9632 PWs)   bands (ev):

   -56.5028 -56.5028 -56.4975 -56.4975 -56.4820 -56.4820 -56.4800 -56.4800
   -28.5849 -28.5815 -28.5765 -28.5757 -28.5407 -28.5388 -28.5254 -28.5245
   -27.6264 -27.6259 -27.5897 -27.5857 -27.5553 -27.5498 -27.5394 -27.5328
   -27.5276 -27.5063 -27.5040 -27.4945 -27.4516 -27.4423 -27.4340 -27.4313
     4.5100   4.5106   5.5236   5.5252   6.5730   6.5751   7.4028   7.4058
    10.2462  10.2475  10.4518  10.4529  10.9113  10.9121  11.2394  11.2425
    11.7860  11.7890  12.0555  12.0595  12.2634  12.2658  12.4686  12.4762
    13.2319  13.2395  13.3885  13.3901  13.6716  13.6721  13.8195  13.8245
    14.0549  14.0670  14.1495  14.1604  14.5568  14.5769  14.7398  14.7518
    14.8525  14.8716  14.9545  14.9779  15.4752  15.4947  15.5157  15.5430
    16.3213  16.3317  16.5104  16.5160  17.0888  17.1112

     occupation numbers 
     1.0000   1.0000   1.0000   1.0000   1.0000   1.0000   1.0000   1.0000
     1.0000   1.0000   1.0000   1.0000   1.0000   1.0000   1.0000   1.0000
     1.0000   1.0000   1.0000   1.0000   1.0000   1.0000   1.0000   1.0000
     1.0000   1.0000   1.0000   1.0000   1.0000   1.0000   1.0000   1.0000
     1.0000   1.0000   1.0000   1.0000   1.0000   1.0000   1.0000   1.0000
     1.0000   1.0000   1.0000   1.0000   1.0000   1.0000   1.0000   1.0000
     1.0000   1.0000   1.0000   1.0000   1.0000   1.0000   1.0000   1.0000
     1.0000   1.0000   1.0000   1.0000   1.0000   1.0000   1.0000   1.0000
     1.0000   1.0000   1.0000   1.0000   1.0000   1.0000   1.0007   1.0014
     1.0354   1.0232   0.4720   0.2445  -0.0000  -0.0000  -0.0000  -0.0000
    -0.0000  -0.0000  -0.0000  -0.0000  -0.0000  -0.0000

          k = 0.0000 0.3750-0.5000 (  9642 PWs)   bands (ev):

   -56.4998 -56.4998 -56.4998 -56.4998 -56.4814 -56.4814 -56.4814 -56.4814
   -28.5804 -28.5804 -28.5767 -28.5767 -28.5350 -28.5350 -28.5324 -28.5324
   -27.6216 -27.6216 -27.5931 -27.5931 -27.5486 -27.5486 -27.5353 -27.5353
   -27.5203 -27.5203 -27.5030 -27.5030 -27.4437 -27.4437 -27.4324 -27.4324
     5.0901   5.0901   5.0916   5.0916   6.8117   6.8117   6.8158   6.8158
    10.4497  10.4497  10.4511  10.4511  11.2416  11.2416  11.2497  11.2497
    11.6401  11.6401  11.6480  11.6480  12.3097  12.3097  12.3148  12.3148
    13.3637  13.3637  13.3695  13.3695  13.7678  13.7678  13.7769  13.7769
    14.2720  14.2720  14.2748  14.2748  14.5429  14.5429  14.5536  14.5536
    14.8848  14.8848  14.9038  14.9038  15.4562  15.4562  15.4759  15.4759
    16.4918  16.4918  16.5019  16.5019  17.1130  17.1160

     occupation numbers 
     1.0000   1.0000   1.0000   1.0000   1.0000   1.0000   1.0000   1.0000
     1.0000   1.0000   1.0000   1.0000   1.0000   1.0000   1.0000   1.0000
     1.0000   1.0000   1.0000   1.0000   1.0000   1.0000   1.0000   1.0000
     1.0000   1.0000   1.0000   1.0000   1.0000   1.0000   1.0000   1.0000
     1.0000   1.0000   1.0000   1.0000   1.0000   1.0000   1.0000   1.0000
     1.0000   1.0000   1.0000   1.0000   1.0000   1.0000   1.0000   1.0000
     1.0000   1.0000   1.0000   1.0000   1.0000   1.0000   1.0000   1.0000
     1.0000   1.0000   1.0000   1.0000   1.0000   1.0000   1.0000   1.0000
     1.0000   1.0000   1.0000   1.0000   1.0000   1.0000   1.0000   1.0000
     0.9953   0.9953   0.9145   0.9145  -0.0000  -0.0000  -0.0000  -0.0000
    -0.0000  -0.0000  -0.0000  -0.0000  -0.0000  -0.0000

          k = 0.0000-0.5000-0.5000 (  9580 PWs)   bands (ev):

   -56.4992 -56.4992 -56.4992 -56.4992 -56.4820 -56.4820 -56.4820 -56.4820
   -28.5767 -28.5767 -28.5767 -28.5767 -28.5359 -28.5359 -28.5359 -28.5359
   -27.6078 -27.6078 -27.6078 -27.6078 -27.5393 -27.5393 -27.5393 -27.5393
   -27.5157 -27.5157 -27.5157 -27.5157 -27.4361 -27.4361 -27.4361 -27.4361
     5.3718   5.3718   5.3718   5.3718   6.4279   6.4279   6.4279   6.4279
    10.7056  10.7056  10.7056  10.7056  11.2419  11.2419  11.2419  11.2419
    11.3849  11.3849  11.3849  11.3849  12.2845  12.2845  12.2845  12.2845
    13.3606  13.3606  13.3606  13.3606  14.0065  14.0065  14.0065  14.0065
    14.2913  14.2913  14.2913  14.2913  14.5254  14.5254  14.5254  14.5254
    14.7579  14.7579  14.7579  14.7579  15.4146  15.4146  15.4146  15.4146
    16.5871  16.5871  16.5871  16.5871  16.9822  16.9822

     occupation numbers 
     1.0000   1.0000   1.0000   1.0000   1.0000   1.0000   1.0000   1.0000
     1.0000   1.0000   1.0000   1.0000   1.0000   1.0000   1.0000   1.0000
     1.0000   1.0000   1.0000   1.0000   1.0000   1.0000   1.0000   1.0000
     1.0000   1.0000   1.0000   1.0000   1.0000   1.0000   1.0000   1.0000
     1.0000   1.0000   1.0000   1.0000   1.0000   1.0000   1.0000   1.0000
     1.0000   1.0000   1.0000   1.0000   1.0000   1.0000   1.0000   1.0000
     1.0000   1.0000   1.0000   1.0000   1.0000   1.0000   1.0000   1.0000
     1.0000   1.0000   1.0000   1.0000   1.0000   1.0000   1.0000   1.0000
     1.0000   1.0000   1.0000   1.0000   1.0000   1.0000   1.0000   1.0000
     1.0020   1.0020   1.0020   1.0020  -0.0000  -0.0000  -0.0000  -0.0000
    -0.0000  -0.0000  -0.0000  -0.0000  -0.0000  -0.0000

          k = 0.1250 0.1250 0.1250 (  9633 PWs)   bands (ev):

   -56.5137 -56.5137 -56.4884 -56.4884 -56.4823 -56.4823 -56.4779 -56.4779
   -28.5917 -28.5855 -28.5760 -28.5752 -28.5633 -28.5587 -28.4937 -28.4935
   -27.6340 -27.6325 -27.5982 -27.5931 -27.5537 -27.5473 -27.5451 -27.5435
   -27.5240 -27.5079 -27.4708 -27.4604 -27.4557 -27.4546 -27.4416 -27.4390
     3.0216   3.0217   6.5638   6.5704   7.1840   7.1913   8.2853   8.2895
     9.9222   9.9270  10.6108  10.6111  10.6520  10.6521  11.2991  11.3046
    11.9448  11.9458  12.3497  12.3610  12.7371  12.7391  12.8158  12.8248
    13.0608  13.0644  13.1624  13.1630  13.2407  13.2466  13.3405  13.3493
    13.4543  13.4624  13.7029  13.7074  14.0628  14.0703  15.3195  15.3237
    15.3549  15.3561  15.5729  15.5737  15.6349  15.6493  15.8106  15.8228
    16.3135  16.3331  16.6480  16.6565  16.9614  16.9967

     occupation numbers 
     1.0000   1.0000   1.0000   1.0000   1.0000   1.0000   1.0000   1.0000
     1.0000   1.0000   1.0000   1.0000   1.0000   1.0000   1.0000   1.0000
     1.0000   1.0000   1.0000   1.0000   1.0000   1.0000   1.0000   1.0000
     1.0000   1.0000   1.0000   1.0000   1.0000   1.0000   1.0000   1.0000
     1.0000   1.0000   1.0000   1.0000   1.0000   1.0000   1.0000   1.0000
     1.0000   1.0000   1.0000   1.0000   1.0000   1.0000   1.0000   1.0000
     1.0000   1.0000   1.0000   1.0000   1.0000   1.0000   1.0000   1.0000
     1.0000   1.0000   1.0000   1.0000   1.0000   1.0000   1.0000   1.0000
     1.0000   1.0000   1.0000   1.0000   1.0000   1.0000  -0.0000  -0.0000
    -0.0000  -0.0000  -0.0000  -0.0000  -0.0000  -0.0000  -0.0000  -0.0000
    -0.0000  -0.0000  -0.0000  -0.0000  -0.0000  -0.0000

          k = 0.1250 0.1250 0.2500 (  9648 PWs)   bands (ev):

   -56.5110 -56.5110 -56.4917 -56.4917 -56.4819 -56.4819 -56.4776 -56.4776
   -28.5924 -28.5866 -28.5771 -28.5762 -28.5548 -28.5510 -28.5014 -28.5010
   -27.6378 -27.6330 -27.5904 -27.5836 -27.5578 -27.5512 -27.5464 -27.5419
   -27.5216 -27.4985 -27.4804 -27.4655 -27.4615 -27.4553 -27.4387 -27.4364
     3.3370   3.3371   6.0628   6.0660   7.2204   7.2248   8.4041   8.4082
     9.6716   9.6737  10.4343  10.4382  10.6889  10.6928  11.4163  11.4203
    11.8416  11.8466  12.2991  12.3025  12.7370  12.7422  13.0064  13.0115
    13.0809  13.0877  13.1134  13.1211  13.2795  13.2841  13.4374  13.4468
    13.6233  13.6318  13.8378  13.8464  14.1515  14.1576  15.0811  15.1063
    15.2818  15.2969  15.4429  15.4565  15.5861  15.6034  15.8085  15.8278
    16.2008  16.2165  16.5427  16.5565  17.1174  17.1527

     occupation numbers 
     1.0000   1.0000   1.0000   1.0000   1.0000   1.0000   1.0000   1.0000
     1.0000   1.0000   1.0000   1.0000   1.0000   1.0000   1.0000   1.0000
     1.0000   1.0000   1.0000   1.0000   1.0000   1.0000   1.0000   1.0000
     1.0000   1.0000   1.0000   1.0000   1.0000   1.0000   1.0000   1.0000
     1.0000   1.0000   1.0000   1.0000   1.0000   1.0000   1.0000   1.0000
     1.0000   1.0000   1.0000   1.0000   1.0000   1.0000   1.0000   1.0000
     1.0000   1.0000   1.0000   1.0000   1.0000   1.0000   1.0000   1.0000
     1.0000   1.0000   1.0000   1.0000   1.0000   1.0000   1.0000   1.0000
     1.0000   1.0000   1.0000   1.0000   1.0000   1.0000  -0.0238  -0.0111
    -0.0000  -0.0000  -0.0000  -0.0000  -0.0000  -0.0000  -0.0000  -0.0000
    -0.0000  -0.0000  -0.0000  -0.0000  -0.0000  -0.0000

          k = 0.1250 0.1250 0.3750 (  9660 PWs)   bands (ev):

   -56.5069 -56.5069 -56.4965 -56.4965 -56.4807 -56.4807 -56.4781 -56.4781
   -28.5909 -28.5861 -28.5811 -28.5787 -28.5418 -28.5393 -28.5131 -28.5123
   -27.6391 -27.6347 -27.5808 -27.5752 -27.5660 -27.5532 -27.5453 -27.5333
   -27.5245 -27.4995 -27.4818 -27.4697 -27.4651 -27.4584 -27.4369 -27.4353
     3.8448   3.8450   5.2906   5.2917   7.5135   7.5158   8.3088   8.3132
     9.5584   9.5594  10.2042  10.2075  10.9208  10.9252  11.4069  11.4129
    11.7848  11.7881  12.2116  12.2153  12.7415  12.7472  12.9479  12.9556
    13.0574  13.0656  13.2272  13.2343  13.3243  13.3279  13.4297  13.4361
    13.6937  13.6966  13.9766  13.9840  14.3499  14.3699  14.8302  14.8629
    15.2434  15.2596  15.3153  15.3285  15.6072  15.6273  15.7659  15.7893
    16.1531  16.1625  16.3769  16.3914  17.3093  17.3328

     occupation numbers 
     1.0000   1.0000   1.0000   1.0000   1.0000   1.0000   1.0000   1.0000
     1.0000   1.0000   1.0000   1.0000   1.0000   1.0000   1.0000   1.0000
     1.0000   1.0000   1.0000   1.0000   1.0000   1.0000   1.0000   1.0000
     1.0000   1.0000   1.0000   1.0000   1.0000   1.0000   1.0000   1.0000
     1.0000   1.0000   1.0000   1.0000   1.0000   1.0000   1.0000   1.0000
     1.0000   1.0000   1.0000   1.0000   1.0000   1.0000   1.0000   1.0000
     1.0000   1.0000   1.0000   1.0000   1.0000   1.0000   1.0000   1.0000
     1.0000   1.0000   1.0000   1.0000   1.0000   1.0000   1.0000   1.0000
     1.0000   1.0000   1.0000   1.0000   1.0000   1.0000   1.0281   1.0321
    -0.0000  -0.0000  -0.0000  -0.0000  -0.0000  -0.0000  -0.0000  -0.0000
    -0.0000  -0.0000  -0.0000  -0.0000  -0.0000  -0.0000

          k = 0.1250 0.1250-0.5000 (  9650 PWs)   bands (ev):

   -56.5018 -56.5018 -56.5018 -56.5018 -56.4793 -56.4793 -56.4793 -56.4793
   -28.5877 -28.5877 -28.5817 -28.5817 -28.5279 -28.5279 -28.5250 -28.5250
   -27.6374 -27.6374 -27.5735 -27.5735 -27.5637 -27.5637 -27.5371 -27.5371
   -27.5139 -27.5139 -27.4748 -27.4748 -27.4629 -27.4629 -27.4357 -27.4357
     4.5143   4.5143   4.5149   4.5149   7.9202   7.9202   7.9265   7.9265
     9.8404   9.8404   9.8418   9.8418  11.1810  11.1810  11.1907  11.1907
    12.0264  12.0264  12.0301  12.0301  12.7773  12.7773  12.7900  12.7900
    13.1751  13.1751  13.1832  13.1832  13.3645  13.3645  13.3674  13.3674
    13.8481  13.8481  13.8541  13.8541  14.6286  14.6286  14.6607  14.6607
    15.2441  15.2441  15.2632  15.2632  15.6823  15.6823  15.7084  15.7084
    16.2233  16.2233  16.2335  16.2335  17.6139  17.6154

     occupation numbers 
     1.0000   1.0000   1.0000   1.0000   1.0000   1.0000   1.0000   1.0000
     1.0000   1.0000   1.0000   1.0000   1.0000   1.0000   1.0000   1.0000
     1.0000   1.0000   1.0000   1.0000   1.0000   1.0000   1.0000   1.0000
     1.0000   1.0000   1.0000   1.0000   1.0000   1.0000   1.0000   1.0000
     1.0000   1.0000   1.0000   1.0000   1.0000   1.0000   1.0000   1.0000
     1.0000   1.0000   1.0000   1.0000   1.0000   1.0000   1.0000   1.0000
     1.0000   1.0000   1.0000   1.0000   1.0000   1.0000   1.0000   1.0000
     1.0000   1.0000   1.0000   1.0000   1.0000   1.0000   1.0000   1.0000
     1.0000   1.0000   1.0000   1.0000   1.0000   1.0000   1.0000   1.0000
    -0.0000  -0.0000  -0.0000  -0.0000  -0.0000  -0.0000  -0.0000  -0.0000
    -0.0000  -0.0000  -0.0000  -0.0000  -0.0000  -0.0000

          k = 0.1250 0.2500 0.2500 (  9649 PWs)   bands (ev):

   -56.5086 -56.5086 -56.4932 -56.4932 -56.4825 -56.4825 -56.4780 -56.4780
   -28.5912 -28.5860 -28.5751 -28.5746 -28.5519 -28.5482 -28.5085 -28.5079
   -27.6353 -27.6322 -27.5865 -27.5785 -27.5593 -27.5541 -27.5477 -27.5433
   -27.5182 -27.5007 -27.4825 -27.4700 -27.4679 -27.4529 -27.4359 -27.4337
     3.6448   3.6449   6.0136   6.0180   6.9146   6.9210   8.2969   8.3007
     9.4087   9.4115  10.4280  10.4297  10.6904  10.6929  11.4593  11.4642
    11.9039  11.9065  12.3018  12.3037  12.6214  12.6278  12.9555  12.9618
    13.1168  13.1217  13.1928  13.2035  13.2819  13.2874  13.5783  13.5852
    13.7489  13.7566  13.9704  13.9795  14.2869  14.2939  15.0246  15.0419
    15.1579  15.1783  15.2833  15.2959  15.4969  15.5089  15.7190  15.7397
    16.1682  16.1791  16.5171  16.5296  17.1461  17.1867

     occupation numbers 
     1.0000   1.0000   1.0000   1.0000   1.0000   1.0000   1.0000   1.0000
     1.0000   1.0000   1.0000   1.0000   1.0000   1.0000   1.0000   1.0000
     1.0000   1.0000   1.0000   1.0000   1.0000   1.0000   1.0000   1.0000
     1.0000   1.0000   1.0000   1.0000   1.0000   1.0000   1.0000   1.0000
     1.0000   1.0000   1.0000   1.0000   1.0000   1.0000   1.0000   1.0000
     1.0000   1.0000   1.0000   1.0000   1.0000   1.0000   1.0000   1.0000
     1.0000   1.0000   1.0000   1.0000   1.0000   1.0000   1.0000   1.0000
     1.0000   1.0000   1.0000   1.0000   1.0000   1.0000   1.0000   1.0000
     1.0000   1.0000   1.0000   1.0000   1.0000   1.0000  -0.0099  -0.0328
    -0.0010  -0.0003  -0.0000  -0.0000  -0.0000  -0.0000  -0.0000  -0.0000
    -0.0000  -0.0000  -0.0000  -0.0000  -0.0000  -0.0000

          k = 0.1250 0.2500 0.3750 (  9647 PWs)   bands (ev):

   -56.5049 -56.5049 -56.4964 -56.4964 -56.4820 -56.4820 -56.4790 -56.4790
   -28.5882 -28.5839 -28.5774 -28.5756 -28.5433 -28.5409 -28.5190 -28.5181
   -27.6330 -27.6302 -27.5830 -27.5754 -27.5657 -27.5556 -27.5431 -27.5360
   -27.5220 -27.5090 -27.4840 -27.4777 -27.4636 -27.4523 -27.4343 -27.4322
     4.1382   4.1386   5.4910   5.4931   7.0393   7.0432   7.9715   7.9747
     9.4103   9.4127  10.1453  10.1477  11.0641  11.0672  11.5738  11.5797
    11.8039  11.8113  12.0652  12.0669  12.5151  12.5252  12.7876  12.7953
    13.2074  13.2127  13.2896  13.3019  13.3522  13.3578  13.5986  13.6079
    13.8624  13.8739  14.0966  14.1081  14.5026  14.5308  14.8372  14.8639
    15.0691  15.0787  15.1454  15.1591  15.5063  15.5190  15.6317  15.6546
    16.2018  16.2087  16.4436  16.4545  17.1760  17.2026

     occupation numbers 
     1.0000   1.0000   1.0000   1.0000   1.0000   1.0000   1.0000   1.0000
     1.0000   1.0000   1.0000   1.0000   1.0000   1.0000   1.0000   1.0000
     1.0000   1.0000   1.0000   1.0000   1.0000   1.0000   1.0000   1.0000
     1.0000   1.0000   1.0000   1.0000   1.0000   1.0000   1.0000   1.0000
     1.0000   1.0000   1.0000   1.0000   1.0000   1.0000   1.0000   1.0000
     1.0000   1.0000   1.0000   1.0000   1.0000   1.0000   1.0000   1.0000
     1.0000   1.0000   1.0000   1.0000   1.0000   1.0000   1.0000   1.0000
     1.0000   1.0000   1.0000   1.0000   1.0000   1.0000   1.0000   1.0000
     1.0000   1.0000   1.0000   1.0000   1.0000   1.0000   1.0316   1.0314
    -0.0303  -0.0252  -0.0020  -0.0010  -0.0000  -0.0000  -0.0000  -0.0000
    -0.0000  -0.0000  -0.0000  -0.0000  -0.0000  -0.0000

          k = 0.1250 0.2500-0.5000 (  9646 PWs)   bands (ev):

   -56.5006 -56.5006 -56.5006 -56.5006 -56.4805 -56.4805 -56.4805 -56.4805
   -28.5840 -28.5840 -28.5785 -28.5785 -28.5324 -28.5324 -28.5288 -28.5288
   -27.6306 -27.6306 -27.5790 -27.5790 -27.5619 -27.5619 -27.5344 -27.5344
   -27.5203 -27.5203 -27.4828 -27.4828 -27.4565 -27.4565 -27.4328 -27.4328
     4.7808   4.7808   4.7819   4.7819   7.4688   7.4688   7.4751   7.4751
     9.7441   9.7441   9.7465   9.7465  11.5279  11.5279  11.5355  11.5355
    11.7436  11.7436  11.7474  11.7474  12.5996  12.5996  12.6110  12.6110
    13.2913  13.2913  13.2976  13.2976  13.4697  13.4697  13.4812  13.4812
    14.0237  14.0237  14.0318  14.0318  14.6935  14.6935  14.7259  14.7259
    15.0653  15.0653  15.0816  15.0816  15.5545  15.5545  15.5782  15.5782
    16.3194  16.3194  16.3283  16.3283  17.3780  17.3817

     occupation numbers 
     1.0000   1.0000   1.0000   1.0000   1.0000   1.0000   1.0000   1.0000
     1.0000   1.0000   1.0000   1.0000   1.0000   1.0000   1.0000   1.0000
     1.0000   1.0000   1.0000   1.0000   1.0000   1.0000   1.0000   1.0000
     1.0000   1.0000   1.0000   1.0000   1.0000   1.0000   1.0000   1.0000
     1.0000   1.0000   1.0000   1.0000   1.0000   1.0000   1.0000   1.0000
     1.0000   1.0000   1.0000   1.0000   1.0000   1.0000   1.0000   1.0000
     1.0000   1.0000   1.0000   1.0000   1.0000   1.0000   1.0000   1.0000
     1.0000   1.0000   1.0000   1.0000   1.0000   1.0000   1.0000   1.0000
     1.0000   1.0000   1.0000   1.0000   1.0000   1.0000   1.0003   1.0003
    -0.0321  -0.0321  -0.0235  -0.0235  -0.0000  -0.0000  -0.0000  -0.0000
    -0.0000  -0.0000  -0.0000  -0.0000  -0.0000  -0.0000

          k = 0.1250 0.3750 0.3750 (  9632 PWs)   bands (ev):

   -56.5021 -56.5021 -56.4970 -56.4970 -56.4826 -56.4826 -56.4805 -56.4805
   -28.5837 -28.5803 -28.5751 -28.5742 -28.5422 -28.5402 -28.5273 -28.5262
   -27.6252 -27.6236 -27.5885 -27.5844 -27.5609 -27.5537 -27.5394 -27.5330
   -27.5240 -27.5159 -27.4931 -27.4887 -27.4541 -27.4458 -27.4343 -27.4314
     4.6020   4.6026   5.5962   5.5985   6.6179   6.6214   7.4192   7.4223
     9.5842   9.5867  10.2019  10.2052  10.9490  10.9511  11.5402  11.5426
    11.7635  11.7681  12.1094  12.1113  12.3540  12.3585  12.6178  12.6244
    13.1907  13.1963  13.3126  13.3178  13.5597  13.5685  13.7642  13.7803
    14.0179  14.0314  14.2995  14.3086  14.5618  14.5804  14.7907  14.8055
    14.8764  14.8813  14.9908  15.0207  15.4311  15.4317  15.5016  15.5136
    16.3016  16.3110  16.4773  16.4836  17.0634  17.0846

     occupation numbers 
     1.0000   1.0000   1.0000   1.0000   1.0000   1.0000   1.0000   1.0000
     1.0000   1.0000   1.0000   1.0000   1.0000   1.0000   1.0000   1.0000
     1.0000   1.0000   1.0000   1.0000   1.0000   1.0000   1.0000   1.0000
     1.0000   1.0000   1.0000   1.0000   1.0000   1.0000   1.0000   1.0000
     1.0000   1.0000   1.0000   1.0000   1.0000   1.0000   1.0000   1.0000
     1.0000   1.0000   1.0000   1.0000   1.0000   1.0000   1.0000   1.0000
     1.0000   1.0000   1.0000   1.0000   1.0000   1.0000   1.0000   1.0000
     1.0000   1.0000   1.0000   1.0000   1.0000   1.0000   1.0000   1.0000
     1.0000   1.0000   1.0000   1.0000   1.0000   1.0000   1.0087   1.0147
     1.0153   1.0047   0.1428  -0.0003  -0.0000  -0.0000  -0.0000  -0.0000
    -0.0000  -0.0000  -0.0000  -0.0000  -0.0000  -0.0000

          k = 0.1250 0.3750-0.5000 (  9656 PWs)   bands (ev):

   -56.4992 -56.4992 -56.4992 -56.4992 -56.4820 -56.4820 -56.4820 -56.4820
   -28.5791 -28.5791 -28.5754 -28.5754 -28.5367 -28.5367 -28.5340 -28.5340
   -27.6200 -27.6200 -27.5916 -27.5916 -27.5554 -27.5554 -27.5332 -27.5332
   -27.5224 -27.5224 -27.4955 -27.4955 -27.4465 -27.4465 -27.4330 -27.4330
     5.1733   5.1733   5.1748   5.1748   6.8552   6.8552   6.8596   6.8596
     9.9259   9.9259   9.9290   9.9290  11.2676  11.2676  11.2696  11.2696
    11.8654  11.8654  11.8729  11.8729  12.4201  12.4201  12.4278  12.4278
    13.2911  13.2911  13.2949  13.2949  13.6805  13.6805  13.6946  13.6946
    14.2858  14.2858  14.2925  14.2925  14.6328  14.6328  14.6452  14.6452
    14.9016  14.9016  14.9206  14.9206  15.4286  15.4286  15.4444  15.4444
    16.4457  16.4457  16.4534  16.4534  17.0926  17.0960

     occupation numbers 
     1.0000   1.0000   1.0000   1.0000   1.0000   1.0000   1.0000   1.0000
     1.0000   1.0000   1.0000   1.0000   1.0000   1.0000   1.0000   1.0000
     1.0000   1.0000   1.0000   1.0000   1.0000   1.0000   1.0000   1.0000
     1.0000   1.0000   1.0000   1.0000   1.0000   1.0000   1.0000   1.0000
     1.0000   1.0000   1.0000   1.0000   1.0000   1.0000   1.0000   1.0000
     1.0000   1.0000   1.0000   1.0000   1.0000   1.0000   1.0000   1.0000
     1.0000   1.0000   1.0000   1.0000   1.0000   1.0000   1.0000   1.0000
     1.0000   1.0000   1.0000   1.0000   1.0000   1.0000   1.0000   1.0000
     1.0000   1.0000   1.0000   1.0000   1.0000   1.0000   1.0000   1.0000
     0.9268   0.9268   0.7987   0.7987  -0.0000  -0.0000  -0.0000  -0.0000
    -0.0000  -0.0000  -0.0000  -0.0000  -0.0000  -0.0000

          k = 0.1250-0.5000-0.5000 (  9632 PWs)   bands (ev):

   -56.4985 -56.4985 -56.4985 -56.4985 -56.4826 -56.4826 -56.4826 -56.4826
   -28.5754 -28.5754 -28.5752 -28.5752 -28.5377 -28.5377 -28.5374 -28.5374
   -27.6091 -27.6091 -27.6035 -27.6035 -27.5516 -27.5516 -27.5345 -27.5345
   -27.5200 -27.5200 -27.5026 -27.5026 -27.4404 -27.4404 -27.4356 -27.4356
     5.4490   5.4490   5.4500   5.4500   6.4887   6.4887   6.4906   6.4906
    10.0927  10.0927  10.0962  10.0962  11.0427  11.0427  11.0444  11.0444
    11.9593  11.9593  11.9617  11.9617  12.3353  12.3353  12.3378  12.3378
    13.2734  13.2734  13.2742  13.2742  13.8459  13.8459  13.8593  13.8593
    14.3431  14.3431  14.3485  14.3485  14.6310  14.6310  14.6475  14.6475
    14.8014  14.8014  14.8034  14.8034  15.3828  15.3828  15.3830  15.3830
    16.5202  16.5202  16.5217  16.5217  16.9684  16.9699

     occupation numbers 
     1.0000   1.0000   1.0000   1.0000   1.0000   1.0000   1.0000   1.0000
     1.0000   1.0000   1.0000   1.0000   1.0000   1.0000   1.0000   1.0000
     1.0000   1.0000   1.0000   1.0000   1.0000   1.0000   1.0000   1.0000
     1.0000   1.0000   1.0000   1.0000   1.0000   1.0000   1.0000   1.0000
     1.0000   1.0000   1.0000   1.0000   1.0000   1.0000   1.0000   1.0000
     1.0000   1.0000   1.0000   1.0000   1.0000   1.0000   1.0000   1.0000
     1.0000   1.0000   1.0000   1.0000   1.0000   1.0000   1.0000   1.0000
     1.0000   1.0000   1.0000   1.0000   1.0000   1.0000   1.0000   1.0000
     1.0000   1.0000   1.0000   1.0000   1.0000   1.0000   1.0000   1.0000
     1.0128   1.0128   1.0137   1.0137  -0.0000  -0.0000  -0.0000  -0.0000
    -0.0000  -0.0000  -0.0000  -0.0000  -0.0000  -0.0000

          k = 0.2500 0.2500 0.2500 (  9651 PWs)   bands (ev):

   -56.5063 -56.5063 -56.4937 -56.4937 -56.4835 -56.4835 -56.4788 -56.4788
   -28.5890 -28.5842 -28.5723 -28.5723 -28.5513 -28.5478 -28.5152 -28.5141
   -27.6321 -27.6287 -27.5853 -27.5744 -27.5620 -27.5595 -27.5456 -27.5448
   -27.5129 -27.5117 -27.4758 -27.4747 -27.4630 -27.4604 -27.4344 -27.4322
     3.9446   3.9447   6.0545   6.0612   6.7952   6.8055   8.0512   8.0521
     9.0668   9.0695  10.0619  10.0655  11.1544  11.1587  11.1986  11.1990
    11.9198  11.9212  12.3548  12.3564  12.8103  12.8169  12.8816  12.8824
    13.1329  13.1396  13.1417  13.1523  13.1837  13.1886  13.7568  13.7656
    13.7728  13.7851  14.0637  14.0711  14.4491  14.4664  14.9857  15.0018
    15.1269  15.1303  15.2643  15.2650  15.3042  15.3102  15.6124  15.6316
    16.1812  16.1894  16.4813  16.4926  17.1246  17.1543

     occupation numbers 
     1.0000   1.0000   1.0000   1.0000   1.0000   1.0000   1.0000   1.0000
     1.0000   1.0000   1.0000   1.0000   1.0000   1.0000   1.0000   1.0000
     1.0000   1.0000   1.0000   1.0000   1.0000   1.0000   1.0000   1.0000
     1.0000   1.0000   1.0000   1.0000   1.0000   1.0000   1.0000   1.0000
     1.0000   1.0000   1.0000   1.0000   1.0000   1.0000   1.0000   1.0000
     1.0000   1.0000   1.0000   1.0000   1.0000   1.0000   1.0000   1.0000
     1.0000   1.0000   1.0000   1.0000   1.0000   1.0000   1.0000   1.0000
     1.0000   1.0000   1.0000   1.0000   1.0000   1.0000   1.0000   1.0000
     1.0000   1.0000   1.0000   1.0000   1.0000   1.0000   0.1803   0.0747
    -0.0049  -0.0042  -0.0000  -0.0000  -0.0000  -0.0000  -0.0000  -0.0000
    -0.0000  -0.0000  -0.0000  -0.0000  -0.0000  -0.0000

          k = 0.2500 0.2500 0.3750 (  9650 PWs)   bands (ev):

   -56.5030 -56.5030 -56.4957 -56.4957 -56.4833 -56.4833 -56.4802 -56.4802
   -28.5850 -28.5811 -28.5737 -28.5724 -28.5457 -28.5432 -28.5247 -28.5234
   -27.6279 -27.6250 -27.5820 -27.5745 -27.5688 -27.5642 -27.5418 -27.5351
   -27.5226 -27.5133 -27.4803 -27.4711 -27.4657 -27.4573 -27.4343 -27.4318
     4.4229   4.4232   5.6841   5.6871   6.9126   6.9186   7.7716   7.7744
     8.9808   8.9846   9.7543   9.7582  11.0332  11.0362  11.5967  11.5995
    11.6770  11.6803  12.2574  12.2621  12.7410  12.7507  12.8764  12.8837
    13.1092  13.1211  13.2122  13.2235  13.2924  13.2964  13.6208  13.6287
    13.9367  13.9467  14.2612  14.2725  14.6149  14.6474  14.8439  14.8632
    15.0185  15.0288  15.1800  15.2064  15.3250  15.3400  15.5238  15.5408
    16.2210  16.2278  16.4118  16.4199  17.1186  17.1337

     occupation numbers 
     1.0000   1.0000   1.0000   1.0000   1.0000   1.0000   1.0000   1.0000
     1.0000   1.0000   1.0000   1.0000   1.0000   1.0000   1.0000   1.0000
     1.0000   1.0000   1.0000   1.0000   1.0000   1.0000   1.0000   1.0000
     1.0000   1.0000   1.0000   1.0000   1.0000   1.0000   1.0000   1.0000
     1.0000   1.0000   1.0000   1.0000   1.0000   1.0000   1.0000   1.0000
     1.0000   1.0000   1.0000   1.0000   1.0000   1.0000   1.0000   1.0000
     1.0000   1.0000   1.0000   1.0000   1.0000   1.0000   1.0000   1.0000
     1.0000   1.0000   1.0000   1.0000   1.0000   1.0000   1.0000   1.0000
     1.0000   1.0000   1.0000   1.0000   1.0000   1.0000   1.0342   1.0319
     0.0058  -0.0181  -0.0003  -0.0000  -0.0000  -0.0000  -0.0000  -0.0000
    -0.0000  -0.0000  -0.0000  -0.0000  -0.0000  -0.0000

          k = 0.2500 0.2500-0.5000 (  9666 PWs)   bands (ev):

   -56.4992 -56.4992 -56.4992 -56.4992 -56.4820 -56.4820 -56.4820 -56.4820
   -28.5803 -28.5803 -28.5752 -28.5752 -28.5368 -28.5368 -28.5329 -28.5329
   -27.6246 -27.6246 -27.5781 -27.5781 -27.5689 -27.5689 -27.5342 -27.5342
   -27.5216 -27.5216 -27.4780 -27.4780 -27.4591 -27.4591 -27.4331 -27.4331
     5.0371   5.0371   5.0383   5.0383   7.3198   7.3198   7.3258   7.3258
     9.3110   9.3110   9.3152   9.3152  11.2764  11.2764  11.2788  11.2788
    11.9764  11.9764  11.9846  11.9846  12.8026  12.8026  12.8129  12.8129
    13.1733  13.1733  13.1859  13.1859  13.4377  13.4377  13.4449  13.4449
    14.1670  14.1670  14.1766  14.1766  14.7501  14.7501  14.7774  14.7774
    15.0541  15.0541  15.0730  15.0730  15.4303  15.4303  15.4466  15.4466
    16.3106  16.3106  16.3202  16.3202  17.2552  17.2564

     occupation numbers 
     1.0000   1.0000   1.0000   1.0000   1.0000   1.0000   1.0000   1.0000
     1.0000   1.0000   1.0000   1.0000   1.0000   1.0000   1.0000   1.0000
     1.0000   1.0000   1.0000   1.0000   1.0000   1.0000   1.0000   1.0000
     1.0000   1.0000   1.0000   1.0000   1.0000   1.0000   1.0000   1.0000
     1.0000   1.0000   1.0000   1.0000   1.0000   1.0000   1.0000   1.0000
     1.0000   1.0000   1.0000   1.0000   1.0000   1.0000   1.0000   1.0000
     1.0000   1.0000   1.0000   1.0000   1.0000   1.0000   1.0000   1.0000
     1.0000   1.0000   1.0000   1.0000   1.0000   1.0000   1.0000   1.0000
     1.0000   1.0000   1.0000   1.0000   1.0013   1.0013   1.0050   1.0050
    -0.0353  -0.0353  -0.0283  -0.0283  -0.0000  -0.0000  -0.0000  -0.0000
    -0.0000  -0.0000  -0.0000  -0.0000  -0.0000  -0.0000

          k = 0.2500 0.3750 0.3750 (  9650 PWs)   bands (ev):

   -56.5003 -56.5003 -56.4958 -56.4958 -56.4843 -56.4843 -56.4820 -56.4820
   -28.5802 -28.5770 -28.5713 -28.5704 -28.5459 -28.5438 -28.5326 -28.5310
   -27.6207 -27.6181 -27.5857 -27.5811 -27.5699 -27.5657 -27.5426 -27.5318
   -27.5254 -27.5107 -27.4844 -27.4758 -27.4591 -27.4540 -27.4361 -27.4332
     4.8701   4.8707   5.7970   5.8010   6.6826   6.6894   7.3949   7.3981
     8.9588   8.9633   9.5728   9.5782  10.6884  10.6922  11.2068  11.2085
    12.0019  12.0048  12.4198  12.4239  12.6320  12.6375  12.8193  12.8251
    13.1274  13.1357  13.1819  13.1903  13.3817  13.3912  13.5832  13.5951
    14.1406  14.1492  14.4965  14.5138  14.6828  14.7064  14.8363  14.8556
    14.9339  14.9378  15.1301  15.1625  15.2733  15.2852  15.4290  15.4425
    16.2766  16.2841  16.4042  16.4086  16.9724  16.9826

     occupation numbers 
     1.0000   1.0000   1.0000   1.0000   1.0000   1.0000   1.0000   1.0000
     1.0000   1.0000   1.0000   1.0000   1.0000   1.0000   1.0000   1.0000
     1.0000   1.0000   1.0000   1.0000   1.0000   1.0000   1.0000   1.0000
     1.0000   1.0000   1.0000   1.0000   1.0000   1.0000   1.0000   1.0000
     1.0000   1.0000   1.0000   1.0000   1.0000   1.0000   1.0000   1.0000
     1.0000   1.0000   1.0000   1.0000   1.0000   1.0000   1.0000   1.0000
     1.0000   1.0000   1.0000   1.0000   1.0000   1.0000   1.0000   1.0000
     1.0000   1.0000   1.0000   1.0000   1.0000   1.0000   1.0000   1.0000
     1.0000   1.0000   1.0000   1.0000   1.0000   1.0001   1.0312   1.0351
     0.6813   0.6427  -0.0042  -0.0008  -0.0000  -0.0000  -0.0000  -0.0000
    -0.0000  -0.0000  -0.0000  -0.0000  -0.0000  -0.0000

          k = 0.2500 0.3750-0.5000 (  9644 PWs)   bands (ev):

   -56.4975 -56.4975 -56.4975 -56.4975 -56.4836 -56.4836 -56.4836 -56.4836
   -28.5753 -28.5753 -28.5716 -28.5716 -28.5415 -28.5415 -28.5384 -28.5384
   -27.6151 -27.6151 -27.5881 -27.5881 -27.5670 -27.5670 -27.5390 -27.5390
   -27.5155 -27.5155 -27.4831 -27.4831 -27.4530 -27.4530 -27.4360 -27.4360
     5.4126   5.4126   5.4144   5.4144   6.9221   6.9221   6.9275   6.9275
     9.2725   9.2725   9.2777   9.2777  10.7880  10.7880  10.7906  10.7906
    12.2808  12.2808  12.2894  12.2894  12.6857  12.6857  12.6930  12.6930
    13.1712  13.1712  13.1790  13.1790  13.4755  13.4755  13.4885  13.4885
    14.4047  14.4047  14.4135  14.4135  14.7921  14.7921  14.8095  14.8095
    14.9883  14.9883  15.0102  15.0102  15.3466  15.3466  15.3572  15.3572
    16.3657  16.3657  16.3728  16.3728  16.9842  16.9881

     occupation numbers 
     1.0000   1.0000   1.0000   1.0000   1.0000   1.0000   1.0000   1.0000
     1.0000   1.0000   1.0000   1.0000   1.0000   1.0000   1.0000   1.0000
     1.0000   1.0000   1.0000   1.0000   1.0000   1.0000   1.0000   1.0000
     1.0000   1.0000   1.0000   1.0000   1.0000   1.0000   1.0000   1.0000
     1.0000   1.0000   1.0000   1.0000   1.0000   1.0000   1.0000   1.0000
     1.0000   1.0000   1.0000   1.0000   1.0000   1.0000   1.0000   1.0000
     1.0000   1.0000   1.0000   1.0000   1.0000   1.0000   1.0000   1.0000
     1.0000   1.0000   1.0000   1.0000   1.0000   1.0000   1.0000   1.0000
     1.0000   1.0000   1.0000   1.0000   1.0092   1.0092   1.0167   1.0167
     0.1607   0.1607   0.0349   0.0349  -0.0000  -0.0000  -0.0000  -0.0000
    -0.0000  -0.0000  -0.0000  -0.0000  -0.0000  -0.0000

          k = 0.2500-0.5000-0.5000 (  9644 PWs)   bands (ev):

   -56.4966 -56.4966 -56.4966 -56.4966 -56.4845 -56.4845 -56.4845 -56.4845
   -28.5715 -28.5715 -28.5710 -28.5710 -28.5427 -28.5427 -28.5421 -28.5421
   -27.6065 -27.6065 -27.5977 -27.5977 -27.5651 -27.5651 -27.5412 -27.5412
   -27.5114 -27.5114 -27.4877 -27.4877 -27.4475 -27.4475 -27.4394 -27.4394
     5.6737   5.6737   5.6759   5.6759   6.6213   6.6213   6.6255   6.6255
     9.3816   9.3816   9.3871   9.3871  10.5090  10.5090  10.5123  10.5123
    12.4775  12.4775  12.4807  12.4807  12.5635  12.5635  12.5656  12.5656
    13.1145  13.1145  13.1148  13.1148  13.5543  13.5543  13.5672  13.5672
    14.5065  14.5065  14.5152  14.5152  14.8358  14.8358  14.8505  14.8505
    14.9378  14.9378  14.9389  14.9389  15.3084  15.3084  15.3113  15.3114
    16.4146  16.4146  16.4153  16.4153  16.8609  16.8637

     occupation numbers 
     1.0000   1.0000   1.0000   1.0000   1.0000   1.0000   1.0000   1.0000
     1.0000   1.0000   1.0000   1.0000   1.0000   1.0000   1.0000   1.0000
     1.0000   1.0000   1.0000   1.0000   1.0000   1.0000   1.0000   1.0000
     1.0000   1.0000   1.0000   1.0000   1.0000   1.0000   1.0000   1.0000
     1.0000   1.0000   1.0000   1.0000   1.0000   1.0000   1.0000   1.0000
     1.0000   1.0000   1.0000   1.0000   1.0000   1.0000   1.0000   1.0000
     1.0000   1.0000   1.0000   1.0000   1.0000   1.0000   1.0000   1.0000
     1.0000   1.0000   1.0000   1.0000   1.0000   1.0000   1.0000   1.0000
     1.0000   1.0000   1.0000   1.0000   1.0310   1.0310   1.0354   1.0354
     0.6428   0.6428   0.6321   0.6321  -0.0000  -0.0000  -0.0000  -0.0000
    -0.0000  -0.0000  -0.0000  -0.0000  -0.0000  -0.0000

          k = 0.3750 0.3750 0.3750 (  9682 PWs)   bands (ev):

   -56.4977 -56.4977 -56.4945 -56.4945 -56.4860 -56.4860 -56.4840 -56.4840
   -28.5749 -28.5721 -28.5672 -28.5667 -28.5492 -28.5473 -28.5398 -28.5380
   -27.6134 -27.6108 -27.5847 -27.5793 -27.5779 -27.5760 -27.5457 -27.5399
   -27.5154 -27.5050 -27.4787 -27.4662 -27.4621 -27.4602 -27.4399 -27.4376
     5.2851   5.2859   6.0004   6.0067   6.6318   6.6417   7.1895   7.1929
     8.7559   8.7616   9.2623   9.2697  10.1954  10.2005  10.6462  10.6485
    12.3233  12.3264  12.5905  12.5948  12.7694  12.7728  12.8663  12.8681
    13.1089  13.1192  13.1688  13.1740  13.2702  13.2705  13.3946  13.3994
    14.3597  14.3624  14.7223  14.7439  14.7808  14.7899  14.9225  14.9573
    15.0674  15.0736  15.0958  15.1016  15.2536  15.2841  15.3062  15.3279
[...]
    11.8722  11.8722  11.8755  11.8755  12.3355  12.3355  12.3433  12.3433
    13.3006  13.3006  13.3061  13.3061  13.9486  13.9486  13.9552  13.9552
    14.0776  14.0776  14.0854  14.0854  14.6218  14.6218  14.6537  14.6537
    14.8214  14.8214  14.8617  14.8617  15.4441  15.4441  15.4633  15.4633
    16.4435  16.4435  16.4558  16.4558  17.1875  17.1878

     occupation numbers 
     1.0000   1.0000   1.0000   1.0000   1.0000   1.0000   1.0000   1.0000
     1.0000   1.0000   1.0000   1.0000   1.0000   1.0000   1.0000   1.0000
     1.0000   1.0000   1.0000   1.0000   1.0000   1.0000   1.0000   1.0000
     1.0000   1.0000   1.0000   1.0000   1.0000   1.0000   1.0000   1.0000
     1.0000   1.0000   1.0000   1.0000   1.0000   1.0000   1.0000   1.0000
     1.0000   1.0000   1.0000   1.0000   1.0000   1.0000   1.0000   1.0000
     1.0000   1.0000   1.0000   1.0000   1.0000   1.0000   1.0000   1.0000
     1.0000   1.0000   1.0000   1.0000   1.0000   1.0000   1.0000   1.0000
     1.0000   1.0000   1.0000   1.0000   1.0000   1.0000   1.0000   1.0000
     1.0232   1.0232   1.0329   1.0329  -0.0000  -0.0000  -0.0000  -0.0000
    -0.0000  -0.0000  -0.0000  -0.0000  -0.0000  -0.0000

          k =-0.1250 0.3750 0.2500 (  9647 PWs)   bands (ev):

   -56.5049 -56.5049 -56.4964 -56.4964 -56.4820 -56.4820 -56.4790 -56.4790
   -28.5881 -28.5839 -28.5773 -28.5757 -28.5434 -28.5407 -28.5191 -28.5180
   -27.6331 -27.6303 -27.5818 -27.5764 -27.5646 -27.5567 -27.5430 -27.5363
   -27.5216 -27.5095 -27.4836 -27.4779 -27.4637 -27.4521 -27.4344 -27.4323
     4.1382   4.1384   5.4906   5.4921   7.0414   7.0441   7.9715   7.9758
     9.4174   9.4200  10.2013  10.2026  10.9146  10.9162  11.5449  11.5485
    11.7462  11.7483  12.1888  12.1925  12.6583  12.6628  12.8598  12.8653
    13.0821  13.0867  13.2581  13.2700  13.4122  13.4153  13.6448  13.6561
    13.7944  13.8033  14.0768  14.0858  14.4882  14.5152  14.8191  14.8470
    15.0832  15.1023  15.1624  15.1802  15.4820  15.4942  15.6221  15.6407
    16.1949  16.2032  16.4161  16.4277  17.2535  17.2830

     occupation numbers 
     1.0000   1.0000   1.0000   1.0000   1.0000   1.0000   1.0000   1.0000
     1.0000   1.0000   1.0000   1.0000   1.0000   1.0000   1.0000   1.0000
     1.0000   1.0000   1.0000   1.0000   1.0000   1.0000   1.0000   1.0000
     1.0000   1.0000   1.0000   1.0000   1.0000   1.0000   1.0000   1.0000
     1.0000   1.0000   1.0000   1.0000   1.0000   1.0000   1.0000   1.0000
     1.0000   1.0000   1.0000   1.0000   1.0000   1.0000   1.0000   1.0000
     1.0000   1.0000   1.0000   1.0000   1.0000   1.0000   1.0000   1.0000
     1.0000   1.0000   1.0000   1.0000   1.0000   1.0000   1.0000   1.0000
     1.0000   1.0000   1.0000   1.0000   1.0000   1.0000   1.0219   1.0350
    -0.0226  -0.0128  -0.0008  -0.0003  -0.0000  -0.0000  -0.0000  -0.0000
    -0.0000  -0.0000  -0.0000  -0.0000  -0.0000  -0.0000

          k =-0.1250-0.5000 0.2500 (  9646 PWs)   bands (ev):

   -56.5006 -56.5006 -56.5006 -56.5006 -56.4805 -56.4805 -56.4805 -56.4805
   -28.5840 -28.5840 -28.5785 -28.5785 -28.5325 -28.5325 -28.5287 -28.5287
   -27.6308 -27.6308 -27.5781 -27.5781 -27.5628 -27.5628 -27.5340 -27.5340
   -27.5207 -27.5207 -27.4827 -27.4827 -27.4563 -27.4563 -27.4328 -27.4328
     4.7805   4.7805   4.7813   4.7813   7.4712   7.4712   7.4757   7.4757
     9.7731   9.7731   9.7741   9.7741  11.2719  11.2719  11.2770  11.2770
    11.9365  11.9365  11.9415  11.9415  12.7535  12.7535  12.7636  12.7636
    13.1573  13.1573  13.1660  13.1660  13.5586  13.5586  13.5669  13.5669
    13.9622  13.9622  13.9715  13.9715  14.6796  14.6796  14.7131  14.7131
    15.0771  15.0771  15.1021  15.1021  15.5295  15.5295  15.5513  15.5513
    16.2884  16.2884  16.2990  16.2990  17.4680  17.4770

     occupation numbers 
     1.0000   1.0000   1.0000   1.0000   1.0000   1.0000   1.0000   1.0000
     1.0000   1.0000   1.0000   1.0000   1.0000   1.0000   1.0000   1.0000
     1.0000   1.0000   1.0000   1.0000   1.0000   1.0000   1.0000   1.0000
     1.0000   1.0000   1.0000   1.0000   1.0000   1.0000   1.0000   1.0000
     1.0000   1.0000   1.0000   1.0000   1.0000   1.0000   1.0000   1.0000
     1.0000   1.0000   1.0000   1.0000   1.0000   1.0000   1.0000   1.0000
     1.0000   1.0000   1.0000   1.0000   1.0000   1.0000   1.0000   1.0000
     1.0000   1.0000   1.0000   1.0000   1.0000   1.0000   1.0000   1.0000
     1.0000   1.0000   1.0000   1.0000   1.0000   1.0000   1.0001   1.0001
    -0.0261  -0.0261  -0.0129  -0.0129  -0.0000  -0.0000  -0.0000  -0.0000
    -0.0000  -0.0000  -0.0000  -0.0000  -0.0000  -0.0000

          k =-0.1250-0.5000 0.3750 (  9656 PWs)   bands (ev):

   -56.4992 -56.4992 -56.4992 -56.4992 -56.4820 -56.4820 -56.4820 -56.4820
   -28.5791 -28.5791 -28.5753 -28.5753 -28.5368 -28.5368 -28.5339 -28.5339
   -27.6202 -27.6202 -27.5912 -27.5912 -27.5558 -27.5558 -27.5326 -27.5326
   -27.5230 -27.5230 -27.4953 -27.4953 -27.4464 -27.4464 -27.4331 -27.4331
     5.1730   5.1730   5.1741   5.1741   6.8572   6.8572   6.8600   6.8600
     9.9473   9.9473   9.9498   9.9498  11.1545  11.1545  11.1577  11.1577
    11.9545  11.9545  11.9599  11.9599  12.4571  12.4571  12.4664  12.4664
    13.2311  13.2311  13.2370  13.2370  13.7790  13.7790  13.7920  13.7920
    14.1900  14.1900  14.1984  14.1984  14.6775  14.6775  14.7043  14.7043
    14.8664  14.8664  14.9051  14.9051  15.4150  15.4150  15.4313  15.4313
    16.4121  16.4122  16.4234  16.4234  17.1479  17.1486

     occupation numbers 
     1.0000   1.0000   1.0000   1.0000   1.0000   1.0000   1.0000   1.0000
     1.0000   1.0000   1.0000   1.0000   1.0000   1.0000   1.0000   1.0000
     1.0000   1.0000   1.0000   1.0000   1.0000   1.0000   1.0000   1.0000
     1.0000   1.0000   1.0000   1.0000   1.0000   1.0000   1.0000   1.0000
     1.0000   1.0000   1.0000   1.0000   1.0000   1.0000   1.0000   1.0000
     1.0000   1.0000   1.0000   1.0000   1.0000   1.0000   1.0000   1.0000
     1.0000   1.0000   1.0000   1.0000   1.0000   1.0000   1.0000   1.0000
     1.0000   1.0000   1.0000   1.0000   1.0000   1.0000   1.0000   1.0000
     1.0000   1.0000   1.0000   1.0000   1.0000   1.0000   1.0001   1.0001
     1.0293   1.0293   0.9071   0.9071  -0.0000  -0.0000  -0.0000  -0.0000
    -0.0000  -0.0000  -0.0000  -0.0000  -0.0000  -0.0000

          k =-0.2500-0.5000 0.3750 (  9644 PWs)   bands (ev):

   -56.4975 -56.4975 -56.4975 -56.4975 -56.4836 -56.4836 -56.4836 -56.4836
   -28.5753 -28.5753 -28.5716 -28.5716 -28.5415 -28.5415 -28.5383 -28.5383
   -27.6152 -27.6152 -27.5879 -27.5879 -27.5671 -27.5671 -27.5389 -27.5389
   -27.5156 -27.5156 -27.4831 -27.4831 -27.4530 -27.4530 -27.4360 -27.4360
     5.4125   5.4125   5.4141   5.4141   6.9229   6.9229   6.9276   6.9276
     9.2750   9.2750   9.2798   9.2798  10.7782  10.7782  10.7808  10.7808
    12.2798  12.2798  12.2881  12.2881  12.7217  12.7217  12.7317  12.7317
    13.1089  13.1089  13.1179  13.1179  13.5270  13.5270  13.5388  13.5388
    14.3793  14.3793  14.3864  14.3864  14.7982  14.7982  14.8166  14.8166
    14.9944  14.9944  15.0261  15.0261  15.3323  15.3323  15.3465  15.3465
    16.3547  16.3547  16.3646  16.3646  17.0019  17.0025

     occupation numbers 
     1.0000   1.0000   1.0000   1.0000   1.0000   1.0000   1.0000   1.0000
     1.0000   1.0000   1.0000   1.0000   1.0000   1.0000   1.0000   1.0000
     1.0000   1.0000   1.0000   1.0000   1.0000   1.0000   1.0000   1.0000
     1.0000   1.0000   1.0000   1.0000   1.0000   1.0000   1.0000   1.0000
     1.0000   1.0000   1.0000   1.0000   1.0000   1.0000   1.0000   1.0000
     1.0000   1.0000   1.0000   1.0000   1.0000   1.0000   1.0000   1.0000
     1.0000   1.0000   1.0000   1.0000   1.0000   1.0000   1.0000   1.0000
     1.0000   1.0000   1.0000   1.0000   1.0000   1.0000   1.0000   1.0000
     1.0000   1.0000   1.0000   1.0000   1.0115   1.0115   1.0205   1.0205
     0.1183   0.1183  -0.0130  -0.0130  -0.0000  -0.0000  -0.0000  -0.0000
    -0.0000  -0.0000  -0.0000  -0.0000  -0.0000  -0.0000

     the Fermi energy is    14.9518 ev

!    total energy              =   -1180.35091128 Ry

     total all-electron energy =    -10727.811748 Ry
     estimated scf accuracy    <       0.00000031 Ry
     smearing contrib. (-TS)   =       0.00038814 Ry
     internal energy E=F+TS    =   -1180.35129942 Ry

     The total energy is F=E-TS. E is the sum of the following terms:
     one-electron contribution =    -336.79570675 Ry
     hartree contribution      =     207.03884384 Ry
     xc contribution           =    -114.36171987 Ry
     ewald contribution        =    -496.51183961 Ry
     one-center paw contrib.   =    -439.72087704 Ry
      -> PAW hartree energy AE =     126.71521020 Ry
      -> PAW hartree energy PS =    -125.74785290 Ry
      -> PAW xc energy AE      =     -96.23980348 Ry
      -> PAW xc energy PS      =      20.93242709 Ry
      -> total E_H with PAW    =     208.00620114 Ry
      -> total E_XC with PAW   =    -189.66909625 Ry

     convergence has been achieved in   9 iterations

     Forces acting on atoms (cartesian axes, Ry/au):

     atom    1 type  1   force =    -0.00266521   -0.00266521    0.00266521
     atom    2 type  1   force =    -0.00266521    0.00266521   -0.00266521
     atom    3 type  1   force =     0.00266521   -0.00266521   -0.00266521
     atom    4 type  1   force =     0.00266521    0.00266521    0.00266521
     atom    5 type  2   force =    -0.00435650   -0.00435650    0.00435650
     atom    6 type  2   force =    -0.00435650    0.00435650   -0.00435650
     atom    7 type  2   force =     0.00435650   -0.00435650   -0.00435650
     atom    8 type  2   force =     0.00435650    0.00435650    0.00435650
     The non-local contrib.  to forces
     atom    1 type  1   force =     0.05113713    0.05113713   -0.05113713
     atom    2 type  1   force =     0.05113713   -0.05113713    0.05113713
     atom    3 type  1   force =    -0.05113713    0.05113713    0.05113713
     atom    4 type  1   force =    -0.05113713   -0.05113713   -0.05113713
     atom    5 type  2   force =    -0.00794347   -0.00794347    0.00794347
     atom    6 type  2   force =    -0.00794347    0.00794347   -0.00794347
     atom    7 type  2   force =     0.00794347   -0.00794347   -0.00794347
     atom    8 type  2   force =     0.00794347    0.00794347    0.00794347
     The ionic contribution  to forces
     atom    1 type  1   force =    -0.85044630   -0.85044630    0.85044630
     atom    2 type  1   force =    -0.85044630    0.85044630   -0.85044630
     atom    3 type  1   force =     0.85044630   -0.85044630   -0.85044630
     atom    4 type  1   force =     0.85044630    0.85044630    0.85044630
     atom    5 type  2   force =    -0.24524978   -0.24524978    0.24524978
     atom    6 type  2   force =    -0.24524978    0.24524978   -0.24524978
     atom    7 type  2   force =     0.24524978   -0.24524978   -0.24524978
     atom    8 type  2   force =     0.24524978    0.24524978    0.24524978
     The local contribution  to forces
     atom    1 type  1   force =     0.79766392    0.79766392   -0.79766392
     atom    2 type  1   force =     0.79766392   -0.79766392    0.79766392
     atom    3 type  1   force =    -0.79766392    0.79766392    0.79766392
     atom    4 type  1   force =    -0.79766392   -0.79766392   -0.79766392
     atom    5 type  2   force =     0.24806682    0.24806682   -0.24806682
     atom    6 type  2   force =     0.24806682   -0.24806682    0.24806682
     atom    7 type  2   force =    -0.24806682    0.24806682    0.24806682
     atom    8 type  2   force =    -0.24806682   -0.24806682   -0.24806682
     The core correction contribution to forces
     atom    1 type  1   force =    -0.00102809   -0.00102809    0.00102809
     atom    2 type  1   force =    -0.00102809    0.00102809   -0.00102809
     atom    3 type  1   force =     0.00102809   -0.00102809   -0.00102809
     atom    4 type  1   force =     0.00102809    0.00102809    0.00102809
     atom    5 type  2   force =     0.00078173    0.00078173   -0.00078173
     atom    6 type  2   force =     0.00078173   -0.00078173    0.00078173
     atom    7 type  2   force =    -0.00078173    0.00078173    0.00078173
     atom    8 type  2   force =    -0.00078173   -0.00078173   -0.00078173
     The Hubbard contrib.    to forces
     atom    1 type  1   force =     0.00000000    0.00000000    0.00000000
     atom    2 type  1   force =     0.00000000    0.00000000    0.00000000
     atom    3 type  1   force =     0.00000000    0.00000000    0.00000000
     atom    4 type  1   force =     0.00000000    0.00000000    0.00000000
     atom    5 type  2   force =     0.00000000    0.00000000    0.00000000
     atom    6 type  2   force =     0.00000000    0.00000000    0.00000000
     atom    7 type  2   force =     0.00000000    0.00000000    0.00000000
     atom    8 type  2   force =     0.00000000    0.00000000    0.00000000
     The SCF correction term to forces
     atom    1 type  1   force =     0.00000812    0.00000812   -0.00000812
     atom    2 type  1   force =     0.00000812   -0.00000812    0.00000812
     atom    3 type  1   force =    -0.00000812    0.00000812    0.00000812
     atom    4 type  1   force =    -0.00000812   -0.00000812   -0.00000812
     atom    5 type  2   force =    -0.00001180   -0.00001180    0.00001180
     atom    6 type  2   force =    -0.00001180    0.00001180   -0.00001180
     atom    7 type  2   force =     0.00001180   -0.00001180   -0.00001180
     atom    8 type  2   force =     0.00001180    0.00001180    0.00001180

     Total force =     0.017691     Total SCF correction =     0.000050


     Computing stress (Cartesian axis) and pressure

          total   stress  (Ry/bohr**3)                   (kbar)     P=      -42.04
  -0.00028578   0.00000000   0.00000000          -42.04        0.00        0.00
   0.00000000  -0.00028578   0.00000000            0.00      -42.04        0.00
   0.00000000   0.00000000  -0.00028578            0.00        0.00      -42.04

     kinetic stress (kbar)  35759.85      0.00      0.00
                                0.00  35759.85      0.00
                                0.00      0.00  35759.85

     local   stress (kbar) -10012.44      0.00     -0.00
                                0.00 -10012.44     -0.00
                               -0.00     -0.00 -10012.44

     nonloc. stress (kbar)   2427.38      0.00      0.00
                                0.00   2427.38      0.00
                                0.00      0.00   2427.38

     hartree stress (kbar)  15167.01     -0.00      0.00
                               -0.00  15167.01      0.00
                                0.00      0.00  15167.01

     exc-cor stress (kbar)  -1706.58      0.00     -0.00
                                0.00  -1706.58     -0.00
                               -0.00     -0.00  -1706.58

     corecor stress (kbar)  -5304.37     -0.00      0.00
                               -0.00  -5304.37     -0.00
                                0.00     -0.00  -5304.37

     ewald   stress (kbar) -36372.90      0.00      0.00
                                0.00 -36372.90      0.00
                                0.00      0.00 -36372.90

     hubbard stress (kbar)      0.00      0.00      0.00
                                0.00      0.00      0.00
                                0.00      0.00      0.00

     DFT-D   stress (kbar)      0.00      0.00      0.00
                                0.00      0.00      0.00
                                0.00      0.00      0.00

     XDM     stress (kbar)      0.00      0.00      0.00
                                0.00      0.00      0.00
                                0.00      0.00      0.00

     dft-nl  stress (kbar)      0.00      0.00      0.00
                                0.00      0.00      0.00
                                0.00      0.00      0.00

     TS-vdW  stress (kbar)      0.00      0.00      0.00
                                0.00      0.00      0.00
                                0.00      0.00      0.00



     Writing output data file /zfs_data/vergnior/martin/Scratch/OAL/CrSi/convergence/smearing/8x8x8/0.006/tmp/CrSi.save/
 
     init_run     :      7.59s CPU      7.90s WALL (       1 calls)
     electrons    :    229.22s CPU    234.20s WALL (       1 calls)
     forces       :      6.97s CPU      7.07s WALL (       1 calls)
     stress       :     17.73s CPU     17.98s WALL (       1 calls)

     Called by init_run:
     wfcinit      :      6.38s CPU      6.55s WALL (       1 calls)
     wfcinit:atom :      0.06s CPU      0.06s WALL (      45 calls)
     wfcinit:wfcr :      6.08s CPU      6.24s WALL (      45 calls)
     potinit      :      0.20s CPU      0.25s WALL (       1 calls)
     hinit0       :      0.17s CPU      0.18s WALL (       1 calls)

     Called by electrons:
     c_bands      :    183.92s CPU    186.79s WALL (      10 calls)
     sum_band     :     39.30s CPU     40.71s WALL (      10 calls)
     v_of_rho     :      0.23s CPU      0.25s WALL (      10 calls)
     v_h          :      0.02s CPU      0.02s WALL (      10 calls)
     v_xc         :      0.26s CPU      0.27s WALL (      12 calls)
     newd         :      4.89s CPU      5.57s WALL (      10 calls)
     PAW_pot      :      1.25s CPU      1.27s WALL (      10 calls)
     mix_rho      :      0.14s CPU      0.15s WALL (      10 calls)

     Called by c_bands:
     init_us_2    :      1.10s CPU      1.11s WALL (    1035 calls)
     cegterg      :    166.39s CPU    169.12s WALL (     450 calls)

     Called by sum_band:
     sum_band:wei :      0.06s CPU      0.07s WALL (      10 calls)
     sum_band:loo :     35.69s CPU     36.21s WALL (      10 calls)
     sum_band:buf :      0.33s CPU      0.34s WALL (     450 calls)
     sum_band:ini :      0.50s CPU      0.50s WALL (     450 calls)
     sum_band:cal :      2.40s CPU      2.41s WALL (     450 calls)
     sum_band:bec :      5.79s CPU      5.81s WALL (     450 calls)
     addusdens    :      3.35s CPU      4.22s WALL (      10 calls)
     addusd:skk   :      0.01s CPU      0.01s WALL (      20 calls)
     addusd:dgemm :      1.32s CPU      2.16s WALL (      20 calls)
     addusd:qvan2 :      1.98s CPU      1.98s WALL (      20 calls)

     Called by *egterg:
     cdiaghg      :     16.11s CPU     16.17s WALL (    2272 calls)
     cegterg:over :      8.49s CPU      8.53s WALL (    1867 calls)
     cegterg:upda :      4.37s CPU      4.40s WALL (    1867 calls)
     cegterg:last :      8.15s CPU      8.18s WALL (    1147 calls)
     h_psi        :    114.30s CPU    116.94s WALL (    2362 calls)
     s_psi        :     16.46s CPU     16.53s WALL (    2362 calls)
     g_psi        :      0.26s CPU      0.27s WALL (    1867 calls)

     Called by h_psi:
     h_psi:calbec :      7.89s CPU      7.96s WALL (    2362 calls)
     vloc_psi     :     90.60s CPU     93.07s WALL (    2362 calls)
     add_vuspsi   :     15.26s CPU     15.36s WALL (    2362 calls)

     General routines
     calbec       :     11.38s CPU     11.47s WALL (    3037 calls)
     fft          :      0.23s CPU      0.24s WALL (     238 calls)
     ffts         :      0.05s CPU      0.08s WALL (      80 calls)
     fftw         :     84.53s CPU     86.76s WALL (  568016 calls)
     interpolate  :      0.08s CPU      0.12s WALL (      40 calls)
 
     Parallel routines
     fft_scatt_xy :      8.24s CPU      8.44s WALL (  568334 calls)
     fft_scatt_yz :     30.93s CPU     31.76s WALL (  568334 calls)

     PAW routines
     PAW_pot      :      1.25s CPU      1.27s WALL (      10 calls)
     PAW_symme    :      0.02s CPU      0.02s WALL (      20 calls)
 
     PWSCF        :   4m24.94s CPU   4m32.52s WALL

 
   This run was terminated on:  12:48:54   1Aug2021            

=------------------------------------------------------------------------------=
   JOB DONE.
=------------------------------------------------------------------------------=
