MPI startup(): Warning: I_MPI_PMI_LIBRARY will be ignored since the hydra process manager was found
MPI startup(): Warning: I_MPI_PMI_LIBRARY will be ignored since the hydra process manager was found
MPI startup(): Warning: I_MPI_PMI_LIBRARY will be ignored since the hydra process manager was found
MPI startup(): Warning: I_MPI_PMI_LIBRARY will be ignored since the hydra process manager was found
MPI startup(): Warning: I_MPI_PMI_LIBRARY will be ignored since the hydra process manager was found
MPI startup(): Warning: I_MPI_PMI_LIBRARY will be ignored since the hydra process manager was found
MPI startup(): Warning: I_MPI_PMI_LIBRARY will be ignored since the hydra process manager was found
MPI startup(): Warning: I_MPI_PMI_LIBRARY will be ignored since the hydra process manager was found
MPI startup(): Warning: I_MPI_PMI_LIBRARY will be ignored since the hydra process manager was found
MPI startup(): Warning: I_MPI_PMI_LIBRARY will be ignored since the hydra process manager was found
MPI startup(): Warning: I_MPI_PMI_LIBRARY will be ignored since the hydra process manager was found
MPI startup(): Warning: I_MPI_PMI_LIBRARY will be ignored since the hydra process manager was found
MPI startup(): Warning: I_MPI_PMI_LIBRARY will be ignored since the hydra process manager was found
MPI startup(): Warning: I_MPI_PMI_LIBRARY will be ignored since the hydra process manager was found
MPI startup(): Warning: I_MPI_PMI_LIBRARY will be ignored since the hydra process manager was found
MPI startup(): Warning: I_MPI_PMI_LIBRARY will be ignored since the hydra process manager was found
MPI startup(): Warning: I_MPI_PMI_LIBRARY will be ignored since the hydra process manager was found
MPI startup(): Warning: I_MPI_PMI_LIBRARY will be ignored since the hydra process manager was found
MPI startup(): Warning: I_MPI_PMI_LIBRARY will be ignored since the hydra process manager was found
MPI startup(): Warning: I_MPI_PMI_LIBRARY will be ignored since the hydra process manager was found
MPI startup(): Warning: I_MPI_PMI_LIBRARY will be ignored since the hydra process manager was found
MPI startup(): Warning: I_MPI_PMI_LIBRARY will be ignored since the hydra process manager was found
MPI startup(): Warning: I_MPI_PMI_LIBRARY will be ignored since the hydra process manager was found
MPI startup(): Warning: I_MPI_PMI_LIBRARY will be ignored since the hydra process manager was found

     Program PWSCF v.6.7MaX starts on  1Aug2021 at 12:42:19 

     This program is part of the open-source Quantum ESPRESSO suite
     for quantum simulation of materials; please cite
         "P. Giannozzi et al., J. Phys.:Condens. Matter 21 395502 (2009);
         "P. Giannozzi et al., J. Phys.:Condens. Matter 29 465901 (2017);
          URL http://www.quantum-espresso.org", 
     in publications or presentations arising from this work. More details at
     http://www.quantum-espresso.org/quote

     Parallel version (MPI), running on    24 processors

     MPI processes distributed on     1 nodes
     R & G space division:  proc/nbgrp/npool/nimage =      24
     Waiting for input...
     Reading input from standard input

     Current dimensions of program PWSCF are:
     Max number of different atomic species (ntypx) = 10
     Max number of k-points (npk) =  40000
     Max angular momentum in pseudopotentials (lmaxx) =  3
     file Cr.rel-pbe-spn-kjpaw_psl.1.0.0.UPF: wavefunction(s)  3S 3P 3P 3D 3D renormalized
     file Si.rel-pbe-n-kjpaw_psl.1.0.0.UPF: wavefunction(s)  3S 3P 3P renormalized

     Subspace diagonalization in iterative solution of the eigenvalue problem:
     a serial algorithm will be used

     Message from routine setup:
     using ibrav=0 with symmetry is DISCOURAGED, use correct ibrav instead
 
     Parallelization info
     --------------------
     sticks:   dense  smooth     PW     G-vecs:    dense   smooth      PW
     Min         228      91     25                12702     3210     487
     Max         229      93     26                12704     3214     492
     Sum        5473    2201    621               304867    77053   11753
 


     bravais-lattice index     =            0
     lattice parameter (alat)  =       8.7475  a.u.
     unit-cell volume          =     669.3575 (a.u.)^3
     number of atoms/cell      =            8
     number of atomic types    =            2
     number of electrons       =        72.00
     number of Kohn-Sham states=           86
     kinetic-energy cutoff     =      90.0000  Ry
     charge density cutoff     =     900.0000  Ry
     scf convergence threshold =      1.0E-06
     mixing beta               =       0.7000
     number of iterations used =            8  plain     mixing
     Exchange-correlation= SLA  PW   PBX  PBC
                           (   1   4   3   4   0   0   0)
     Non magnetic calculation with spin-orbit


     celldm(1)=   8.747542  celldm(2)=   0.000000  celldm(3)=   0.000000
     celldm(4)=   0.000000  celldm(5)=   0.000000  celldm(6)=   0.000000

     crystal axes: (cart. coord. in units of alat)
               a(1) = (   1.000000   0.000000   0.000000 )  
               a(2) = (   0.000000   1.000000   0.000000 )  
               a(3) = (   0.000000   0.000000   1.000000 )  

     reciprocal axes: (cart. coord. in units 2 pi/alat)
               b(1) = (  1.000000  0.000000  0.000000 )  
               b(2) = (  0.000000  1.000000  0.000000 )  
               b(3) = (  0.000000  0.000000  1.000000 )  


     PseudoPot. # 1 for Cr read from file:
     ../../../../pseudo/Cr.rel-pbe-spn-kjpaw_psl.1.0.0.UPF
     MD5 check sum: 1e24e2b5251376a8b945118fca0c7981
     Pseudo is Projector augmented-wave + core cor, Zval = 14.0
     Generated using &quot;atomic&quot; code by A. Dal Corso  v.6.3
     Shape of augmentation charge: PSQ
     Using radial grid of 1183 points, 10 beta functions with: 
                l(1) =   0
                l(2) =   0
                l(3) =   1
                l(4) =   1
                l(5) =   1
                l(6) =   1
                l(7) =   2
                l(8) =   2
                l(9) =   2
               l(10) =   2
     Q(r) pseudized with 0 coefficients 


     PseudoPot. # 2 for Si read from file:
     ../../../../pseudo/Si.rel-pbe-n-kjpaw_psl.1.0.0.UPF
     MD5 check sum: d74f6caf6830ea4c2076867160cab1b0
     Pseudo is Projector augmented-wave + core cor, Zval =  4.0
     Generated using &quot;atomic&quot; code by A. Dal Corso  v.6.3
     Shape of augmentation charge: PSQ
     Using radial grid of 1141 points, 10 beta functions with: 
                l(1) =   0
                l(2) =   0
                l(3) =   1
                l(4) =   1
                l(5) =   1
                l(6) =   1
                l(7) =   2
                l(8) =   2
                l(9) =   2
               l(10) =   2
     Q(r) pseudized with 0 coefficients 


     atomic species   valence    mass     pseudopotential
        Cr            14.00    51.99600     Cr( 1.00)
        Si             4.00    28.08500     Si( 1.00)

     12 Sym. Ops. (no inversion) found ( 9 have fractional translation)


                                    s                        frac. trans.

      isym =  1     identity                                     

 cryst.   s( 1) = (     1          0          0      )
                  (     0          1          0      )
                  (     0          0          1      )

 cart.    s( 1) = (  1.0000000  0.0000000  0.0000000 )
                  (  0.0000000  1.0000000  0.0000000 )
                  (  0.0000000  0.0000000  1.0000000 )


      isym =  2     180 deg rotation - cart. axis [0,0,1]        

 cryst.   s( 2) = (    -1          0          0      )    f =(  0.5000000 )
                  (     0         -1          0      )       (  0.0000000 )
                  (     0          0          1      )       ( -0.5000000 )

 cart.    s( 2) = ( -1.0000000  0.0000000  0.0000000 )    f =(  0.5000000 )
                  (  0.0000000 -1.0000000  0.0000000 )       (  0.0000000 )
                  (  0.0000000  0.0000000  1.0000000 )       ( -0.5000000 )


      isym =  3     180 deg rotation - cart. axis [0,1,0]        

 cryst.   s( 3) = (    -1          0          0      )    f =(  0.0000000 )
                  (     0          1          0      )       ( -0.5000000 )
                  (     0          0         -1      )       (  0.5000000 )

 cart.    s( 3) = ( -1.0000000  0.0000000  0.0000000 )    f =(  0.0000000 )
                  (  0.0000000  1.0000000  0.0000000 )       ( -0.5000000 )
                  (  0.0000000  0.0000000 -1.0000000 )       (  0.5000000 )


      isym =  4     180 deg rotation - cart. axis [1,0,0]        

 cryst.   s( 4) = (     1          0          0      )    f =(  0.5000000 )
                  (     0         -1          0      )       (  0.5000000 )
                  (     0          0         -1      )       (  0.0000000 )

 cart.    s( 4) = (  1.0000000  0.0000000  0.0000000 )    f =(  0.5000000 )
                  (  0.0000000 -1.0000000  0.0000000 )       (  0.5000000 )
                  (  0.0000000  0.0000000 -1.0000000 )       (  0.0000000 )


      isym =  5     120 deg rotation - cart. axis [-1,-1,-1]     

 cryst.   s( 5) = (     0          0          1      )
                  (     1          0          0      )
                  (     0          1          0      )

 cart.    s( 5) = (  0.0000000  1.0000000  0.0000000 )
                  (  0.0000000  0.0000000  1.0000000 )
                  (  1.0000000  0.0000000  0.0000000 )


      isym =  6     120 deg rotation - cart. axis [-1,1,1]       

 cryst.   s( 6) = (     0          0         -1      )    f =(  0.0000000 )
                  (    -1          0          0      )       ( -0.5000000 )
                  (     0          1          0      )       (  0.5000000 )

 cart.    s( 6) = (  0.0000000 -1.0000000  0.0000000 )    f =(  0.0000000 )
                  (  0.0000000  0.0000000  1.0000000 )       ( -0.5000000 )
                  ( -1.0000000  0.0000000  0.0000000 )       (  0.5000000 )


      isym =  7     120 deg rotation - cart. axis [1,1,-1]       

 cryst.   s( 7) = (     0          0         -1      )    f =(  0.5000000 )
                  (     1          0          0      )       (  0.5000000 )
                  (     0         -1          0      )       (  0.0000000 )

 cart.    s( 7) = (  0.0000000  1.0000000  0.0000000 )    f =(  0.5000000 )
                  (  0.0000000  0.0000000 -1.0000000 )       (  0.5000000 )
                  ( -1.0000000  0.0000000  0.0000000 )       (  0.0000000 )


      isym =  8     120 deg rotation - cart. axis [1,-1,1]       

 cryst.   s( 8) = (     0          0          1      )    f =(  0.5000000 )
                  (    -1          0          0      )       (  0.0000000 )
                  (     0         -1          0      )       ( -0.5000000 )

 cart.    s( 8) = (  0.0000000 -1.0000000  0.0000000 )    f =(  0.5000000 )
                  (  0.0000000  0.0000000 -1.0000000 )       (  0.0000000 )
                  (  1.0000000  0.0000000  0.0000000 )       ( -0.5000000 )


      isym =  9     120 deg rotation - cart. axis [1,1,1]        

 cryst.   s( 9) = (     0          1          0      )
                  (     0          0          1      )
                  (     1          0          0      )

 cart.    s( 9) = (  0.0000000  0.0000000  1.0000000 )
                  (  1.0000000  0.0000000  0.0000000 )
                  (  0.0000000  1.0000000  0.0000000 )


      isym = 10     120 deg rotation - cart. axis [-1,1,-1]      

 cryst.   s(10) = (     0         -1          0      )    f =(  0.5000000 )
                  (     0          0         -1      )       (  0.5000000 )
                  (     1          0          0      )       (  0.0000000 )

 cart.    s(10) = (  0.0000000  0.0000000  1.0000000 )    f =(  0.5000000 )
                  ( -1.0000000  0.0000000  0.0000000 )       (  0.5000000 )
                  (  0.0000000 -1.0000000  0.0000000 )       (  0.0000000 )


      isym = 11     120 deg rotation - cart. axis [1,-1,-1]      

 cryst.   s(11) = (     0         -1          0      )    f =(  0.5000000 )
                  (     0          0          1      )       (  0.0000000 )
                  (    -1          0          0      )       ( -0.5000000 )

 cart.    s(11) = (  0.0000000  0.0000000 -1.0000000 )    f =(  0.5000000 )
                  ( -1.0000000  0.0000000  0.0000000 )       (  0.0000000 )
                  (  0.0000000  1.0000000  0.0000000 )       ( -0.5000000 )


      isym = 12     120 deg rotation - cart. axis [-1,-1,1]      

 cryst.   s(12) = (     0          1          0      )    f =(  0.0000000 )
                  (     0          0         -1      )       ( -0.5000000 )
                  (    -1          0          0      )       (  0.5000000 )

 cart.    s(12) = (  0.0000000  0.0000000 -1.0000000 )    f =(  0.0000000 )
                  (  1.0000000  0.0000000  0.0000000 )       ( -0.5000000 )
                  (  0.0000000 -1.0000000  0.0000000 )       (  0.5000000 )


   Cartesian axes

     site n.     atom                  positions (alat units)
         1           Cr  tau(   1) = (   0.8640000   0.3640000   0.1360000  )
         2           Cr  tau(   2) = (   0.3640000   0.1360000   0.8640000  )
         3           Cr  tau(   3) = (   0.1360000   0.8640000   0.3640000  )
         4           Cr  tau(   4) = (   0.6360000   0.6360000   0.6360000  )
         5           Si  tau(   5) = (   0.1540000   0.6540000   0.8460000  )
         6           Si  tau(   6) = (   0.6540000   0.8460000   0.1540000  )
         7           Si  tau(   7) = (   0.8460000   0.1540000   0.6540000  )
         8           Si  tau(   8) = (   0.3460000   0.3460000   0.3460000  )

   Crystallographic axes

     site n.     atom                  positions (cryst. coord.)
         1           Cr  tau(   1) = (  0.8640000  0.3640000  0.1360000  )
         2           Cr  tau(   2) = (  0.3640000  0.1360000  0.8640000  )
         3           Cr  tau(   3) = (  0.1360000  0.8640000  0.3640000  )
         4           Cr  tau(   4) = (  0.6360000  0.6360000  0.6360000  )
         5           Si  tau(   5) = (  0.1540000  0.6540000  0.8460000  )
         6           Si  tau(   6) = (  0.6540000  0.8460000  0.1540000  )
         7           Si  tau(   7) = (  0.8460000  0.1540000  0.6540000  )
         8           Si  tau(   8) = (  0.3460000  0.3460000  0.3460000  )

     number of k points=    24  Methfessel-Paxton smearing, width (Ry)=  0.0120
                       cart. coord. in units 2pi/alat
        k(    1) = (   0.0000000   0.0000000   0.0000000), wk =   0.0046296
        k(    2) = (   0.0000000   0.0000000   0.1666667), wk =   0.0277778
        k(    3) = (   0.0000000   0.0000000   0.3333333), wk =   0.0277778
        k(    4) = (   0.0000000   0.0000000  -0.5000000), wk =   0.0138889
        k(    5) = (   0.0000000   0.1666667   0.1666667), wk =   0.0555556
        k(    6) = (   0.0000000   0.1666667   0.3333333), wk =   0.0555556
        k(    7) = (   0.0000000   0.1666667  -0.5000000), wk =   0.0277778
        k(    8) = (   0.0000000   0.3333333   0.3333333), wk =   0.0555556
        k(    9) = (   0.0000000   0.3333333  -0.5000000), wk =   0.0277778
        k(   10) = (   0.0000000  -0.5000000  -0.5000000), wk =   0.0138889
        k(   11) = (   0.1666667   0.1666667   0.1666667), wk =   0.0370370
        k(   12) = (   0.1666667   0.1666667   0.3333333), wk =   0.1111111
        k(   13) = (   0.1666667   0.1666667  -0.5000000), wk =   0.0555556
        k(   14) = (   0.1666667   0.3333333   0.3333333), wk =   0.1111111
        k(   15) = (   0.1666667   0.3333333  -0.5000000), wk =   0.0555556
        k(   16) = (   0.1666667  -0.5000000  -0.5000000), wk =   0.0277778
        k(   17) = (   0.3333333   0.3333333   0.3333333), wk =   0.0370370
        k(   18) = (   0.3333333   0.3333333  -0.5000000), wk =   0.0555556
        k(   19) = (   0.3333333  -0.5000000  -0.5000000), wk =   0.0277778
        k(   20) = (  -0.5000000  -0.5000000  -0.5000000), wk =   0.0046296
        k(   21) = (   0.0000000   0.3333333   0.1666667), wk =   0.0555556
        k(   22) = (   0.0000000  -0.5000000   0.1666667), wk =   0.0277778
        k(   23) = (   0.0000000  -0.5000000   0.3333333), wk =   0.0277778
        k(   24) = (  -0.1666667  -0.5000000   0.3333333), wk =   0.0555556

                       cryst. coord.
        k(    1) = (   0.0000000   0.0000000   0.0000000), wk =   0.0046296
        k(    2) = (   0.0000000   0.0000000   0.1666667), wk =   0.0277778
        k(    3) = (   0.0000000   0.0000000   0.3333333), wk =   0.0277778
        k(    4) = (   0.0000000   0.0000000  -0.5000000), wk =   0.0138889
        k(    5) = (   0.0000000   0.1666667   0.1666667), wk =   0.0555556
        k(    6) = (   0.0000000   0.1666667   0.3333333), wk =   0.0555556
        k(    7) = (   0.0000000   0.1666667  -0.5000000), wk =   0.0277778
        k(    8) = (   0.0000000   0.3333333   0.3333333), wk =   0.0555556
        k(    9) = (   0.0000000   0.3333333  -0.5000000), wk =   0.0277778
        k(   10) = (   0.0000000  -0.5000000  -0.5000000), wk =   0.0138889
        k(   11) = (   0.1666667   0.1666667   0.1666667), wk =   0.0370370
        k(   12) = (   0.1666667   0.1666667   0.3333333), wk =   0.1111111
        k(   13) = (   0.1666667   0.1666667  -0.5000000), wk =   0.0555556
        k(   14) = (   0.1666667   0.3333333   0.3333333), wk =   0.1111111
        k(   15) = (   0.1666667   0.3333333  -0.5000000), wk =   0.0555556
        k(   16) = (   0.1666667  -0.5000000  -0.5000000), wk =   0.0277778
        k(   17) = (   0.3333333   0.3333333   0.3333333), wk =   0.0370370
        k(   18) = (   0.3333333   0.3333333  -0.5000000), wk =   0.0555556
        k(   19) = (   0.3333333  -0.5000000  -0.5000000), wk =   0.0277778
        k(   20) = (  -0.5000000  -0.5000000  -0.5000000), wk =   0.0046296
        k(   21) = (   0.0000000   0.3333333   0.1666667), wk =   0.0555556
        k(   22) = (   0.0000000  -0.5000000   0.1666667), wk =   0.0277778
        k(   23) = (   0.0000000  -0.5000000   0.3333333), wk =   0.0277778
        k(   24) = (  -0.1666667  -0.5000000   0.3333333), wk =   0.0555556

     Dense  grid:   304867 G-vectors     FFT dimensions: (  90,  90,  90)

     Smooth grid:    77053 G-vectors     FFT dimensions: (  54,  54,  54)

     Dynamical RAM for                 wfc:       1.06 MB

     Dynamical RAM for     wfc (w. buffer):      26.38 MB

     Dynamical RAM for           str. fact:       0.39 MB

     Dynamical RAM for           local pot:       0.00 MB

     Dynamical RAM for          nlocal pot:       1.67 MB

     Dynamical RAM for                qrad:      12.61 MB

     Dynamical RAM for          rho,v,vnew:       5.29 MB

     Dynamical RAM for               rhoin:       1.76 MB

     Dynamical RAM for            rho*nmix:      12.41 MB

     Dynamical RAM for           G-vectors:       0.75 MB

     Dynamical RAM for          h,s,v(r/c):       1.35 MB

     Dynamical RAM for          <psi|beta>:       0.71 MB

     Dynamical RAM for                 psi:       2.11 MB

     Dynamical RAM for                hpsi:       2.11 MB

     Dynamical RAM for                spsi:       2.11 MB

     Dynamical RAM for      wfcinit/wfcrot:       2.35 MB

     Dynamical RAM for           addusdens:     119.02 MB

     Dynamical RAM for          addusforce:     120.34 MB

     Dynamical RAM for         addusstress:     121.74 MB

     Estimated static dynamical RAM per process >      63.81 MB

     Estimated max dynamical RAM per process >     185.55 MB

     Estimated total dynamical RAM >       4.35 GB

     Initial potential from superposition of free atoms

     starting charge   71.99469, renormalised to   72.00000
     Starting wfcs are  112 randomized atomic wfcs
     Checking if some PAW data can be deallocated... 
       PAW data deallocated on   12 nodes for type:  1
       PAW data deallocated on   12 nodes for type:  2

     total cpu time spent up to now is        7.4 secs

     Self-consistent Calculation

     iteration #  1     ecut=    90.00 Ry     beta= 0.70
     Davidson diagonalization with overlap
     ethr =  1.00E-02,  avg # of iterations =  2.0

     Threshold (ethr) on eigenvalues was too large:
     Diagonalizing with lowered threshold

     Davidson diagonalization with overlap
     ethr =  2.09E-04,  avg # of iterations =  4.5

     total cpu time spent up to now is       31.5 secs

     total energy              =   -1180.30918262 Ry
     estimated scf accuracy    <       0.18808303 Ry

     iteration #  2     ecut=    90.00 Ry     beta= 0.70
     Davidson diagonalization with overlap
     ethr =  2.61E-04,  avg # of iterations =  3.1

     total cpu time spent up to now is       43.9 secs

     total energy              =   -1180.31651315 Ry
     estimated scf accuracy    <       0.07460233 Ry

     iteration #  3     ecut=    90.00 Ry     beta= 0.70
     Davidson diagonalization with overlap
     ethr =  1.04E-04,  avg # of iterations =  5.0

     total cpu time spent up to now is       59.0 secs

     total energy              =   -1180.32586739 Ry
     estimated scf accuracy    <       0.15738935 Ry

     iteration #  4     ecut=    90.00 Ry     beta= 0.70
     Davidson diagonalization with overlap
     ethr =  1.04E-04,  avg # of iterations =  4.1

     total cpu time spent up to now is       71.4 secs

     total energy              =   -1180.34929612 Ry
     estimated scf accuracy    <       0.00051943 Ry

     iteration #  5     ecut=    90.00 Ry     beta= 0.70
     Davidson diagonalization with overlap
     ethr =  7.21E-07,  avg # of iterations =  7.5

     total cpu time spent up to now is       88.6 secs

     total energy              =   -1180.34985230 Ry
     estimated scf accuracy    <       0.00017659 Ry

     iteration #  6     ecut=    90.00 Ry     beta= 0.70
     Davidson diagonalization with overlap
     ethr =  2.45E-07,  avg # of iterations =  3.4

     total cpu time spent up to now is       99.8 secs

     End of self-consistent calculation

          k = 0.0000 0.0000 0.0000 (  9771 PWs)   bands (ev):

   -56.5087 -56.5087 -56.4740 -56.4740 -56.4740 -56.4740 -56.4740 -56.4740
   -28.5741 -28.5741 -28.5667 -28.5667 -28.5667 -28.5667 -28.4774 -28.4774
   -27.6082 -27.6082 -27.6082 -27.6082 -27.5317 -27.5317 -27.5317 -27.5317
   -27.5278 -27.5278 -27.4455 -27.4455 -27.4448 -27.4448 -27.4448 -27.4448
     2.6979   2.6979   7.4564   7.4564   7.4564   7.4564   7.4656   7.4656
    10.5375  10.5375  10.5454  10.5454  10.5454  10.5454  11.9120  11.9120
    11.9120  11.9120  11.9231  11.9231  12.6046  12.6046  12.7737  12.7737
    12.7737  12.7737  13.1474  13.1474  13.1474  13.1474  13.1485  13.1485
    13.6746  13.6746  13.6746  13.6746  13.6784  13.6784  15.5561  15.5561
    15.5874  15.5874  15.5874  15.5874  15.7720  15.7720  15.7720  15.7720
    16.6695  16.6695  16.6998  16.6998  16.6998  16.6998

     occupation numbers 
     1.0000   1.0000   1.0000   1.0000   1.0000   1.0000   1.0000   1.0000
     1.0000   1.0000   1.0000   1.0000   1.0000   1.0000   1.0000   1.0000
     1.0000   1.0000   1.0000   1.0000   1.0000   1.0000   1.0000   1.0000
     1.0000   1.0000   1.0000   1.0000   1.0000   1.0000   1.0000   1.0000
     1.0000   1.0000   1.0000   1.0000   1.0000   1.0000   1.0000   1.0000
     1.0000   1.0000   1.0000   1.0000   1.0000   1.0000   1.0000   1.0000
     1.0000   1.0000   1.0000   1.0000   1.0000   1.0000   1.0000   1.0000
     1.0000   1.0000   1.0000   1.0000   1.0000   1.0000   1.0000   1.0000
     1.0000   1.0000   1.0000   1.0000   1.0000   1.0000  -0.0000  -0.0000
    -0.0000  -0.0000  -0.0000  -0.0000  -0.0000  -0.0000  -0.0000  -0.0000
    -0.0000  -0.0000  -0.0000  -0.0000  -0.0000  -0.0000

          k = 0.0000 0.0000 0.1667 (  9663 PWs)   bands (ev):

   -56.5069 -56.5069 -56.4796 -56.4796 -56.4734 -56.4734 -56.4707 -56.4707
   -28.5818 -28.5750 -28.5709 -28.5703 -28.5561 -28.5529 -28.4824 -28.4823
   -27.6250 -27.6169 -27.5952 -27.5875 -27.5445 -27.5385 -27.5351 -27.5254
   -27.5227 -27.5108 -27.4556 -27.4534 -27.4505 -27.4435 -27.4425 -27.4374
     2.8900   2.8900   6.5394   6.5419   7.5627   7.5646   8.1194   8.1288
     9.9486   9.9527  10.6631  10.6657  11.0720  11.0749  11.2879  11.2887
    11.5007  11.5055  12.4509  12.4612  12.7406  12.7629  12.8044  12.8110
    13.0134  13.0167  13.1116  13.1140  13.2010  13.2030  13.2317  13.2320
    13.5344  13.5444  13.6347  13.6372  13.9662  13.9667  15.2980  15.3189
    15.4219  15.4294  15.6988  15.7082  15.7540  15.7724  15.7963  15.8220
    16.4113  16.4268  16.5994  16.6069  16.9941  17.0146

     occupation numbers 
     1.0000   1.0000   1.0000   1.0000   1.0000   1.0000   1.0000   1.0000
     1.0000   1.0000   1.0000   1.0000   1.0000   1.0000   1.0000   1.0000
     1.0000   1.0000   1.0000   1.0000   1.0000   1.0000   1.0000   1.0000
     1.0000   1.0000   1.0000   1.0000   1.0000   1.0000   1.0000   1.0000
     1.0000   1.0000   1.0000   1.0000   1.0000   1.0000   1.0000   1.0000
     1.0000   1.0000   1.0000   1.0000   1.0000   1.0000   1.0000   1.0000
     1.0000   1.0000   1.0000   1.0000   1.0000   1.0000   1.0000   1.0000
     1.0000   1.0000   1.0000   1.0000   1.0000   1.0000   1.0000   1.0000
     1.0000   1.0000   1.0000   1.0000   1.0000   1.0000  -0.0048  -0.0030
    -0.0002  -0.0001  -0.0000  -0.0000  -0.0000  -0.0000  -0.0000  -0.0000
    -0.0000  -0.0000  -0.0000  -0.0000  -0.0000  -0.0000

          k = 0.0000 0.0000 0.3333 (  9606 PWs)   bands (ev):

   -56.5020 -56.5020 -56.4870 -56.4870 -56.4720 -56.4720 -56.4697 -56.4697
   -28.5844 -28.5778 -28.5766 -28.5729 -28.5373 -28.5348 -28.4963 -28.4958
   -27.6327 -27.6248 -27.5769 -27.5724 -27.5570 -27.5371 -27.5319 -27.5233
   -27.5213 -27.4915 -27.4729 -27.4601 -27.4571 -27.4462 -27.4417 -27.4356
     3.4504   3.4504   5.4194   5.4202   7.8600   7.8640   8.5100   8.5196
     9.6516   9.6532  10.6591  10.6615  10.7711  10.7836  11.0448  11.0478
    11.8643  11.8663  12.1358  12.1515  12.8399  12.8560  12.9349  12.9444
    13.1180  13.1240  13.1737  13.1788  13.2616  13.2644  13.3965  13.3989
    13.4546  13.4565  13.9189  13.9227  14.1203  14.1271  14.8933  14.9275
    15.3630  15.3715  15.5415  15.5599  15.7497  15.7780  15.8589  15.8830
    16.1991  16.2149  16.3748  16.3884  17.3090  17.3251

     occupation numbers 
     1.0000   1.0000   1.0000   1.0000   1.0000   1.0000   1.0000   1.0000
     1.0000   1.0000   1.0000   1.0000   1.0000   1.0000   1.0000   1.0000
     1.0000   1.0000   1.0000   1.0000   1.0000   1.0000   1.0000   1.0000
     1.0000   1.0000   1.0000   1.0000   1.0000   1.0000   1.0000   1.0000
     1.0000   1.0000   1.0000   1.0000   1.0000   1.0000   1.0000   1.0000
     1.0000   1.0000   1.0000   1.0000   1.0000   1.0000   1.0000   1.0000
     1.0000   1.0000   1.0000   1.0000   1.0000   1.0000   1.0000   1.0000
     1.0000   1.0000   1.0000   1.0000   1.0000   1.0000   1.0000   1.0000
     1.0000   1.0000   1.0000   1.0000   1.0000   1.0000   0.7638   0.6023
    -0.0009  -0.0007  -0.0000  -0.0000  -0.0000  -0.0000  -0.0000  -0.0000
    -0.0000  -0.0000  -0.0000  -0.0000  -0.0000  -0.0000

          k = 0.0000 0.0000-0.5000 (  9658 PWs)   bands (ev):

   -56.4949 -56.4949 -56.4949 -56.4949 -56.4705 -56.4705 -56.4705 -56.4705
   -28.5820 -28.5820 -28.5764 -28.5764 -28.5160 -28.5160 -28.5146 -28.5146
   -27.6315 -27.6315 -27.5668 -27.5668 -27.5516 -27.5516 -27.5285 -27.5285
   -27.4980 -27.4980 -27.4739 -27.4739 -27.4520 -27.4520 -27.4385 -27.4385
     4.3278   4.3278   4.3280   4.3280   8.2827   8.2827   8.2891   8.2891
    10.0168  10.0168  10.0208  10.0208  10.8980  10.8980  10.9092  10.9092
    12.2490  12.2490  12.2556  12.2556  12.6870  12.6870  12.6995  12.6995
    13.1451  13.1451  13.1455  13.1455  13.2408  13.2408  13.2445  13.2445
    13.7854  13.7854  13.7885  13.7885  14.5688  14.5688  14.5973  14.5973
    15.4068  15.4069  15.4247  15.4247  15.8111  15.8111  15.8408  15.8408
    16.1703  16.1703  16.1840  16.1841  17.5484  17.5514

     occupation numbers 
     1.0000   1.0000   1.0000   1.0000   1.0000   1.0000   1.0000   1.0000
     1.0000   1.0000   1.0000   1.0000   1.0000   1.0000   1.0000   1.0000
     1.0000   1.0000   1.0000   1.0000   1.0000   1.0000   1.0000   1.0000
     1.0000   1.0000   1.0000   1.0000   1.0000   1.0000   1.0000   1.0000
     1.0000   1.0000   1.0000   1.0000   1.0000   1.0000   1.0000   1.0000
     1.0000   1.0000   1.0000   1.0000   1.0000   1.0000   1.0000   1.0000
     1.0000   1.0000   1.0000   1.0000   1.0000   1.0000   1.0000   1.0000
     1.0000   1.0000   1.0000   1.0000   1.0000   1.0000   1.0000   1.0000
     1.0000   1.0000   1.0000   1.0000   1.0025   1.0025   1.0049   1.0049
    -0.0003  -0.0003  -0.0001  -0.0001  -0.0000  -0.0000  -0.0000  -0.0000
    -0.0000  -0.0000  -0.0000  -0.0000  -0.0000  -0.0000

          k = 0.0000 0.1667 0.1667 (  9657 PWs)   bands (ev):

   -56.5053 -56.5053 -56.4815 -56.4815 -56.4740 -56.4740 -56.4699 -56.4699
   -28.5836 -28.5778 -28.5686 -28.5685 -28.5524 -28.5486 -28.4872 -28.4870
   -27.6258 -27.6216 -27.5860 -27.5820 -27.5457 -27.5424 -27.5384 -27.5309
   -27.5145 -27.5016 -27.4644 -27.4607 -27.4534 -27.4446 -27.4379 -27.4337
     3.0795   3.0796   6.3966   6.4010   7.2072   7.2116   8.4068   8.4122
     9.8329   9.8362  10.5098  10.5123  10.7878  10.7890  11.3580  11.3610
    11.7805  11.7809  12.4133  12.4190  12.5893  12.5970  12.9966  12.9979
    13.0932  13.1014  13.1754  13.1762  13.2469  13.2536  13.3392  13.3442
    13.4697  13.4775  13.7352  13.7493  14.0777  14.0851  15.2560  15.2777
    15.3056  15.3249  15.5408  15.5528  15.7011  15.7221  15.8186  15.8430
    16.2816  16.2985  16.6110  16.6207  17.0362  17.0709

     occupation numbers 
     1.0000   1.0000   1.0000   1.0000   1.0000   1.0000   1.0000   1.0000
     1.0000   1.0000   1.0000   1.0000   1.0000   1.0000   1.0000   1.0000
     1.0000   1.0000   1.0000   1.0000   1.0000   1.0000   1.0000   1.0000
     1.0000   1.0000   1.0000   1.0000   1.0000   1.0000   1.0000   1.0000
     1.0000   1.0000   1.0000   1.0000   1.0000   1.0000   1.0000   1.0000
     1.0000   1.0000   1.0000   1.0000   1.0000   1.0000   1.0000   1.0000
     1.0000   1.0000   1.0000   1.0000   1.0000   1.0000   1.0000   1.0000
     1.0000   1.0000   1.0000   1.0000   1.0000   1.0000   1.0000   1.0000
     1.0000   1.0000   1.0000   1.0000   1.0000   1.0000  -0.0112  -0.0074
    -0.0041  -0.0026  -0.0000  -0.0000  -0.0000  -0.0000  -0.0000  -0.0000
    -0.0000  -0.0000  -0.0000  -0.0000  -0.0000  -0.0000

          k = 0.0000 0.1667 0.3333 (  9647 PWs)   bands (ev):

   -56.5007 -56.5007 -56.4871 -56.4871 -56.4731 -56.4731 -56.4699 -56.4699
   -28.5835 -28.5784 -28.5724 -28.5702 -28.5378 -28.5354 -28.5002 -28.4999
   -27.6290 -27.6236 -27.5750 -27.5695 -27.5556 -27.5422 -27.5356 -27.5279
   -27.5159 -27.4877 -27.4818 -27.4661 -27.4592 -27.4477 -27.4343 -27.4305
     3.6320   3.6322   5.5370   5.5387   7.3626   7.3652   8.4327   8.4360
     9.7330   9.7362  10.1894  10.1937  10.9882  10.9912  11.3854  11.3950
    11.7534  11.7578  12.1903  12.1991  12.5960  12.6036  12.8783  12.8871
    13.1151  13.1246  13.2549  13.2606  13.3819  13.3833  13.5290  13.5390
    13.5915  13.6046  13.9916  14.0022  14.2463  14.2587  14.9131  14.9441
    15.2294  15.2481  15.3501  15.3601  15.6592  15.6843  15.8104  15.8407
    16.1561  16.1655  16.4435  16.4565  17.2398  17.2728

     occupation numbers 
     1.0000   1.0000   1.0000   1.0000   1.0000   1.0000   1.0000   1.0000
     1.0000   1.0000   1.0000   1.0000   1.0000   1.0000   1.0000   1.0000
     1.0000   1.0000   1.0000   1.0000   1.0000   1.0000   1.0000   1.0000
     1.0000   1.0000   1.0000   1.0000   1.0000   1.0000   1.0000   1.0000
     1.0000   1.0000   1.0000   1.0000   1.0000   1.0000   1.0000   1.0000
     1.0000   1.0000   1.0000   1.0000   1.0000   1.0000   1.0000   1.0000
     1.0000   1.0000   1.0000   1.0000   1.0000   1.0000   1.0000   1.0000
     1.0000   1.0000   1.0000   1.0000   1.0000   1.0000   1.0000   1.0000
     1.0000   1.0000   1.0000   1.0000   1.0000   1.0000   0.6735   0.5171
    -0.0174  -0.0129  -0.0013  -0.0010  -0.0000  -0.0000  -0.0000  -0.0000
    -0.0000  -0.0000  -0.0000  -0.0000  -0.0000  -0.0000

          k = 0.0000 0.1667-0.5000 (  9654 PWs)   bands (ev):

   -56.4941 -56.4941 -56.4941 -56.4941 -56.4713 -56.4713 -56.4713 -56.4713
   -28.5796 -28.5796 -28.5742 -28.5742 -28.5193 -28.5193 -28.5168 -28.5168
   -27.6273 -27.6273 -27.5669 -27.5669 -27.5523 -27.5523 -27.5279 -27.5279
   -27.5059 -27.5059 -27.4740 -27.4740 -27.4546 -27.4546 -27.4314 -27.4314
     4.4926   4.4926   4.4932   4.4932   7.8948   7.8948   7.9017   7.9017
    10.0151  10.0151  10.0191  10.0191  11.1033  11.1033  11.1175  11.1175
    12.0918  12.0918  12.0964  12.0964  12.5416  12.5416  12.5573  12.5573
    13.2787  13.2787  13.2796  13.2796  13.3940  13.3940  13.3953  13.3953
    13.8692  13.8692  13.8731  13.8731  14.6239  14.6239  14.6553  14.6553
    15.2425  15.2425  15.2572  15.2572  15.7191  15.7191  15.7488  15.7488
    16.2440  16.2440  16.2546  16.2546  17.4871  17.4903

     occupation numbers 
     1.0000   1.0000   1.0000   1.0000   1.0000   1.0000   1.0000   1.0000
     1.0000   1.0000   1.0000   1.0000   1.0000   1.0000   1.0000   1.0000
     1.0000   1.0000   1.0000   1.0000   1.0000   1.0000   1.0000   1.0000
     1.0000   1.0000   1.0000   1.0000   1.0000   1.0000   1.0000   1.0000
     1.0000   1.0000   1.0000   1.0000   1.0000   1.0000   1.0000   1.0000
     1.0000   1.0000   1.0000   1.0000   1.0000   1.0000   1.0000   1.0000
     1.0000   1.0000   1.0000   1.0000   1.0000   1.0000   1.0000   1.0000
     1.0000   1.0000   1.0000   1.0000   1.0000   1.0000   1.0000   1.0000
     1.0000   1.0000   1.0000   1.0000   1.0085   1.0085   1.0149   1.0149
    -0.0141  -0.0141  -0.0110  -0.0110  -0.0000  -0.0000  -0.0000  -0.0000
    -0.0000  -0.0000  -0.0000  -0.0000  -0.0000  -0.0000

          k = 0.0000 0.3333 0.3333 (  9619 PWs)   bands (ev):

   -56.4970 -56.4970 -56.4885 -56.4885 -56.4741 -56.4741 -56.4711 -56.4711
   -28.5796 -28.5756 -28.5686 -28.5677 -28.5356 -28.5333 -28.5111 -28.5104
   -27.6205 -27.6192 -27.5760 -27.5703 -27.5515 -27.5438 -27.5325 -27.5310
   -27.5147 -27.4956 -27.4933 -27.4819 -27.4531 -27.4393 -27.4300 -27.4267
     4.1576   4.1580   5.6391   5.6412   6.6780   6.6808   7.8195   7.8233
    10.0318  10.0345  10.3055  10.3085  10.9417  10.9435  11.2589  11.2610
    11.8956  11.9023  12.1593  12.1638  12.3111  12.3206  12.6299  12.6378
    13.1822  13.1905  13.3934  13.3984  13.5631  13.5659  13.7228  13.7282
    13.8863  13.8980  14.0970  14.1098  14.4909  14.5166  14.8518  14.8635
    14.9449  14.9652  15.0618  15.0785  15.5272  15.5503  15.6072  15.6371
    16.2368  16.2456  16.4938  16.5007  17.1505  17.1812

     occupation numbers 
     1.0000   1.0000   1.0000   1.0000   1.0000   1.0000   1.0000   1.0000
     1.0000   1.0000   1.0000   1.0000   1.0000   1.0000   1.0000   1.0000
     1.0000   1.0000   1.0000   1.0000   1.0000   1.0000   1.0000   1.0000
     1.0000   1.0000   1.0000   1.0000   1.0000   1.0000   1.0000   1.0000
     1.0000   1.0000   1.0000   1.0000   1.0000   1.0000   1.0000   1.0000
     1.0000   1.0000   1.0000   1.0000   1.0000   1.0000   1.0000   1.0000
     1.0000   1.0000   1.0000   1.0000   1.0000   1.0000   1.0000   1.0000
     1.0000   1.0000   1.0000   1.0000   1.0000   1.0000   1.0000   1.0000
     1.0000   1.0000   1.0000   1.0000   1.0003   1.0006   0.9133   0.8776
     0.5130   0.4083   0.0397   0.0092  -0.0000  -0.0000  -0.0000  -0.0000
    -0.0000  -0.0000  -0.0000  -0.0000  -0.0000  -0.0000

          k = 0.0000 0.3333-0.5000 (  9646 PWs)   bands (ev):

   -56.4923 -56.4923 -56.4923 -56.4923 -56.4730 -56.4730 -56.4730 -56.4730
   -28.5738 -28.5738 -28.5696 -28.5696 -28.5257 -28.5257 -28.5228 -28.5228
   -27.6152 -27.6152 -27.5783 -27.5783 -27.5439 -27.5439 -27.5259 -27.5259
   -27.5142 -27.5142 -27.4928 -27.4928 -27.4418 -27.4418 -27.4272 -27.4272
     4.9487   4.9487   4.9501   4.9501   7.0281   7.0281   7.0330   7.0330
    10.3311  10.3311  10.3331  10.3331  11.2385  11.2385  11.2469  11.2469
    11.7620  11.7620  11.7675  11.7675  12.3354  12.3354  12.3427  12.3427
    13.3695  13.3695  13.3766  13.3766  13.6778  13.6778  13.6865  13.6865
    14.1735  14.1735  14.1790  14.1790  14.6144  14.6144  14.6336  14.6336
    14.9473  14.9473  14.9622  14.9622  15.5027  15.5027  15.5269  15.5269
    16.4445  16.4445  16.4553  16.4553  17.1989  17.1994

     occupation numbers 
     1.0000   1.0000   1.0000   1.0000   1.0000   1.0000   1.0000   1.0000
     1.0000   1.0000   1.0000   1.0000   1.0000   1.0000   1.0000   1.0000
     1.0000   1.0000   1.0000   1.0000   1.0000   1.0000   1.0000   1.0000
     1.0000   1.0000   1.0000   1.0000   1.0000   1.0000   1.0000   1.0000
     1.0000   1.0000   1.0000   1.0000   1.0000   1.0000   1.0000   1.0000
     1.0000   1.0000   1.0000   1.0000   1.0000   1.0000   1.0000   1.0000
     1.0000   1.0000   1.0000   1.0000   1.0000   1.0000   1.0000   1.0000
     1.0000   1.0000   1.0000   1.0000   1.0000   1.0000   1.0000   1.0000
     1.0000   1.0000   1.0000   1.0000   1.0070   1.0070   1.0102   1.0102
     0.5003   0.5003   0.4235   0.4235  -0.0000  -0.0000  -0.0000  -0.0000
    -0.0000  -0.0000  -0.0000  -0.0000  -0.0000  -0.0000

          k = 0.0000-0.5000-0.5000 (  9580 PWs)   bands (ev):

   -56.4913 -56.4913 -56.4913 -56.4913 -56.4741 -56.4741 -56.4741 -56.4741
   -28.5685 -28.5685 -28.5685 -28.5685 -28.5279 -28.5279 -28.5279 -28.5279
   -27.5974 -27.5974 -27.5974 -27.5974 -27.5303 -27.5303 -27.5303 -27.5303
   -27.5107 -27.5107 -27.5107 -27.5107 -27.4310 -27.4310 -27.4310 -27.4310
     5.3705   5.3705   5.3705   5.3705   6.4273   6.4273   6.4273   6.4273
    10.7065  10.7065  10.7065  10.7065  11.2441  11.2441  11.2441  11.2441
    11.3857  11.3857  11.3857  11.3857  12.2858  12.2858  12.2858  12.2858
    13.3645  13.3645  13.3645  13.3645  14.0103  14.0103  14.0103  14.0103
    14.2979  14.2979  14.2979  14.2979  14.5285  14.5285  14.5285  14.5285
    14.7610  14.7610  14.7610  14.7610  15.4222  15.4222  15.4222  15.4222
    16.5913  16.5913  16.5913  16.5914  16.9886  16.9888

     occupation numbers 
     1.0000   1.0000   1.0000   1.0000   1.0000   1.0000   1.0000   1.0000
     1.0000   1.0000   1.0000   1.0000   1.0000   1.0000   1.0000   1.0000
     1.0000   1.0000   1.0000   1.0000   1.0000   1.0000   1.0000   1.0000
     1.0000   1.0000   1.0000   1.0000   1.0000   1.0000   1.0000   1.0000
     1.0000   1.0000   1.0000   1.0000   1.0000   1.0000   1.0000   1.0000
     1.0000   1.0000   1.0000   1.0000   1.0000   1.0000   1.0000   1.0000
     1.0000   1.0000   1.0000   1.0000   1.0000   1.0000   1.0000   1.0000
     1.0000   1.0000   1.0000   1.0000   1.0000   1.0000   1.0000   1.0000
     1.0000   1.0000   1.0000   1.0000   1.0009   1.0009   1.0009   1.0009
     1.0343   1.0343   1.0343   1.0343  -0.0002  -0.0002  -0.0002  -0.0002
    -0.0000  -0.0000  -0.0000  -0.0000  -0.0000  -0.0000

          k = 0.1667 0.1667 0.1667 (  9627 PWs)   bands (ev):

   -56.5037 -56.5037 -56.4826 -56.4826 -56.4747 -56.4747 -56.4697 -56.4697
   -28.5839 -28.5786 -28.5667 -28.5667 -28.5503 -28.5463 -28.4918 -28.4915
   -27.6251 -27.6227 -27.5835 -27.5746 -27.5461 -27.5418 -27.5413 -27.5381
   -27.5088 -27.4963 -27.4739 -27.4610 -27.4540 -27.4502 -27.4328 -27.4323
     3.2667   3.2667   6.3443   6.3510   7.0378   7.0465   8.3233   8.3255
     9.7323   9.7350  10.5181  10.5189  10.5473  10.5486  11.3862  11.3918
    11.9886  11.9891  12.3211  12.3293  12.8301  12.8354  12.8360  12.8423
    13.1048  13.1102  13.1366  13.1367  13.2127  13.2187  13.5242  13.5293
    13.6032  13.6126  13.7859  13.7913  14.1548  14.1634  15.2085  15.2231
    15.2764  15.2911  15.4750  15.4762  15.5277  15.5433  15.7965  15.8112
    16.2279  16.2447  16.6065  16.6180  17.0505  17.0907

     occupation numbers 
     1.0000   1.0000   1.0000   1.0000   1.0000   1.0000   1.0000   1.0000
     1.0000   1.0000   1.0000   1.0000   1.0000   1.0000   1.0000   1.0000
     1.0000   1.0000   1.0000   1.0000   1.0000   1.0000   1.0000   1.0000
     1.0000   1.0000   1.0000   1.0000   1.0000   1.0000   1.0000   1.0000
     1.0000   1.0000   1.0000   1.0000   1.0000   1.0000   1.0000   1.0000
     1.0000   1.0000   1.0000   1.0000   1.0000   1.0000   1.0000   1.0000
     1.0000   1.0000   1.0000   1.0000   1.0000   1.0000   1.0000   1.0000
     1.0000   1.0000   1.0000   1.0000   1.0000   1.0000   1.0000   1.0000
     1.0000   1.0000   1.0000   1.0000   1.0000   1.0000  -0.0231  -0.0190
    -0.0076  -0.0056  -0.0000  -0.0000  -0.0000  -0.0000  -0.0000  -0.0000
    -0.0000  -0.0000  -0.0000  -0.0000  -0.0000  -0.0000

          k = 0.1667 0.1667 0.3333 (  9629 PWs)   bands (ev):

   -56.4994 -56.4994 -56.4869 -56.4869 -56.4740 -56.4740 -56.4704 -56.4704
   -28.5821 -28.5775 -28.5694 -28.5678 -28.5389 -28.5362 -28.5043 -28.5036
   -27.6258 -27.6215 -27.5746 -27.5663 -27.5543 -27.5451 -27.5380 -27.5335
   -27.5105 -27.4976 -27.4751 -27.4650 -27.4627 -27.4511 -27.4306 -27.4289
     3.8110   3.8112   5.6515   5.6537   7.1822   7.1862   8.2388   8.2424
     9.3519   9.3544  10.2218  10.2242  10.9249  10.9286  11.4684  11.4717
    11.8298  11.8340  12.2189  12.2209  12.7522  12.7611  12.9464  12.9525
    13.0801  13.0888  13.1981  13.2066  13.2949  13.2985  13.5463  13.5531
    13.7644  13.7696  14.0150  14.0239  14.3546  14.3719  14.9096  14.9371
    15.1937  15.2089  15.2862  15.2962  15.5064  15.5210  15.7168  15.7376
    16.1696  16.1791  16.4564  16.4703  17.2203  17.2524

     occupation numbers 
     1.0000   1.0000   1.0000   1.0000   1.0000   1.0000   1.0000   1.0000
     1.0000   1.0000   1.0000   1.0000   1.0000   1.0000   1.0000   1.0000
     1.0000   1.0000   1.0000   1.0000   1.0000   1.0000   1.0000   1.0000
     1.0000   1.0000   1.0000   1.0000   1.0000   1.0000   1.0000   1.0000
     1.0000   1.0000   1.0000   1.0000   1.0000   1.0000   1.0000   1.0000
     1.0000   1.0000   1.0000   1.0000   1.0000   1.0000   1.0000   1.0000
     1.0000   1.0000   1.0000   1.0000   1.0000   1.0000   1.0000   1.0000
     1.0000   1.0000   1.0000   1.0000   1.0000   1.0000   1.0000   1.0000
     1.0000   1.0000   1.0000   1.0000   1.0000   1.0000   0.6900   0.5533
    -0.0273  -0.0230  -0.0062  -0.0050  -0.0000  -0.0000  -0.0000  -0.0000
    -0.0000  -0.0000  -0.0000  -0.0000  -0.0000  -0.0000

          k = 0.1667 0.1667-0.5000 (  9658 PWs)   bands (ev):

   -56.4932 -56.4932 -56.4932 -56.4932 -56.4721 -56.4721 -56.4721 -56.4721
   -28.5773 -28.5773 -28.5720 -28.5720 -28.5224 -28.5224 -28.5191 -28.5191
   -27.6234 -27.6234 -27.5650 -27.5650 -27.5560 -27.5560 -27.5267 -27.5267
   -27.5120 -27.5120 -27.4702 -27.4702 -27.4575 -27.4575 -27.4289 -27.4289
     4.6538   4.6538   4.6546   4.6546   7.7180   7.7180   7.7242   7.7242
     9.6725   9.6725   9.6738   9.6738  11.3994  11.3994  11.4076  11.4076
    11.8742  11.8742  11.8778  11.8778  12.7990  12.7990  12.8110  12.8110
    13.1833  13.1833  13.1937  13.1937  13.4198  13.4198  13.4239  13.4239
    13.9248  13.9248  13.9327  13.9327  14.6754  14.6754  14.7093  14.7093
    15.1661  15.1661  15.1862  15.1862  15.6072  15.6072  15.6299  15.6299
    16.2633  16.2633  16.2729  16.2729  17.5739  17.5747

     occupation numbers 
     1.0000   1.0000   1.0000   1.0000   1.0000   1.0000   1.0000   1.0000
     1.0000   1.0000   1.0000   1.0000   1.0000   1.0000   1.0000   1.0000
     1.0000   1.0000   1.0000   1.0000   1.0000   1.0000   1.0000   1.0000
     1.0000   1.0000   1.0000   1.0000   1.0000   1.0000   1.0000   1.0000
     1.0000   1.0000   1.0000   1.0000   1.0000   1.0000   1.0000   1.0000
     1.0000   1.0000   1.0000   1.0000   1.0000   1.0000   1.0000   1.0000
     1.0000   1.0000   1.0000   1.0000   1.0000   1.0000   1.0000   1.0000
     1.0000   1.0000   1.0000   1.0000   1.0000   1.0000   1.0000   1.0000
     1.0000   1.0000   1.0000   1.0000   1.0201   1.0201   1.0295   1.0295
    -0.0337  -0.0337  -0.0293  -0.0293  -0.0000  -0.0000  -0.0000  -0.0000
    -0.0000  -0.0000  -0.0000  -0.0000  -0.0000  -0.0000

          k = 0.1667 0.3333 0.3333 (  9651 PWs)   bands (ev):

   -56.4958 -56.4958 -56.4878 -56.4878 -56.4751 -56.4751 -56.4719 -56.4719
   -28.5776 -28.5739 -28.5660 -28.5652 -28.5375 -28.5353 -28.5147 -28.5136
   -27.6182 -27.6153 -27.5752 -27.5679 -27.5562 -27.5476 -27.5369 -27.5296
   -27.5140 -27.5046 -27.4814 -27.4731 -27.4570 -27.4454 -27.4298 -27.4265
     4.3275   4.3279   5.7573   5.7608   6.7209   6.7264   7.7765   7.7801
     9.2003   9.2037  10.0630  10.0666  10.9688  10.9710  11.5791  11.5833
    11.7455  11.7477  12.2602  12.2638  12.4945  12.5008  12.8128  12.8193
    13.1533  13.1575  13.2542  13.2664  13.4019  13.4092  13.6941  13.7093
    13.9194  13.9356  14.2308  14.2416  14.5668  14.5950  14.8665  14.8806
    14.9508  14.9619  15.1265  15.1532  15.4096  15.4124  15.5560  15.5714
    16.2319  16.2395  16.4607  16.4687  17.1000  17.1249

     occupation numbers 
     1.0000   1.0000   1.0000   1.0000   1.0000   1.0000   1.0000   1.0000
     1.0000   1.0000   1.0000   1.0000   1.0000   1.0000   1.0000   1.0000
     1.0000   1.0000   1.0000   1.0000   1.0000   1.0000   1.0000   1.0000
     1.0000   1.0000   1.0000   1.0000   1.0000   1.0000   1.0000   1.0000
     1.0000   1.0000   1.0000   1.0000   1.0000   1.0000   1.0000   1.0000
     1.0000   1.0000   1.0000   1.0000   1.0000   1.0000   1.0000   1.0000
     1.0000   1.0000   1.0000   1.0000   1.0000   1.0000   1.0000   1.0000
     1.0000   1.0000   1.0000   1.0000   1.0000   1.0000   1.0000   1.0000
     1.0000   1.0000   1.0000   1.0000   1.0024   1.0046   0.8675   0.8160
     0.4823   0.4251  -0.0325  -0.0353  -0.0002  -0.0002  -0.0000  -0.0000
    -0.0000  -0.0000  -0.0000  -0.0000  -0.0000  -0.0000

          k = 0.1667 0.3333-0.5000 (  9682 PWs)   bands (ev):

   -56.4913 -56.4913 -56.4913 -56.4913 -56.4741 -56.4741 -56.4741 -56.4741
   -28.5714 -28.5714 -28.5673 -28.5673 -28.5287 -28.5287 -28.5255 -28.5255
   -27.6120 -27.6120 -27.5760 -27.5760 -27.5518 -27.5518 -27.5280 -27.5280
   -27.5137 -27.5137 -27.4827 -27.4827 -27.4465 -27.4465 -27.4281 -27.4281
     5.0994   5.0994   5.1008   5.1008   7.0727   7.0727   7.0781   7.0781
     9.6227   9.6227   9.6264   9.6264  11.2876  11.2876  11.2894  11.2894
    11.9351  11.9351  11.9440  11.9440  12.5649  12.5649  12.5742  12.5742
    13.2670  13.2670  13.2731  13.2731  13.5508  13.5508  13.5658  13.5658
    14.2369  14.2369  14.2458  14.2458  14.7120  14.7120  14.7333  14.7333
    14.9651  14.9651  14.9829  14.9829  15.4466  15.4466  15.4634  15.4635
    16.3874  16.3875  16.3949  16.3950  17.1621  17.1650

     occupation numbers 
     1.0000   1.0000   1.0000   1.0000   1.0000   1.0000   1.0000   1.0000
     1.0000   1.0000   1.0000   1.0000   1.0000   1.0000   1.0000   1.0000
     1.0000   1.0000   1.0000   1.0000   1.0000   1.0000   1.0000   1.0000
     1.0000   1.0000   1.0000   1.0000   1.0000   1.0000   1.0000   1.0000
     1.0000   1.0000   1.0000   1.0000   1.0000   1.0000   1.0000   1.0000
     1.0000   1.0000   1.0000   1.0000   1.0000   1.0000   1.0000   1.0000
     1.0000   1.0000   1.0000   1.0000   1.0000   1.0000   1.0000   1.0000
     1.0000   1.0000   1.0000   1.0000   1.0000   1.0000   1.0000   1.0000
     1.0000   1.0000   1.0000   1.0000   1.0302   1.0302   1.0344   1.0344
     0.4088   0.4088   0.3204   0.3204  -0.0001  -0.0001  -0.0000  -0.0000
    -0.0000  -0.0000  -0.0000  -0.0000  -0.0000  -0.0000

          k = 0.1667-0.5000-0.5000 (  9628 PWs)   bands (ev):

   -56.4901 -56.4901 -56.4901 -56.4901 -56.4752 -56.4752 -56.4752 -56.4752
   -28.5662 -28.5662 -28.5660 -28.5660 -28.5310 -28.5310 -28.5308 -28.5308
   -27.5981 -27.5981 -27.5914 -27.5914 -27.5461 -27.5461 -27.5322 -27.5322
   -27.5081 -27.5081 -27.4935 -27.4935 -27.4374 -27.4374 -27.4315 -27.4315
     5.5070   5.5070   5.5084   5.5084   6.5301   6.5301   6.5327   6.5327
     9.8343   9.8343   9.8385   9.8385  10.8964  10.8964  10.8986  10.8986
    12.1903  12.1903  12.1929  12.1929  12.3757  12.3757  12.3788  12.3788
    13.2235  13.2235  13.2242  13.2242  13.7581  13.7581  13.7720  13.7720
    14.3939  14.3939  14.4010  14.4010  14.6984  14.6984  14.7158  14.7158
    14.8398  14.8398  14.8417  14.8417  15.3688  15.3688  15.3690  15.3690
    16.4881  16.4881  16.4897  16.4897  16.9546  16.9562

     occupation numbers 
     1.0000   1.0000   1.0000   1.0000   1.0000   1.0000   1.0000   1.0000
     1.0000   1.0000   1.0000   1.0000   1.0000   1.0000   1.0000   1.0000
     1.0000   1.0000   1.0000   1.0000   1.0000   1.0000   1.0000   1.0000
     1.0000   1.0000   1.0000   1.0000   1.0000   1.0000   1.0000   1.0000
     1.0000   1.0000   1.0000   1.0000   1.0000   1.0000   1.0000   1.0000
     1.0000   1.0000   1.0000   1.0000   1.0000   1.0000   1.0000   1.0000
     1.0000   1.0000   1.0000   1.0000   1.0000   1.0000   1.0000   1.0000
     1.0000   1.0000   1.0000   1.0000   1.0000   1.0000   1.0000   1.0000
     1.0000   1.0000   1.0000   1.0000   1.0265   1.0265   1.0311   1.0311
     0.9446   0.9446   0.9402   0.9402  -0.0008  -0.0008  -0.0008  -0.0008
    -0.0000  -0.0000  -0.0000  -0.0000  -0.0000  -0.0000

          k = 0.3333 0.3333 0.3333 (  9690 PWs)   bands (ev):

   -56.4926 -56.4926 -56.4869 -56.4869 -56.4771 -56.4771 -56.4741 -56.4741
   -28.5721 -28.5689 -28.5611 -28.5610 -28.5403 -28.5384 -28.5239 -28.5224
   -27.6106 -27.6069 -27.5738 -27.5638 -27.5637 -27.5622 -27.5409 -27.5277
   -27.5172 -27.4970 -27.4771 -27.4588 -27.4585 -27.4577 -27.4320 -27.4286
     4.8136   4.8141   5.9658   5.9723   6.6621   6.6725   7.5014   7.5040
     8.7480   8.7531   9.4978   9.5042  10.5490  10.5536  11.1932  11.1951
    12.0064  12.0081  12.4977  12.5008  12.7691  12.7732  12.8493  12.8510
    13.1391  13.1509  13.1961  13.2029  13.2664  13.2686  13.5453  13.5485
    14.1409  14.1456  14.4926  14.5009  14.7932  14.8299  14.8518  14.8635
    14.9968  15.0077  15.1380  15.1439  15.2645  15.2915  15.4147  15.4339
    16.2561  16.2631  16.3900  16.3927  16.9563  16.9646

     occupation numbers 
     1.0000   1.0000   1.0000   1.0000   1.0000   1.0000   1.0000   1.0000
     1.0000   1.0000   1.0000   1.0000   1.0000   1.0000   1.0000   1.0000
     1.0000   1.0000   1.0000   1.0000   1.0000   1.0000   1.0000   1.0000
     1.0000   1.0000   1.0000   1.0000   1.0000   1.0000   1.0000   1.0000
     1.0000   1.0000   1.0000   1.0000   1.0000   1.0000   1.0000   1.0000
     1.0000   1.0000   1.0000   1.0000   1.0000   1.0000   1.0000   1.0000
     1.0000   1.0000   1.0000   1.0000   1.0000   1.0000   1.0000   1.0000
     1.0000   1.0000   1.0000   1.0000   1.0000   1.0000   1.0000   1.0000
     1.0000   1.0000   1.0003   1.0004   1.0183   0.9664   0.9132   0.8775
     0.2563   0.2096  -0.0349  -0.0354  -0.0096  -0.0056  -0.0002  -0.0001
    -0.0000  -0.0000  -0.0000  -0.0000  -0.0000  -0.0000

          k = 0.3333 0.3333-0.5000 (  9648 PWs)   bands (ev):

   -56.4887 -56.4887 -56.4887 -56.4887 -56.4766 -56.4766 -56.4766 -56.4766
   -28.5653 -28.5653 -28.5617 -28.5617 -28.5357 -28.5357 -28.5325 -28.5325
   -27.6028 -27.6028 -27.5740 -27.5740 -27.5636 -27.5636 -27.5375 -27.5375
   -27.5027 -27.5027 -27.4712 -27.4712 -27.4528 -27.4528 -27.4329 -27.4329
     5.5129   5.5129   5.5148   5.5148   6.9755   6.9755   6.9813   6.9813
     9.0501   9.0501   9.0560   9.0560  10.5632  10.5632  10.5661  10.5661
    12.3852  12.3852  12.3937  12.3937  12.8193  12.8193  12.8269  12.8269
    13.1332  13.1332  13.1442  13.1442  13.3783  13.3783  13.3867  13.3867
    14.4669  14.4669  14.4752  14.4752  14.8620  14.8620  14.8777  14.8777
    15.0819  15.0819  15.1012  15.1012  15.2978  15.2978  15.3141  15.3141
    16.3322  16.3322  16.3416  16.3417  16.9306  16.9327

     occupation numbers 
     1.0000   1.0000   1.0000   1.0000   1.0000   1.0000   1.0000   1.0000
     1.0000   1.0000   1.0000   1.0000   1.0000   1.0000   1.0000   1.0000
     1.0000   1.0000   1.0000   1.0000   1.0000   1.0000   1.0000   1.0000
     1.0000   1.0000   1.0000   1.0000   1.0000   1.0000   1.0000   1.0000
     1.0000   1.0000   1.0000   1.0000   1.0000   1.0000   1.0000   1.0000
     1.0000   1.0000   1.0000   1.0000   1.0000   1.0000   1.0000   1.0000
     1.0000   1.0000   1.0000   1.0000   1.0000   1.0000   1.0000   1.0000
     1.0000   1.0000   1.0000   1.0000   1.0000   1.0000   1.0000   1.0000
     1.0001   1.0001   1.0002   1.0002   0.8824   0.8824   0.8272   0.8272
     0.0041   0.0040  -0.0180  -0.0180  -0.0048  -0.0048  -0.0033  -0.0033
    -0.0000  -0.0000  -0.0000  -0.0000  -0.0000  -0.0000

          k = 0.3333-0.5000-0.5000 (  9668 PWs)   bands (ev):

   -56.4870 -56.4870 -56.4870 -56.4870 -56.4784 -56.4784 -56.4784 -56.4784
   -28.5594 -28.5594 -28.5591 -28.5591 -28.5391 -28.5391 -28.5387 -28.5387
   -27.5921 -27.5921 -27.5837 -27.5837 -27.5638 -27.5638 -27.5419 -27.5419
   -27.4949 -27.4949 -27.4732 -27.4732 -27.4478 -27.4478 -27.4396 -27.4396
     5.8912   5.8912   5.8942   5.8942   6.6640   6.6640   6.6696   6.6696
     9.0934   9.0934   9.1001   9.1001  10.0570  10.0570  10.0612  10.0612
    12.6147  12.6147  12.6187  12.6187  12.8002  12.8002  12.8023  12.8023
    13.0434  13.0434  13.0435  13.0435  13.3530  13.3530  13.3636  13.3636
    14.6576  14.6576  14.6652  14.6652  14.9738  14.9738  14.9813  14.9813
    15.0657  15.0657  15.0713  15.0713  15.2566  15.2566  15.2684  15.2684
    16.3692  16.3692  16.3705  16.3705  16.7216  16.7222

     occupation numbers 
     1.0000   1.0000   1.0000   1.0000   1.0000   1.0000   1.0000   1.0000
     1.0000   1.0000   1.0000   1.0000   1.0000   1.0000   1.0000   1.0000
     1.0000   1.0000   1.0000   1.0000   1.0000   1.0000   1.0000   1.0000
     1.0000   1.0000   1.0000   1.0000   1.0000   1.0000   1.0000   1.0000
     1.0000   1.0000   1.0000   1.0000   1.0000   1.0000   1.0000   1.0000
     1.0000   1.0000   1.0000   1.0000   1.0000   1.0000   1.0000   1.0000
     1.0000   1.0000   1.0000   1.0000   1.0000   1.0000   1.0000   1.0000
     1.0000   1.0000   1.0000   1.0000   1.0000   1.0000   1.0000   1.0000
     1.0154   1.0154   1.0173   1.0173   0.3650   0.3650   0.3283   0.3283
     0.0318   0.0317   0.0213   0.0213  -0.0111  -0.0111  -0.0089  -0.0089
    -0.0000  -0.0000  -0.0000  -0.0000  -0.0000  -0.0000

          k =-0.5000-0.5000-0.5000 (  9568 PWs)   bands (ev):

   -56.4827 -56.4827 -56.4827 -56.4827 -56.4827 -56.4827 -56.4827 -56.4827
   -28.5499 -28.5499 -28.5491 -28.5491 -28.5491 -28.5491 -28.5491 -28.5491
   -27.5800 -27.5800 -27.5800 -27.5800 -27.5800 -27.5800 -27.5460 -27.5460
   -27.4878 -27.4878 -27.4543 -27.4543 -27.4543 -27.4543 -27.4543 -27.4543
     6.3981   6.3981   6.3981   6.3981   6.3981   6.3981   6.4085   6.4085
     9.2380   9.2380   9.2505   9.2505   9.2505   9.2505   9.2505   9.2505
    12.9182  12.9182  12.9247  12.9247  12.9247  12.9247  12.9247  12.9247
    13.0014  13.0014  13.0061  13.0061  13.0062  13.0062  13.0062  13.0062
    14.9355  14.9355  14.9374  14.9374  14.9374  14.9374  14.9374  14.9374
    15.2379  15.2379  15.2379  15.2379  15.2379  15.2379  15.2811  15.2811
    16.4116  16.4116  16.4239  16.4239  16.4239  16.4239

     occupation numbers 
     1.0000   1.0000   1.0000   1.0000   1.0000   1.0000   1.0000   1.0000
     1.0000   1.0000   1.0000   1.0000   1.0000   1.0000   1.0000   1.0000
     1.0000   1.0000   1.0000   1.0000   1.0000   1.0000   1.0000   1.0000
     1.0000   1.0000   1.0000   1.0000   1.0000   1.0000   1.0000   1.0000
     1.0000   1.0000   1.0000   1.0000   1.0000   1.0000   1.0000   1.0000
     1.0000   1.0000   1.0000   1.0000   1.0000   1.0000   1.0000   1.0000
     1.0000   1.0000   1.0000   1.0000   1.0000   1.0000   1.0000   1.0000
     1.0000   1.0000   1.0000   1.0000   1.0000   1.0000   1.0000   1.0000
     0.5611   0.5611   0.5514   0.5514   0.5514   0.5514   0.5514   0.5514
    -0.0152  -0.0152  -0.0152  -0.0152  -0.0152  -0.0152  -0.0069  -0.0069
    -0.0000  -0.0000  -0.0000  -0.0000  -0.0000  -0.0000

          k = 0.0000 0.3333 0.1667 (  9647 PWs)   bands (ev):

   -56.5007 -56.5007 -56.4871 -56.4871 -56.4731 -56.4731 -56.4699 -56.4699
   -28.5834 -28.5785 -28.5722 -28.5703 -28.5380 -28.5352 -28.5004 -28.4997
   -27.6290 -27.6237 -27.5729 -27.5718 -27.5545 -27.5422 -27.5367 -27.5281
   -27.5153 -27.4895 -27.4791 -27.4677 -27.4587 -27.4474 -27.4342 -27.4308
     3.6320   3.6321   5.5367   5.5376   7.3646   7.3658   8.4325   8.4390
     9.7431   9.7456  10.2565  10.2627  10.9715  10.9747  11.0976  11.1002
    11.8637  11.8661  12.2432  12.2472  12.7984  12.8034  12.9767  12.9819
    13.0681  13.0743  13.2459  13.2522  13.3419  13.3466  13.4901  13.4948
    13.5406  13.5431  13.9679  13.9779  14.2316  14.2436  14.8926  14.9245
    15.2808  15.2990  15.3409  15.3579  15.6489  15.6766  15.7875  15.8133
    16.1580  16.1704  16.4251  16.4393  17.2732  17.3030

     occupation numbers 
     1.0000   1.0000   1.0000   1.0000   1.0000   1.0000   1.0000   1.0000
     1.0000   1.0000   1.0000   1.0000   1.0000   1.0000   1.0000   1.0000
     1.0000   1.0000   1.0000   1.0000   1.0000   1.0000   1.0000   1.0000
     1.0000   1.0000   1.0000   1.0000   1.0000   1.0000   1.0000   1.0000
     1.0000   1.0000   1.0000   1.0000   1.0000   1.0000   1.0000   1.0000
     1.0000   1.0000   1.0000   1.0000   1.0000   1.0000   1.0000   1.0000
     1.0000   1.0000   1.0000   1.0000   1.0000   1.0000   1.0000   1.0000
     1.0000   1.0000   1.0000   1.0000   1.0000   1.0000   1.0000   1.0000
     1.0000   1.0000   1.0000   1.0000   1.0000   1.0000   0.7671   0.6171
    -0.0070  -0.0047  -0.0017  -0.0011  -0.0000  -0.0000  -0.0000  -0.0000
    -0.0000  -0.0000  -0.0000  -0.0000  -0.0000  -0.0000

          k = 0.0000-0.5000 0.1667 (  9654 PWs)   bands (ev):

   -56.4941 -56.4941 -56.4941 -56.4941 -56.4713 -56.4713 -56.4713 -56.4713
   -28.5796 -28.5796 -28.5742 -28.5742 -28.5194 -28.5194 -28.5166 -28.5166
   -27.6274 -27.6274 -27.5659 -27.5659 -27.5530 -27.5530 -27.5281 -27.5281
   -27.5060 -27.5060 -27.4740 -27.4740 -27.4544 -27.4544 -27.4316 -27.4316
     4.4923   4.4923   4.4928   4.4928   7.8968   7.8968   7.9015   7.9015
    10.1029  10.1029  10.1079  10.1079  10.8748  10.8748  10.8820  10.8820
    12.1428  12.1428  12.1477  12.1477  12.8635  12.8635  12.8726  12.8726
    13.1101  13.1101  13.1181  13.1181  13.3991  13.3991  13.4082  13.4082
    13.8097  13.8097  13.8151  13.8151  14.6101  14.6101  14.6412  14.6412
    15.2626  15.2626  15.2849  15.2849  15.6865  15.6865  15.7150  15.7150
    16.2188  16.2189  16.2305  16.2306  17.5944  17.6006

     occupation numbers 
     1.0000   1.0000   1.0000   1.0000   1.0000   1.0000   1.0000   1.0000
     1.0000   1.0000   1.0000   1.0000   1.0000   1.0000   1.0000   1.0000
     1.0000   1.0000   1.0000   1.0000   1.0000   1.0000   1.0000   1.0000
     1.0000   1.0000   1.0000   1.0000   1.0000   1.0000   1.0000   1.0000
     1.0000   1.0000   1.0000   1.0000   1.0000   1.0000   1.0000   1.0000
     1.0000   1.0000   1.0000   1.0000   1.0000   1.0000   1.0000   1.0000
     1.0000   1.0000   1.0000   1.0000   1.0000   1.0000   1.0000   1.0000
     1.0000   1.0000   1.0000   1.0000   1.0000   1.0000   1.0000   1.0000
     1.0000   1.0000   1.0000   1.0000   1.0064   1.0064   1.0117   1.0117
    -0.0099  -0.0099  -0.0064  -0.0064  -0.0000  -0.0000  -0.0000  -0.0000
    -0.0000  -0.0000  -0.0000  -0.0000  -0.0000  -0.0000

          k = 0.0000-0.5000 0.3333 (  9646 PWs)   bands (ev):

   -56.4923 -56.4923 -56.4923 -56.4923 -56.4730 -56.4730 -56.4730 -56.4730
   -28.5738 -28.5738 -28.5696 -28.5696 -28.5258 -28.5258 -28.5227 -28.5227
   -27.6155 -27.6155 -27.5775 -27.5775 -27.5445 -27.5445 -27.5252 -27.5252
   -27.5152 -27.5152 -27.4924 -27.4924 -27.4417 -27.4417 -27.4273 -27.4273
     4.9483   4.9483   4.9491   4.9491   7.0313   7.0313   7.0338   7.0338
    10.5077  10.5077  10.5111  10.5111  10.8274  10.8274  10.8296  10.8296
    11.9951  11.9951  12.0006  12.0006  12.4108  12.4108  12.4213  12.4213
    13.2691  13.2691  13.2755  13.2755  13.9164  13.9164  13.9228  13.9229
    13.9582  13.9582  13.9714  13.9714  14.6457  14.6457  14.6791  14.6791
    14.9053  14.9053  14.9412  14.9412  15.4826  15.4826  15.5058  15.5058
    16.3893  16.3893  16.4012  16.4012  17.2965  17.2980

     occupation numbers 
     1.0000   1.0000   1.0000   1.0000   1.0000   1.0000   1.0000   1.0000
     1.0000   1.0000   1.0000   1.0000   1.0000   1.0000   1.0000   1.0000
     1.0000   1.0000   1.0000   1.0000   1.0000   1.0000   1.0000   1.0000
     1.0000   1.0000   1.0000   1.0000   1.0000   1.0000   1.0000   1.0000
     1.0000   1.0000   1.0000   1.0000   1.0000   1.0000   1.0000   1.0000
     1.0000   1.0000   1.0000   1.0000   1.0000   1.0000   1.0000   1.0000
     1.0000   1.0000   1.0000   1.0000   1.0000   1.0000   1.0000   1.0000
     1.0000   1.0000   1.0000   1.0000   1.0000   1.0000   1.0000   1.0000
     1.0000   1.0000   1.0000   1.0000   1.0127   1.0127   1.0211   1.0211
     0.7102   0.7102   0.5320   0.5320  -0.0000  -0.0000  -0.0000  -0.0000
    -0.0000  -0.0000  -0.0000  -0.0000  -0.0000  -0.0000

          k =-0.1667-0.5000 0.3333 (  9682 PWs)   bands (ev):

   -56.4913 -56.4913 -56.4913 -56.4913 -56.4741 -56.4741 -56.4741 -56.4741
   -28.5714 -28.5714 -28.5673 -28.5673 -28.5288 -28.5288 -28.5254 -28.5254
   -27.6122 -27.6122 -27.5755 -27.5755 -27.5522 -27.5522 -27.5277 -27.5277
   -27.5141 -27.5141 -27.4825 -27.4825 -27.4464 -27.4464 -27.4281 -27.4281
     5.0991   5.0991   5.1002   5.1002   7.0747   7.0747   7.0786   7.0786
     9.6361   9.6361   9.6389   9.6389  11.1983  11.1983  11.2013  11.2013
    11.9975  11.9975  12.0041  12.0041  12.6323  12.6323  12.6426  12.6426
    13.1736  13.1736  13.1816  13.1816  13.6517  13.6517  13.6634  13.6634
    14.1722  14.1722  14.1815  14.1815  14.7185  14.7185  14.7438  14.7438
    14.9643  14.9643  14.9956  14.9956  15.4271  15.4271  15.4443  15.4443
    16.3588  16.3589  16.3696  16.3697  17.2178  17.2201

     occupation numbers 
     1.0000   1.0000   1.0000   1.0000   1.0000   1.0000   1.0000   1.0000
     1.0000   1.0000   1.0000   1.0000   1.0000   1.0000   1.0000   1.0000
     1.0000   1.0000   1.0000   1.0000   1.0000   1.0000   1.0000   1.0000
     1.0000   1.0000   1.0000   1.0000   1.0000   1.0000   1.0000   1.0000
     1.0000   1.0000   1.0000   1.0000   1.0000   1.0000   1.0000   1.0000
     1.0000   1.0000   1.0000   1.0000   1.0000   1.0000   1.0000   1.0000
     1.0000   1.0000   1.0000   1.0000   1.0000   1.0000   1.0000   1.0000
     1.0000   1.0000   1.0000   1.0000   1.0000   1.0000   1.0000   1.0000
     1.0000   1.0000   1.0000   1.0000   1.0317   1.0317   1.0354   1.0354
     0.4126   0.4126   0.2615   0.2615  -0.0001  -0.0001  -0.0001  -0.0001
    -0.0000  -0.0000  -0.0000  -0.0000  -0.0000  -0.0000

     the Fermi energy is    14.9474 ev

!    total energy              =   -1180.34989176 Ry

     total all-electron energy =    -10727.810728 Ry
     estimated scf accuracy    <       0.00000086 Ry
     smearing contrib. (-TS)   =      -0.00134485 Ry
     internal energy E=F+TS    =   -1180.34854691 Ry

     The total energy is F=E-TS. E is the sum of the following terms:
     one-electron contribution =    -336.79661128 Ry
     hartree contribution      =     207.04258235 Ry
     xc contribution           =    -114.36212001 Ry
     ewald contribution        =    -496.51183961 Ry
     one-center paw contrib.   =    -439.72055836 Ry
      -> PAW hartree energy AE =     126.71837816 Ry
      -> PAW hartree energy PS =    -125.75111042 Ry
      -> PAW xc energy AE      =     -96.23985331 Ry
      -> PAW xc energy PS      =      20.93264624 Ry
      -> total E_H with PAW    =     208.00985010 Ry
      -> total E_XC with PAW   =    -189.66932708 Ry

     convergence has been achieved in   6 iterations

     Forces acting on atoms (cartesian axes, Ry/au):

     atom    1 type  1   force =    -0.00271155   -0.00271155    0.00271155
     atom    2 type  1   force =    -0.00271155    0.00271155   -0.00271155
     atom    3 type  1   force =     0.00271155   -0.00271155   -0.00271155
     atom    4 type  1   force =     0.00271155    0.00271155    0.00271155
     atom    5 type  2   force =    -0.00409186   -0.00409186    0.00409186
     atom    6 type  2   force =    -0.00409186    0.00409186   -0.00409186
     atom    7 type  2   force =     0.00409186   -0.00409186   -0.00409186
     atom    8 type  2   force =     0.00409186    0.00409186    0.00409186
     The non-local contrib.  to forces
     atom    1 type  1   force =     0.05164052    0.05164052   -0.05164052
     atom    2 type  1   force =     0.05164052   -0.05164052    0.05164052
     atom    3 type  1   force =    -0.05164052    0.05164052    0.05164052
     atom    4 type  1   force =    -0.05164052   -0.05164052   -0.05164052
     atom    5 type  2   force =    -0.00818725   -0.00818725    0.00818725
     atom    6 type  2   force =    -0.00818725    0.00818725   -0.00818725
     atom    7 type  2   force =     0.00818725   -0.00818725   -0.00818725
     atom    8 type  2   force =     0.00818725    0.00818725    0.00818725
     The ionic contribution  to forces
     atom    1 type  1   force =    -0.85044630   -0.85044630    0.85044630
     atom    2 type  1   force =    -0.85044630    0.85044630   -0.85044630
     atom    3 type  1   force =     0.85044630   -0.85044630   -0.85044630
     atom    4 type  1   force =     0.85044630    0.85044630    0.85044630
     atom    5 type  2   force =    -0.24524978   -0.24524978    0.24524978
     atom    6 type  2   force =    -0.24524978    0.24524978   -0.24524978
     atom    7 type  2   force =     0.24524978   -0.24524978   -0.24524978
     atom    8 type  2   force =     0.24524978    0.24524978    0.24524978
     The local contribution  to forces
     atom    1 type  1   force =     0.79724601    0.79724601   -0.79724601
     atom    2 type  1   force =     0.79724601   -0.79724601    0.79724601
     atom    3 type  1   force =    -0.79724601    0.79724601    0.79724601
     atom    4 type  1   force =    -0.79724601   -0.79724601   -0.79724601
     atom    5 type  2   force =     0.24849372    0.24849372   -0.24849372
     atom    6 type  2   force =     0.24849372   -0.24849372    0.24849372
     atom    7 type  2   force =    -0.24849372    0.24849372    0.24849372
     atom    8 type  2   force =    -0.24849372   -0.24849372   -0.24849372
     The core correction contribution to forces
     atom    1 type  1   force =    -0.00104442   -0.00104442    0.00104442
     atom    2 type  1   force =    -0.00104442    0.00104442   -0.00104442
     atom    3 type  1   force =     0.00104442   -0.00104442   -0.00104442
     atom    4 type  1   force =     0.00104442    0.00104442    0.00104442
     atom    5 type  2   force =     0.00080902    0.00080902   -0.00080902
     atom    6 type  2   force =     0.00080902   -0.00080902    0.00080902
     atom    7 type  2   force =    -0.00080902    0.00080902    0.00080902
     atom    8 type  2   force =    -0.00080902   -0.00080902   -0.00080902
     The Hubbard contrib.    to forces
     atom    1 type  1   force =     0.00000000    0.00000000    0.00000000
     atom    2 type  1   force =     0.00000000    0.00000000    0.00000000
     atom    3 type  1   force =     0.00000000    0.00000000    0.00000000
     atom    4 type  1   force =     0.00000000    0.00000000    0.00000000
     atom    5 type  2   force =     0.00000000    0.00000000    0.00000000
     atom    6 type  2   force =     0.00000000    0.00000000    0.00000000
     atom    7 type  2   force =     0.00000000    0.00000000    0.00000000
     atom    8 type  2   force =     0.00000000    0.00000000    0.00000000
     The SCF correction term to forces
     atom    1 type  1   force =    -0.00010736   -0.00010736    0.00010736
     atom    2 type  1   force =    -0.00010736    0.00010736   -0.00010736
     atom    3 type  1   force =     0.00010736   -0.00010736   -0.00010736
     atom    4 type  1   force =     0.00010736    0.00010736    0.00010736
     atom    5 type  2   force =     0.00004243    0.00004243   -0.00004243
     atom    6 type  2   force =     0.00004243   -0.00004243    0.00004243
     atom    7 type  2   force =    -0.00004243    0.00004243    0.00004243
     atom    8 type  2   force =    -0.00004243   -0.00004243   -0.00004243

     Total force =     0.017004     Total SCF correction =     0.000400


     Computing stress (Cartesian axis) and pressure

          total   stress  (Ry/bohr**3)                   (kbar)     P=      -43.33
  -0.00029457   0.00000000   0.00000000          -43.33        0.00        0.00
   0.00000000  -0.00029457   0.00000000            0.00      -43.33        0.00
   0.00000000   0.00000000  -0.00029457            0.00        0.00      -43.33

     kinetic stress (kbar)  35758.37      0.00      0.00
                                0.00  35758.37      0.00
                                0.00      0.00  35758.37

     local   stress (kbar) -10012.95     -0.00      0.00
                               -0.00 -10012.95     -0.00
                                0.00     -0.00 -10012.95

     nonloc. stress (kbar)   2427.83      0.00      0.00
                                0.00   2427.83      0.00
                                0.00      0.00   2427.83

     hartree stress (kbar)  15167.29     -0.00     -0.00
                               -0.00  15167.29     -0.00
                               -0.00     -0.00  15167.29

     exc-cor stress (kbar)  -1706.61      0.00     -0.00
                                0.00  -1706.61     -0.00
                               -0.00     -0.00  -1706.61

     corecor stress (kbar)  -5304.37      0.00      0.00
                                0.00  -5304.37      0.00
                                0.00      0.00  -5304.37

     ewald   stress (kbar) -36372.90      0.00      0.00
                                0.00 -36372.90      0.00
                                0.00      0.00 -36372.90

     hubbard stress (kbar)      0.00      0.00      0.00
                                0.00      0.00      0.00
                                0.00      0.00      0.00

     DFT-D   stress (kbar)      0.00      0.00      0.00
                                0.00      0.00      0.00
                                0.00      0.00      0.00

     XDM     stress (kbar)      0.00      0.00      0.00
                                0.00      0.00      0.00
                                0.00      0.00      0.00

     dft-nl  stress (kbar)      0.00      0.00      0.00
                                0.00      0.00      0.00
                                0.00      0.00      0.00

     TS-vdW  stress (kbar)      0.00      0.00      0.00
                                0.00      0.00      0.00
                                0.00      0.00      0.00



     Writing output data file /zfs_data/vergnior/martin/Scratch/OAL/CrSi/convergence/smearing/6x6x6/0.012/tmp/CrSi.save/
 
     init_run     :      4.61s CPU      4.84s WALL (       1 calls)
     electrons    :     89.90s CPU     92.47s WALL (       1 calls)
     forces       :      3.98s CPU      4.06s WALL (       1 calls)
     stress       :     10.48s CPU     10.70s WALL (       1 calls)

     Called by init_run:
     wfcinit      :      3.40s CPU      3.48s WALL (       1 calls)
     wfcinit:atom :      0.03s CPU      0.03s WALL (      24 calls)
     wfcinit:wfcr :      3.24s CPU      3.32s WALL (      24 calls)
     potinit      :      0.19s CPU      0.26s WALL (       1 calls)
     hinit0       :      0.17s CPU      0.18s WALL (       1 calls)

     Called by electrons:
     c_bands      :     70.16s CPU     71.43s WALL (       7 calls)
     sum_band     :     15.72s CPU     16.57s WALL (       7 calls)
     v_of_rho     :      0.16s CPU      0.17s WALL (       7 calls)
     v_h          :      0.01s CPU      0.01s WALL (       7 calls)
     v_xc         :      0.19s CPU      0.20s WALL (       9 calls)
     newd         :      3.45s CPU      3.91s WALL (       7 calls)
     PAW_pot      :      0.88s CPU      0.89s WALL (       7 calls)
     mix_rho      :      0.09s CPU      0.09s WALL (       7 calls)

     Called by c_bands:
     init_us_2    :      0.38s CPU      0.39s WALL (     408 calls)
     cegterg      :     63.56s CPU     64.74s WALL (     168 calls)

     Called by sum_band:
     sum_band:wei :      0.02s CPU      0.02s WALL (       7 calls)
     sum_band:loo :     13.17s CPU     13.40s WALL (       7 calls)
     sum_band:buf :      0.12s CPU      0.13s WALL (     168 calls)
     sum_band:ini :      0.17s CPU      0.17s WALL (     168 calls)
     sum_band:cal :      0.90s CPU      0.90s WALL (     168 calls)
     sum_band:bec :      2.16s CPU      2.17s WALL (     168 calls)
     addusdens    :      2.34s CPU      2.96s WALL (       7 calls)
     addusd:skk   :      0.01s CPU      0.01s WALL (      14 calls)
     addusd:dgemm :      0.91s CPU      1.50s WALL (      14 calls)
     addusd:qvan2 :      1.40s CPU      1.41s WALL (      14 calls)

     Called by *egterg:
     cdiaghg      :      6.19s CPU      6.22s WALL (     856 calls)
     cegterg:over :      3.32s CPU      3.35s WALL (     712 calls)
     cegterg:upda :      1.69s CPU      1.70s WALL (     712 calls)
     cegterg:last :      3.01s CPU      3.03s WALL (     428 calls)
     h_psi        :     44.34s CPU     45.41s WALL (     904 calls)
     s_psi        :      6.38s CPU      6.41s WALL (     904 calls)
     g_psi        :      0.11s CPU      0.11s WALL (     712 calls)

     Called by h_psi:
     h_psi:calbec :      3.09s CPU      3.11s WALL (     904 calls)
     vloc_psi     :     35.15s CPU     36.13s WALL (     904 calls)
     add_vuspsi   :      5.88s CPU      5.94s WALL (     904 calls)

     General routines
     calbec       :      4.57s CPU      4.60s WALL (    1192 calls)
     fft          :      0.17s CPU      0.18s WALL (     172 calls)
     ffts         :      0.02s CPU      0.08s WALL (      56 calls)
     fftw         :     32.57s CPU     33.46s WALL (  219860 calls)
     interpolate  :      0.04s CPU      0.11s WALL (      28 calls)
 
     Parallel routines
     fft_scatt_xy :      3.18s CPU      3.27s WALL (  220088 calls)
     fft_scatt_yz :     11.88s CPU     12.19s WALL (  220088 calls)

     PAW routines
     PAW_pot      :      0.88s CPU      0.89s WALL (       7 calls)
     PAW_symme    :      0.01s CPU      0.01s WALL (      14 calls)
 
     PWSCF        :   1m51.96s CPU   1m56.15s WALL

 
   This run was terminated on:  12:44:15   1Aug2021            

=------------------------------------------------------------------------------=
   JOB DONE.
=------------------------------------------------------------------------------=
