MPI startup(): Warning: I_MPI_PMI_LIBRARY will be ignored since the hydra process manager was found
MPI startup(): Warning: I_MPI_PMI_LIBRARY will be ignored since the hydra process manager was found
MPI startup(): Warning: I_MPI_PMI_LIBRARY will be ignored since the hydra process manager was found
MPI startup(): Warning: I_MPI_PMI_LIBRARY will be ignored since the hydra process manager was found
MPI startup(): Warning: I_MPI_PMI_LIBRARY will be ignored since the hydra process manager was found
MPI startup(): Warning: I_MPI_PMI_LIBRARY will be ignored since the hydra process manager was found
MPI startup(): Warning: I_MPI_PMI_LIBRARY will be ignored since the hydra process manager was found
MPI startup(): Warning: I_MPI_PMI_LIBRARY will be ignored since the hydra process manager was found
MPI startup(): Warning: I_MPI_PMI_LIBRARY will be ignored since the hydra process manager was found
MPI startup(): Warning: I_MPI_PMI_LIBRARY will be ignored since the hydra process manager was found
MPI startup(): Warning: I_MPI_PMI_LIBRARY will be ignored since the hydra process manager was found
MPI startup(): Warning: I_MPI_PMI_LIBRARY will be ignored since the hydra process manager was found
MPI startup(): Warning: I_MPI_PMI_LIBRARY will be ignored since the hydra process manager was found
MPI startup(): Warning: I_MPI_PMI_LIBRARY will be ignored since the hydra process manager was found
MPI startup(): Warning: I_MPI_PMI_LIBRARY will be ignored since the hydra process manager was found
MPI startup(): Warning: I_MPI_PMI_LIBRARY will be ignored since the hydra process manager was found
MPI startup(): Warning: I_MPI_PMI_LIBRARY will be ignored since the hydra process manager was found
MPI startup(): Warning: I_MPI_PMI_LIBRARY will be ignored since the hydra process manager was found
MPI startup(): Warning: I_MPI_PMI_LIBRARY will be ignored since the hydra process manager was found
MPI startup(): Warning: I_MPI_PMI_LIBRARY will be ignored since the hydra process manager was found
MPI startup(): Warning: I_MPI_PMI_LIBRARY will be ignored since the hydra process manager was found
MPI startup(): Warning: I_MPI_PMI_LIBRARY will be ignored since the hydra process manager was found
MPI startup(): Warning: I_MPI_PMI_LIBRARY will be ignored since the hydra process manager was found
MPI startup(): Warning: I_MPI_PMI_LIBRARY will be ignored since the hydra process manager was found

     Program PWSCF v.6.7MaX starts on  1Aug2021 at 12:39:46 

     This program is part of the open-source Quantum ESPRESSO suite
     for quantum simulation of materials; please cite
         "P. Giannozzi et al., J. Phys.:Condens. Matter 21 395502 (2009);
         "P. Giannozzi et al., J. Phys.:Condens. Matter 29 465901 (2017);
          URL http://www.quantum-espresso.org", 
     in publications or presentations arising from this work. More details at
     http://www.quantum-espresso.org/quote

     Parallel version (MPI), running on    24 processors

     MPI processes distributed on     1 nodes
     R & G space division:  proc/nbgrp/npool/nimage =      24
     Waiting for input...
     Reading input from standard input

     Current dimensions of program PWSCF are:
     Max number of different atomic species (ntypx) = 10
     Max number of k-points (npk) =  40000
     Max angular momentum in pseudopotentials (lmaxx) =  3
     file Cr.rel-pbe-spn-kjpaw_psl.1.0.0.UPF: wavefunction(s)  3S 3P 3P 3D 3D renormalized
     file Si.rel-pbe-n-kjpaw_psl.1.0.0.UPF: wavefunction(s)  3S 3P 3P renormalized

     Subspace diagonalization in iterative solution of the eigenvalue problem:
     a serial algorithm will be used

     Message from routine setup:
     using ibrav=0 with symmetry is DISCOURAGED, use correct ibrav instead
 
     Parallelization info
     --------------------
     sticks:   dense  smooth     PW     G-vecs:    dense   smooth      PW
     Min         228      91     25                12702     3210     487
     Max         229      93     26                12704     3214     492
     Sum        5473    2201    621               304867    77053   11753
 


     bravais-lattice index     =            0
     lattice parameter (alat)  =       8.7475  a.u.
     unit-cell volume          =     669.3575 (a.u.)^3
     number of atoms/cell      =            8
     number of atomic types    =            2
     number of electrons       =        72.00
     number of Kohn-Sham states=           86
     kinetic-energy cutoff     =      90.0000  Ry
     charge density cutoff     =     900.0000  Ry
     scf convergence threshold =      1.0E-06
     mixing beta               =       0.7000
     number of iterations used =            8  plain     mixing
     Exchange-correlation= SLA  PW   PBX  PBC
                           (   1   4   3   4   0   0   0)
     Non magnetic calculation with spin-orbit


     celldm(1)=   8.747542  celldm(2)=   0.000000  celldm(3)=   0.000000
     celldm(4)=   0.000000  celldm(5)=   0.000000  celldm(6)=   0.000000

     crystal axes: (cart. coord. in units of alat)
               a(1) = (   1.000000   0.000000   0.000000 )  
               a(2) = (   0.000000   1.000000   0.000000 )  
               a(3) = (   0.000000   0.000000   1.000000 )  

     reciprocal axes: (cart. coord. in units 2 pi/alat)
               b(1) = (  1.000000  0.000000  0.000000 )  
               b(2) = (  0.000000  1.000000  0.000000 )  
               b(3) = (  0.000000  0.000000  1.000000 )  


     PseudoPot. # 1 for Cr read from file:
     ../../../../pseudo/Cr.rel-pbe-spn-kjpaw_psl.1.0.0.UPF
     MD5 check sum: 1e24e2b5251376a8b945118fca0c7981
     Pseudo is Projector augmented-wave + core cor, Zval = 14.0
     Generated using &quot;atomic&quot; code by A. Dal Corso  v.6.3
     Shape of augmentation charge: PSQ
     Using radial grid of 1183 points, 10 beta functions with: 
                l(1) =   0
                l(2) =   0
                l(3) =   1
                l(4) =   1
                l(5) =   1
                l(6) =   1
                l(7) =   2
                l(8) =   2
                l(9) =   2
               l(10) =   2
     Q(r) pseudized with 0 coefficients 


     PseudoPot. # 2 for Si read from file:
     ../../../../pseudo/Si.rel-pbe-n-kjpaw_psl.1.0.0.UPF
     MD5 check sum: d74f6caf6830ea4c2076867160cab1b0
     Pseudo is Projector augmented-wave + core cor, Zval =  4.0
     Generated using &quot;atomic&quot; code by A. Dal Corso  v.6.3
     Shape of augmentation charge: PSQ
     Using radial grid of 1141 points, 10 beta functions with: 
                l(1) =   0
                l(2) =   0
                l(3) =   1
                l(4) =   1
                l(5) =   1
                l(6) =   1
                l(7) =   2
                l(8) =   2
                l(9) =   2
               l(10) =   2
     Q(r) pseudized with 0 coefficients 


     atomic species   valence    mass     pseudopotential
        Cr            14.00    51.99600     Cr( 1.00)
        Si             4.00    28.08500     Si( 1.00)

     12 Sym. Ops. (no inversion) found ( 9 have fractional translation)


                                    s                        frac. trans.

      isym =  1     identity                                     

 cryst.   s( 1) = (     1          0          0      )
                  (     0          1          0      )
                  (     0          0          1      )

 cart.    s( 1) = (  1.0000000  0.0000000  0.0000000 )
                  (  0.0000000  1.0000000  0.0000000 )
                  (  0.0000000  0.0000000  1.0000000 )


      isym =  2     180 deg rotation - cart. axis [0,0,1]        

 cryst.   s( 2) = (    -1          0          0      )    f =(  0.5000000 )
                  (     0         -1          0      )       (  0.0000000 )
                  (     0          0          1      )       ( -0.5000000 )

 cart.    s( 2) = ( -1.0000000  0.0000000  0.0000000 )    f =(  0.5000000 )
                  (  0.0000000 -1.0000000  0.0000000 )       (  0.0000000 )
                  (  0.0000000  0.0000000  1.0000000 )       ( -0.5000000 )


      isym =  3     180 deg rotation - cart. axis [0,1,0]        

 cryst.   s( 3) = (    -1          0          0      )    f =(  0.0000000 )
                  (     0          1          0      )       ( -0.5000000 )
                  (     0          0         -1      )       (  0.5000000 )

 cart.    s( 3) = ( -1.0000000  0.0000000  0.0000000 )    f =(  0.0000000 )
                  (  0.0000000  1.0000000  0.0000000 )       ( -0.5000000 )
                  (  0.0000000  0.0000000 -1.0000000 )       (  0.5000000 )


      isym =  4     180 deg rotation - cart. axis [1,0,0]        

 cryst.   s( 4) = (     1          0          0      )    f =(  0.5000000 )
                  (     0         -1          0      )       (  0.5000000 )
                  (     0          0         -1      )       (  0.0000000 )

 cart.    s( 4) = (  1.0000000  0.0000000  0.0000000 )    f =(  0.5000000 )
                  (  0.0000000 -1.0000000  0.0000000 )       (  0.5000000 )
                  (  0.0000000  0.0000000 -1.0000000 )       (  0.0000000 )


      isym =  5     120 deg rotation - cart. axis [-1,-1,-1]     

 cryst.   s( 5) = (     0          0          1      )
                  (     1          0          0      )
                  (     0          1          0      )

 cart.    s( 5) = (  0.0000000  1.0000000  0.0000000 )
                  (  0.0000000  0.0000000  1.0000000 )
                  (  1.0000000  0.0000000  0.0000000 )


      isym =  6     120 deg rotation - cart. axis [-1,1,1]       

 cryst.   s( 6) = (     0          0         -1      )    f =(  0.0000000 )
                  (    -1          0          0      )       ( -0.5000000 )
                  (     0          1          0      )       (  0.5000000 )

 cart.    s( 6) = (  0.0000000 -1.0000000  0.0000000 )    f =(  0.0000000 )
                  (  0.0000000  0.0000000  1.0000000 )       ( -0.5000000 )
                  ( -1.0000000  0.0000000  0.0000000 )       (  0.5000000 )


      isym =  7     120 deg rotation - cart. axis [1,1,-1]       

 cryst.   s( 7) = (     0          0         -1      )    f =(  0.5000000 )
                  (     1          0          0      )       (  0.5000000 )
                  (     0         -1          0      )       (  0.0000000 )

 cart.    s( 7) = (  0.0000000  1.0000000  0.0000000 )    f =(  0.5000000 )
                  (  0.0000000  0.0000000 -1.0000000 )       (  0.5000000 )
                  ( -1.0000000  0.0000000  0.0000000 )       (  0.0000000 )


      isym =  8     120 deg rotation - cart. axis [1,-1,1]       

 cryst.   s( 8) = (     0          0          1      )    f =(  0.5000000 )
                  (    -1          0          0      )       (  0.0000000 )
                  (     0         -1          0      )       ( -0.5000000 )

 cart.    s( 8) = (  0.0000000 -1.0000000  0.0000000 )    f =(  0.5000000 )
                  (  0.0000000  0.0000000 -1.0000000 )       (  0.0000000 )
                  (  1.0000000  0.0000000  0.0000000 )       ( -0.5000000 )


      isym =  9     120 deg rotation - cart. axis [1,1,1]        

 cryst.   s( 9) = (     0          1          0      )
                  (     0          0          1      )
                  (     1          0          0      )

 cart.    s( 9) = (  0.0000000  0.0000000  1.0000000 )
                  (  1.0000000  0.0000000  0.0000000 )
                  (  0.0000000  1.0000000  0.0000000 )


      isym = 10     120 deg rotation - cart. axis [-1,1,-1]      

 cryst.   s(10) = (     0         -1          0      )    f =(  0.5000000 )
                  (     0          0         -1      )       (  0.5000000 )
                  (     1          0          0      )       (  0.0000000 )

 cart.    s(10) = (  0.0000000  0.0000000  1.0000000 )    f =(  0.5000000 )
                  ( -1.0000000  0.0000000  0.0000000 )       (  0.5000000 )
                  (  0.0000000 -1.0000000  0.0000000 )       (  0.0000000 )


      isym = 11     120 deg rotation - cart. axis [1,-1,-1]      

 cryst.   s(11) = (     0         -1          0      )    f =(  0.5000000 )
                  (     0          0          1      )       (  0.0000000 )
                  (    -1          0          0      )       ( -0.5000000 )

 cart.    s(11) = (  0.0000000  0.0000000 -1.0000000 )    f =(  0.5000000 )
                  ( -1.0000000  0.0000000  0.0000000 )       (  0.0000000 )
                  (  0.0000000  1.0000000  0.0000000 )       ( -0.5000000 )


      isym = 12     120 deg rotation - cart. axis [-1,-1,1]      

 cryst.   s(12) = (     0          1          0      )    f =(  0.0000000 )
                  (     0          0         -1      )       ( -0.5000000 )
                  (    -1          0          0      )       (  0.5000000 )

 cart.    s(12) = (  0.0000000  0.0000000 -1.0000000 )    f =(  0.0000000 )
                  (  1.0000000  0.0000000  0.0000000 )       ( -0.5000000 )
                  (  0.0000000 -1.0000000  0.0000000 )       (  0.5000000 )


   Cartesian axes

     site n.     atom                  positions (alat units)
         1           Cr  tau(   1) = (   0.8640000   0.3640000   0.1360000  )
         2           Cr  tau(   2) = (   0.3640000   0.1360000   0.8640000  )
         3           Cr  tau(   3) = (   0.1360000   0.8640000   0.3640000  )
         4           Cr  tau(   4) = (   0.6360000   0.6360000   0.6360000  )
         5           Si  tau(   5) = (   0.1540000   0.6540000   0.8460000  )
         6           Si  tau(   6) = (   0.6540000   0.8460000   0.1540000  )
         7           Si  tau(   7) = (   0.8460000   0.1540000   0.6540000  )
         8           Si  tau(   8) = (   0.3460000   0.3460000   0.3460000  )

   Crystallographic axes

     site n.     atom                  positions (cryst. coord.)
         1           Cr  tau(   1) = (  0.8640000  0.3640000  0.1360000  )
         2           Cr  tau(   2) = (  0.3640000  0.1360000  0.8640000  )
         3           Cr  tau(   3) = (  0.1360000  0.8640000  0.3640000  )
         4           Cr  tau(   4) = (  0.6360000  0.6360000  0.6360000  )
         5           Si  tau(   5) = (  0.1540000  0.6540000  0.8460000  )
         6           Si  tau(   6) = (  0.6540000  0.8460000  0.1540000  )
         7           Si  tau(   7) = (  0.8460000  0.1540000  0.6540000  )
         8           Si  tau(   8) = (  0.3460000  0.3460000  0.3460000  )

     number of k points=   119  Methfessel-Paxton smearing, width (Ry)=  0.0120
                       cart. coord. in units 2pi/alat
        k(    1) = (   0.0000000   0.0000000   0.0000000), wk =   0.0005787
        k(    2) = (   0.0000000   0.0000000   0.0833333), wk =   0.0034722
        k(    3) = (   0.0000000   0.0000000   0.1666667), wk =   0.0034722
        k(    4) = (   0.0000000   0.0000000   0.2500000), wk =   0.0034722
        k(    5) = (   0.0000000   0.0000000   0.3333333), wk =   0.0034722
        k(    6) = (   0.0000000   0.0000000   0.4166667), wk =   0.0034722
        k(    7) = (   0.0000000   0.0000000  -0.5000000), wk =   0.0017361
        k(    8) = (   0.0000000   0.0833333   0.0833333), wk =   0.0069444
        k(    9) = (   0.0000000   0.0833333   0.1666667), wk =   0.0069444
        k(   10) = (   0.0000000   0.0833333   0.2500000), wk =   0.0069444
        k(   11) = (   0.0000000   0.0833333   0.3333333), wk =   0.0069444
        k(   12) = (   0.0000000   0.0833333   0.4166667), wk =   0.0069444
        k(   13) = (   0.0000000   0.0833333  -0.5000000), wk =   0.0034722
        k(   14) = (   0.0000000   0.1666667   0.1666667), wk =   0.0069444
        k(   15) = (   0.0000000   0.1666667   0.2500000), wk =   0.0069444
        k(   16) = (   0.0000000   0.1666667   0.3333333), wk =   0.0069444
        k(   17) = (   0.0000000   0.1666667   0.4166667), wk =   0.0069444
        k(   18) = (   0.0000000   0.1666667  -0.5000000), wk =   0.0034722
        k(   19) = (   0.0000000   0.2500000   0.2500000), wk =   0.0069444
        k(   20) = (   0.0000000   0.2500000   0.3333333), wk =   0.0069444
        k(   21) = (   0.0000000   0.2500000   0.4166667), wk =   0.0069444
        k(   22) = (   0.0000000   0.2500000  -0.5000000), wk =   0.0034722
        k(   23) = (   0.0000000   0.3333333   0.3333333), wk =   0.0069444
        k(   24) = (   0.0000000   0.3333333   0.4166667), wk =   0.0069444
        k(   25) = (   0.0000000   0.3333333  -0.5000000), wk =   0.0034722
        k(   26) = (   0.0000000   0.4166667   0.4166667), wk =   0.0069444
        k(   27) = (   0.0000000   0.4166667  -0.5000000), wk =   0.0034722
        k(   28) = (   0.0000000  -0.5000000  -0.5000000), wk =   0.0017361
        k(   29) = (   0.0833333   0.0833333   0.0833333), wk =   0.0046296
        k(   30) = (   0.0833333   0.0833333   0.1666667), wk =   0.0138889
        k(   31) = (   0.0833333   0.0833333   0.2500000), wk =   0.0138889
        k(   32) = (   0.0833333   0.0833333   0.3333333), wk =   0.0138889
        k(   33) = (   0.0833333   0.0833333   0.4166667), wk =   0.0138889
        k(   34) = (   0.0833333   0.0833333  -0.5000000), wk =   0.0069444
        k(   35) = (   0.0833333   0.1666667   0.1666667), wk =   0.0138889
        k(   36) = (   0.0833333   0.1666667   0.2500000), wk =   0.0138889
        k(   37) = (   0.0833333   0.1666667   0.3333333), wk =   0.0138889
        k(   38) = (   0.0833333   0.1666667   0.4166667), wk =   0.0138889
        k(   39) = (   0.0833333   0.1666667  -0.5000000), wk =   0.0069444
        k(   40) = (   0.0833333   0.2500000   0.2500000), wk =   0.0138889
        k(   41) = (   0.0833333   0.2500000   0.3333333), wk =   0.0138889
        k(   42) = (   0.0833333   0.2500000   0.4166667), wk =   0.0138889
        k(   43) = (   0.0833333   0.2500000  -0.5000000), wk =   0.0069444
        k(   44) = (   0.0833333   0.3333333   0.3333333), wk =   0.0138889
        k(   45) = (   0.0833333   0.3333333   0.4166667), wk =   0.0138889
        k(   46) = (   0.0833333   0.3333333  -0.5000000), wk =   0.0069444
        k(   47) = (   0.0833333   0.4166667   0.4166667), wk =   0.0138889
        k(   48) = (   0.0833333   0.4166667  -0.5000000), wk =   0.0069444
        k(   49) = (   0.0833333  -0.5000000  -0.5000000), wk =   0.0034722
        k(   50) = (   0.1666667   0.1666667   0.1666667), wk =   0.0046296
        k(   51) = (   0.1666667   0.1666667   0.2500000), wk =   0.0138889
        k(   52) = (   0.1666667   0.1666667   0.3333333), wk =   0.0138889
        k(   53) = (   0.1666667   0.1666667   0.4166667), wk =   0.0138889
        k(   54) = (   0.1666667   0.1666667  -0.5000000), wk =   0.0069444
        k(   55) = (   0.1666667   0.2500000   0.2500000), wk =   0.0138889
        k(   56) = (   0.1666667   0.2500000   0.3333333), wk =   0.0138889
        k(   57) = (   0.1666667   0.2500000   0.4166667), wk =   0.0138889
        k(   58) = (   0.1666667   0.2500000  -0.5000000), wk =   0.0069444
        k(   59) = (   0.1666667   0.3333333   0.3333333), wk =   0.0138889
        k(   60) = (   0.1666667   0.3333333   0.4166667), wk =   0.0138889
        k(   61) = (   0.1666667   0.3333333  -0.5000000), wk =   0.0069444
        k(   62) = (   0.1666667   0.4166667   0.4166667), wk =   0.0138889
        k(   63) = (   0.1666667   0.4166667  -0.5000000), wk =   0.0069444
        k(   64) = (   0.1666667  -0.5000000  -0.5000000), wk =   0.0034722
        k(   65) = (   0.2500000   0.2500000   0.2500000), wk =   0.0046296
        k(   66) = (   0.2500000   0.2500000   0.3333333), wk =   0.0138889
        k(   67) = (   0.2500000   0.2500000   0.4166667), wk =   0.0138889
        k(   68) = (   0.2500000   0.2500000  -0.5000000), wk =   0.0069444
        k(   69) = (   0.2500000   0.3333333   0.3333333), wk =   0.0138889
        k(   70) = (   0.2500000   0.3333333   0.4166667), wk =   0.0138889
        k(   71) = (   0.2500000   0.3333333  -0.5000000), wk =   0.0069444
        k(   72) = (   0.2500000   0.4166667   0.4166667), wk =   0.0138889
        k(   73) = (   0.2500000   0.4166667  -0.5000000), wk =   0.0069444
        k(   74) = (   0.2500000  -0.5000000  -0.5000000), wk =   0.0034722
        k(   75) = (   0.3333333   0.3333333   0.3333333), wk =   0.0046296
        k(   76) = (   0.3333333   0.3333333   0.4166667), wk =   0.0138889
        k(   77) = (   0.3333333   0.3333333  -0.5000000), wk =   0.0069444
        k(   78) = (   0.3333333   0.4166667   0.4166667), wk =   0.0138889
        k(   79) = (   0.3333333   0.4166667  -0.5000000), wk =   0.0069444
        k(   80) = (   0.3333333  -0.5000000  -0.5000000), wk =   0.0034722
        k(   81) = (   0.4166667   0.4166667   0.4166667), wk =   0.0046296
        k(   82) = (   0.4166667   0.4166667  -0.5000000), wk =   0.0069444
        k(   83) = (   0.4166667  -0.5000000  -0.5000000), wk =   0.0034722
        k(   84) = (  -0.5000000  -0.5000000  -0.5000000), wk =   0.0005787
        k(   85) = (   0.0000000   0.1666667   0.0833333), wk =   0.0069444
        k(   86) = (   0.0000000   0.2500000   0.0833333), wk =   0.0069444
        k(   87) = (   0.0000000   0.3333333   0.0833333), wk =   0.0069444
        k(   88) = (   0.0000000   0.4166667   0.0833333), wk =   0.0069444
        k(   89) = (   0.0000000  -0.5000000   0.0833333), wk =   0.0034722
        k(   90) = (   0.0000000   0.2500000   0.1666667), wk =   0.0069444
        k(   91) = (   0.0000000   0.3333333   0.1666667), wk =   0.0069444
        k(   92) = (   0.0000000   0.4166667   0.1666667), wk =   0.0069444
        k(   93) = (   0.0000000  -0.5000000   0.1666667), wk =   0.0034722
        k(   94) = (   0.0000000   0.3333333   0.2500000), wk =   0.0069444
        k(   95) = (   0.0000000   0.4166667   0.2500000), wk =   0.0069444
        k(   96) = (   0.0000000  -0.5000000   0.2500000), wk =   0.0034722
        k(   97) = (   0.0000000   0.4166667   0.3333333), wk =   0.0069444
        k(   98) = (   0.0000000  -0.5000000   0.3333333), wk =   0.0034722
        k(   99) = (   0.0000000  -0.5000000   0.4166667), wk =   0.0034722
        k(  100) = (  -0.0833333   0.2500000   0.1666667), wk =   0.0138889
        k(  101) = (  -0.0833333   0.3333333   0.1666667), wk =   0.0138889
        k(  102) = (  -0.0833333   0.4166667   0.1666667), wk =   0.0138889
        k(  103) = (  -0.0833333  -0.5000000   0.1666667), wk =   0.0069444
        k(  104) = (  -0.0833333   0.3333333   0.2500000), wk =   0.0138889
        k(  105) = (  -0.0833333   0.4166667   0.2500000), wk =   0.0138889
        k(  106) = (  -0.0833333  -0.5000000   0.2500000), wk =   0.0069444
        k(  107) = (  -0.0833333   0.4166667   0.3333333), wk =   0.0138889
        k(  108) = (  -0.0833333  -0.5000000   0.3333333), wk =   0.0069444
        k(  109) = (  -0.0833333  -0.5000000   0.4166667), wk =   0.0069444
        k(  110) = (  -0.1666667   0.3333333   0.2500000), wk =   0.0138889
        k(  111) = (  -0.1666667   0.4166667   0.2500000), wk =   0.0138889
        k(  112) = (  -0.1666667  -0.5000000   0.2500000), wk =   0.0069444
        k(  113) = (  -0.1666667   0.4166667   0.3333333), wk =   0.0138889
        k(  114) = (  -0.1666667  -0.5000000   0.3333333), wk =   0.0069444
        k(  115) = (  -0.1666667  -0.5000000   0.4166667), wk =   0.0069444
        k(  116) = (  -0.2500000   0.4166667   0.3333333), wk =   0.0138889
        k(  117) = (  -0.2500000  -0.5000000   0.3333333), wk =   0.0069444
        k(  118) = (  -0.2500000  -0.5000000   0.4166667), wk =   0.0069444
        k(  119) = (  -0.3333333  -0.5000000   0.4166667), wk =   0.0069444

                       cryst. coord.
        k(    1) = (   0.0000000   0.0000000   0.0000000), wk =   0.0005787
        k(    2) = (   0.0000000   0.0000000   0.0833333), wk =   0.0034722
        k(    3) = (   0.0000000   0.0000000   0.1666667), wk =   0.0034722
        k(    4) = (   0.0000000   0.0000000   0.2500000), wk =   0.0034722
        k(    5) = (   0.0000000   0.0000000   0.3333333), wk =   0.0034722
        k(    6) = (   0.0000000   0.0000000   0.4166667), wk =   0.0034722
        k(    7) = (   0.0000000   0.0000000  -0.5000000), wk =   0.0017361
        k(    8) = (   0.0000000   0.0833333   0.0833333), wk =   0.0069444
        k(    9) = (   0.0000000   0.0833333   0.1666667), wk =   0.0069444
        k(   10) = (   0.0000000   0.0833333   0.2500000), wk =   0.0069444
        k(   11) = (   0.0000000   0.0833333   0.3333333), wk =   0.0069444
        k(   12) = (   0.0000000   0.0833333   0.4166667), wk =   0.0069444
        k(   13) = (   0.0000000   0.0833333  -0.5000000), wk =   0.0034722
        k(   14) = (   0.0000000   0.1666667   0.1666667), wk =   0.0069444
        k(   15) = (   0.0000000   0.1666667   0.2500000), wk =   0.0069444
        k(   16) = (   0.0000000   0.1666667   0.3333333), wk =   0.0069444
        k(   17) = (   0.0000000   0.1666667   0.4166667), wk =   0.0069444
        k(   18) = (   0.0000000   0.1666667  -0.5000000), wk =   0.0034722
        k(   19) = (   0.0000000   0.2500000   0.2500000), wk =   0.0069444
        k(   20) = (   0.0000000   0.2500000   0.3333333), wk =   0.0069444
        k(   21) = (   0.0000000   0.2500000   0.4166667), wk =   0.0069444
        k(   22) = (   0.0000000   0.2500000  -0.5000000), wk =   0.0034722
        k(   23) = (   0.0000000   0.3333333   0.3333333), wk =   0.0069444
        k(   24) = (   0.0000000   0.3333333   0.4166667), wk =   0.0069444
        k(   25) = (   0.0000000   0.3333333  -0.5000000), wk =   0.0034722
        k(   26) = (   0.0000000   0.4166667   0.4166667), wk =   0.0069444
        k(   27) = (   0.0000000   0.4166667  -0.5000000), wk =   0.0034722
        k(   28) = (   0.0000000  -0.5000000  -0.5000000), wk =   0.0017361
        k(   29) = (   0.0833333   0.0833333   0.0833333), wk =   0.0046296
        k(   30) = (   0.0833333   0.0833333   0.1666667), wk =   0.0138889
        k(   31) = (   0.0833333   0.0833333   0.2500000), wk =   0.0138889
        k(   32) = (   0.0833333   0.0833333   0.3333333), wk =   0.0138889
        k(   33) = (   0.0833333   0.0833333   0.4166667), wk =   0.0138889
        k(   34) = (   0.0833333   0.0833333  -0.5000000), wk =   0.0069444
        k(   35) = (   0.0833333   0.1666667   0.1666667), wk =   0.0138889
        k(   36) = (   0.0833333   0.1666667   0.2500000), wk =   0.0138889
        k(   37) = (   0.0833333   0.1666667   0.3333333), wk =   0.0138889
        k(   38) = (   0.0833333   0.1666667   0.4166667), wk =   0.0138889
        k(   39) = (   0.0833333   0.1666667  -0.5000000), wk =   0.0069444
        k(   40) = (   0.0833333   0.2500000   0.2500000), wk =   0.0138889
        k(   41) = (   0.0833333   0.2500000   0.3333333), wk =   0.0138889
        k(   42) = (   0.0833333   0.2500000   0.4166667), wk =   0.0138889
        k(   43) = (   0.0833333   0.2500000  -0.5000000), wk =   0.0069444
        k(   44) = (   0.0833333   0.3333333   0.3333333), wk =   0.0138889
        k(   45) = (   0.0833333   0.3333333   0.4166667), wk =   0.0138889
        k(   46) = (   0.0833333   0.3333333  -0.5000000), wk =   0.0069444
        k(   47) = (   0.0833333   0.4166667   0.4166667), wk =   0.0138889
        k(   48) = (   0.0833333   0.4166667  -0.5000000), wk =   0.0069444
        k(   49) = (   0.0833333  -0.5000000  -0.5000000), wk =   0.0034722
        k(   50) = (   0.1666667   0.1666667   0.1666667), wk =   0.0046296
        k(   51) = (   0.1666667   0.1666667   0.2500000), wk =   0.0138889
        k(   52) = (   0.1666667   0.1666667   0.3333333), wk =   0.0138889
        k(   53) = (   0.1666667   0.1666667   0.4166667), wk =   0.0138889
        k(   54) = (   0.1666667   0.1666667  -0.5000000), wk =   0.0069444
        k(   55) = (   0.1666667   0.2500000   0.2500000), wk =   0.0138889
        k(   56) = (   0.1666667   0.2500000   0.3333333), wk =   0.0138889
        k(   57) = (   0.1666667   0.2500000   0.4166667), wk =   0.0138889
        k(   58) = (   0.1666667   0.2500000  -0.5000000), wk =   0.0069444
        k(   59) = (   0.1666667   0.3333333   0.3333333), wk =   0.0138889
        k(   60) = (   0.1666667   0.3333333   0.4166667), wk =   0.0138889
        k(   61) = (   0.1666667   0.3333333  -0.5000000), wk =   0.0069444
        k(   62) = (   0.1666667   0.4166667   0.4166667), wk =   0.0138889
        k(   63) = (   0.1666667   0.4166667  -0.5000000), wk =   0.0069444
        k(   64) = (   0.1666667  -0.5000000  -0.5000000), wk =   0.0034722
        k(   65) = (   0.2500000   0.2500000   0.2500000), wk =   0.0046296
        k(   66) = (   0.2500000   0.2500000   0.3333333), wk =   0.0138889
        k(   67) = (   0.2500000   0.2500000   0.4166667), wk =   0.0138889
        k(   68) = (   0.2500000   0.2500000  -0.5000000), wk =   0.0069444
        k(   69) = (   0.2500000   0.3333333   0.3333333), wk =   0.0138889
        k(   70) = (   0.2500000   0.3333333   0.4166667), wk =   0.0138889
        k(   71) = (   0.2500000   0.3333333  -0.5000000), wk =   0.0069444
        k(   72) = (   0.2500000   0.4166667   0.4166667), wk =   0.0138889
        k(   73) = (   0.2500000   0.4166667  -0.5000000), wk =   0.0069444
        k(   74) = (   0.2500000  -0.5000000  -0.5000000), wk =   0.0034722
        k(   75) = (   0.3333333   0.3333333   0.3333333), wk =   0.0046296
        k(   76) = (   0.3333333   0.3333333   0.4166667), wk =   0.0138889
        k(   77) = (   0.3333333   0.3333333  -0.5000000), wk =   0.0069444
        k(   78) = (   0.3333333   0.4166667   0.4166667), wk =   0.0138889
        k(   79) = (   0.3333333   0.4166667  -0.5000000), wk =   0.0069444
        k(   80) = (   0.3333333  -0.5000000  -0.5000000), wk =   0.0034722
        k(   81) = (   0.4166667   0.4166667   0.4166667), wk =   0.0046296
        k(   82) = (   0.4166667   0.4166667  -0.5000000), wk =   0.0069444
        k(   83) = (   0.4166667  -0.5000000  -0.5000000), wk =   0.0034722
        k(   84) = (  -0.5000000  -0.5000000  -0.5000000), wk =   0.0005787
        k(   85) = (   0.0000000   0.1666667   0.0833333), wk =   0.0069444
        k(   86) = (   0.0000000   0.2500000   0.0833333), wk =   0.0069444
        k(   87) = (   0.0000000   0.3333333   0.0833333), wk =   0.0069444
        k(   88) = (   0.0000000   0.4166667   0.0833333), wk =   0.0069444
        k(   89) = (   0.0000000  -0.5000000   0.0833333), wk =   0.0034722
        k(   90) = (   0.0000000   0.2500000   0.1666667), wk =   0.0069444
        k(   91) = (   0.0000000   0.3333333   0.1666667), wk =   0.0069444
        k(   92) = (   0.0000000   0.4166667   0.1666667), wk =   0.0069444
        k(   93) = (   0.0000000  -0.5000000   0.1666667), wk =   0.0034722
        k(   94) = (   0.0000000   0.3333333   0.2500000), wk =   0.0069444
        k(   95) = (   0.0000000   0.4166667   0.2500000), wk =   0.0069444
        k(   96) = (   0.0000000  -0.5000000   0.2500000), wk =   0.0034722
        k(   97) = (   0.0000000   0.4166667   0.3333333), wk =   0.0069444
        k(   98) = (   0.0000000  -0.5000000   0.3333333), wk =   0.0034722
        k(   99) = (   0.0000000  -0.5000000   0.4166667), wk =   0.0034722
        k(  100) = (  -0.0833333   0.2500000   0.1666667), wk =   0.0138889
        k(  101) = (  -0.0833333   0.3333333   0.1666667), wk =   0.0138889
        k(  102) = (  -0.0833333   0.4166667   0.1666667), wk =   0.0138889
        k(  103) = (  -0.0833333  -0.5000000   0.1666667), wk =   0.0069444
        k(  104) = (  -0.0833333   0.3333333   0.2500000), wk =   0.0138889
        k(  105) = (  -0.0833333   0.4166667   0.2500000), wk =   0.0138889
        k(  106) = (  -0.0833333  -0.5000000   0.2500000), wk =   0.0069444
        k(  107) = (  -0.0833333   0.4166667   0.3333333), wk =   0.0138889
        k(  108) = (  -0.0833333  -0.5000000   0.3333333), wk =   0.0069444
        k(  109) = (  -0.0833333  -0.5000000   0.4166667), wk =   0.0069444
        k(  110) = (  -0.1666667   0.3333333   0.2500000), wk =   0.0138889
        k(  111) = (  -0.1666667   0.4166667   0.2500000), wk =   0.0138889
        k(  112) = (  -0.1666667  -0.5000000   0.2500000), wk =   0.0069444
        k(  113) = (  -0.1666667   0.4166667   0.3333333), wk =   0.0138889
        k(  114) = (  -0.1666667  -0.5000000   0.3333333), wk =   0.0069444
        k(  115) = (  -0.1666667  -0.5000000   0.4166667), wk =   0.0069444
        k(  116) = (  -0.2500000   0.4166667   0.3333333), wk =   0.0138889
        k(  117) = (  -0.2500000  -0.5000000   0.3333333), wk =   0.0069444
        k(  118) = (  -0.2500000  -0.5000000   0.4166667), wk =   0.0069444
        k(  119) = (  -0.3333333  -0.5000000   0.4166667), wk =   0.0069444

     Dense  grid:   304867 G-vectors     FFT dimensions: (  90,  90,  90)

     Smooth grid:    77053 G-vectors     FFT dimensions: (  54,  54,  54)

     Dynamical RAM for                 wfc:       1.06 MB

     Dynamical RAM for     wfc (w. buffer):     126.61 MB

     Dynamical RAM for           str. fact:       0.39 MB

     Dynamical RAM for           local pot:       0.00 MB

     Dynamical RAM for          nlocal pot:       1.67 MB

     Dynamical RAM for                qrad:      12.61 MB

     Dynamical RAM for          rho,v,vnew:       5.29 MB

     Dynamical RAM for               rhoin:       1.76 MB

     Dynamical RAM for            rho*nmix:      12.41 MB

     Dynamical RAM for           G-vectors:       0.75 MB

     Dynamical RAM for          h,s,v(r/c):       1.35 MB

     Dynamical RAM for          <psi|beta>:       0.71 MB

     Dynamical RAM for                 psi:       2.11 MB

     Dynamical RAM for                hpsi:       2.11 MB

     Dynamical RAM for                spsi:       2.11 MB

     Dynamical RAM for      wfcinit/wfcrot:       2.35 MB

     Dynamical RAM for           addusdens:     119.02 MB

     Dynamical RAM for          addusforce:     120.34 MB

     Dynamical RAM for         addusstress:     121.74 MB

     Estimated static dynamical RAM per process >     164.04 MB

     Estimated max dynamical RAM per process >     285.78 MB

     Estimated total dynamical RAM >       6.70 GB

     Initial potential from superposition of free atoms

     starting charge   71.99469, renormalised to   72.00000
     Starting wfcs are  112 randomized atomic wfcs
     Checking if some PAW data can be deallocated... 
       PAW data deallocated on   12 nodes for type:  1
       PAW data deallocated on   12 nodes for type:  2

     total cpu time spent up to now is       27.5 secs

     Self-consistent Calculation

     iteration #  1     ecut=    90.00 Ry     beta= 0.70
     Davidson diagonalization with overlap
     ethr =  1.00E-02,  avg # of iterations =  2.0

     Threshold (ethr) on eigenvalues was too large:
     Diagonalizing with lowered threshold

     Davidson diagonalization with overlap
     ethr =  2.09E-04,  avg # of iterations =  4.3

     total cpu time spent up to now is      179.7 secs

     total energy              =   -1180.30960976 Ry
     estimated scf accuracy    <       0.18937442 Ry

     iteration #  2     ecut=    90.00 Ry     beta= 0.70
     Davidson diagonalization with overlap
     ethr =  2.63E-04,  avg # of iterations =  3.2

     total cpu time spent up to now is      255.5 secs

     total energy              =   -1180.31435871 Ry
     estimated scf accuracy    <       0.08180389 Ry

     iteration #  3     ecut=    90.00 Ry     beta= 0.70
     Davidson diagonalization with overlap
     ethr =  1.14E-04,  avg # of iterations =  5.0

     total cpu time spent up to now is      349.3 secs

     total energy              =   -1180.32592466 Ry
     estimated scf accuracy    <       0.16246913 Ry

     iteration #  4     ecut=    90.00 Ry     beta= 0.70
     Davidson diagonalization with overlap
     ethr =  1.14E-04,  avg # of iterations =  4.1

     total cpu time spent up to now is      426.4 secs

     total energy              =   -1180.34973991 Ry
     estimated scf accuracy    <       0.00028966 Ry

     iteration #  5     ecut=    90.00 Ry     beta= 0.70
     Davidson diagonalization with overlap
     ethr =  4.02E-07,  avg # of iterations =  8.3

     total cpu time spent up to now is      546.6 secs

     total energy              =   -1180.35037186 Ry
     estimated scf accuracy    <       0.00035476 Ry

     iteration #  6     ecut=    90.00 Ry     beta= 0.70
     Davidson diagonalization with overlap
     ethr =  4.02E-07,  avg # of iterations =  3.1

     total cpu time spent up to now is      617.2 secs

     total energy              =   -1180.35042819 Ry
     estimated scf accuracy    <       0.00000277 Ry

     iteration #  7     ecut=    90.00 Ry     beta= 0.70
     Davidson diagonalization with overlap
     ethr =  3.85E-09,  avg # of iterations =  7.0

     total cpu time spent up to now is      726.7 secs

     total energy              =   -1180.35043051 Ry
     estimated scf accuracy    <       0.00002877 Ry

     iteration #  8     ecut=    90.00 Ry     beta= 0.70
     Davidson diagonalization with overlap
     ethr =  3.85E-09,  avg # of iterations =  5.1

     total cpu time spent up to now is      829.9 secs

     End of self-consistent calculation

          k = 0.0000 0.0000 0.0000 (  9771 PWs)   bands (ev):

   -56.5161 -56.5161 -56.4814 -56.4814 -56.4814 -56.4814 -56.4814 -56.4814
   -28.5818 -28.5818 -28.5740 -28.5740 -28.5740 -28.5740 -28.4847 -28.4847
   -27.6170 -27.6170 -27.6170 -27.6170 -27.5399 -27.5399 -27.5399 -27.5399
   -27.5326 -27.5326 -27.4509 -27.4509 -27.4509 -27.4509 -27.4499 -27.4499
     2.6988   2.6988   7.4570   7.4570   7.4570   7.4570   7.4662   7.4662
    10.5369  10.5369  10.5448  10.5448  10.5448  10.5448  11.9118  11.9118
    11.9118  11.9118  11.9229  11.9229  12.6029  12.6029  12.7720  12.7720
    12.7720  12.7720  13.1428  13.1428  13.1428  13.1428  13.1439  13.1439
    13.6709  13.6709  13.6709  13.6709  13.6748  13.6748  15.5512  15.5512
    15.5826  15.5826  15.5826  15.5826  15.7644  15.7644  15.7644  15.7644
    16.6655  16.6655  16.6958  16.6958  16.6958  16.6958

     occupation numbers 
     1.0000   1.0000   1.0000   1.0000   1.0000   1.0000   1.0000   1.0000
     1.0000   1.0000   1.0000   1.0000   1.0000   1.0000   1.0000   1.0000
     1.0000   1.0000   1.0000   1.0000   1.0000   1.0000   1.0000   1.0000
     1.0000   1.0000   1.0000   1.0000   1.0000   1.0000   1.0000   1.0000
     1.0000   1.0000   1.0000   1.0000   1.0000   1.0000   1.0000   1.0000
     1.0000   1.0000   1.0000   1.0000   1.0000   1.0000   1.0000   1.0000
     1.0000   1.0000   1.0000   1.0000   1.0000   1.0000   1.0000   1.0000
     1.0000   1.0000   1.0000   1.0000   1.0000   1.0000   1.0000   1.0000
     1.0000   1.0000   1.0000   1.0000   1.0000   1.0000  -0.0000  -0.0000
    -0.0000  -0.0000  -0.0000  -0.0000  -0.0000  -0.0000  -0.0000  -0.0000
    -0.0000  -0.0000  -0.0000  -0.0000  -0.0000  -0.0000

          k = 0.0000 0.0000 0.0833 (  9699 PWs)   bands (ev):

   -56.5156 -56.5156 -56.4839 -56.4839 -56.4812 -56.4812 -56.4794 -56.4794
   -28.5861 -28.5788 -28.5784 -28.5760 -28.5704 -28.5677 -28.4859 -28.4859
   -27.6263 -27.6217 -27.6110 -27.6064 -27.5456 -27.5439 -27.5384 -27.5360
   -27.5350 -27.5247 -27.4555 -27.4545 -27.4528 -27.4494 -27.4489 -27.4457
     2.7470   2.7470   7.0340   7.0381   7.4858   7.4867   7.8141   7.8221
    10.2170  10.2227  10.5746  10.5756  10.8834  10.8869  11.4924  11.4944
    11.7823  11.7852  12.3543  12.3683  12.5853  12.5880  12.7663  12.7741
    12.8424  12.8426  13.1199  13.1214  13.1608  13.1614  13.1850  13.1855
    13.5500  13.5553  13.6645  13.6653  13.8250  13.8259  15.4672  15.4898
    15.4954  15.4989  15.6791  15.6982  15.7446  15.7534  15.7568  15.7681
    16.5414  16.5604  16.6628  16.6644  16.8149  16.8350

     occupation numbers 
     1.0000   1.0000   1.0000   1.0000   1.0000   1.0000   1.0000   1.0000
     1.0000   1.0000   1.0000   1.0000   1.0000   1.0000   1.0000   1.0000
     1.0000   1.0000   1.0000   1.0000   1.0000   1.0000   1.0000   1.0000
     1.0000   1.0000   1.0000   1.0000   1.0000   1.0000   1.0000   1.0000
     1.0000   1.0000   1.0000   1.0000   1.0000   1.0000   1.0000   1.0000
     1.0000   1.0000   1.0000   1.0000   1.0000   1.0000   1.0000   1.0000
     1.0000   1.0000   1.0000   1.0000   1.0000   1.0000   1.0000   1.0000
     1.0000   1.0000   1.0000   1.0000   1.0000   1.0000   1.0000   1.0000
     1.0000   1.0000   1.0000   1.0000   1.0000   1.0000  -0.0000  -0.0000
    -0.0000  -0.0000  -0.0000  -0.0000  -0.0000  -0.0000  -0.0000  -0.0000
    -0.0000  -0.0000  -0.0000  -0.0000  -0.0000  -0.0000

          k = 0.0000 0.0000 0.1667 (  9663 PWs)   bands (ev):

   -56.5143 -56.5143 -56.4870 -56.4870 -56.4808 -56.4808 -56.4781 -56.4781
   -28.5895 -28.5822 -28.5783 -28.5777 -28.5635 -28.5602 -28.4897 -28.4896
   -27.6337 -27.6259 -27.6035 -27.5960 -27.5519 -27.5467 -27.5405 -27.5338
   -27.5314 -27.5156 -27.4614 -27.4592 -27.4559 -27.4493 -27.4481 -27.4425
     2.8908   2.8908   6.5402   6.5427   7.5632   7.5651   8.1197   8.1291
     9.9478   9.9520  10.6626  10.6651  11.0722  11.0750  11.2873  11.2881
    11.5006  11.5054  12.4493  12.4597  12.7395  12.7618  12.8028  12.8094
    13.0113  13.0147  13.1069  13.1094  13.1960  13.1980  13.2269  13.2273
    13.5311  13.5412  13.6318  13.6344  13.9629  13.9633  15.2934  15.3143
    15.4165  15.4241  15.6912  15.7007  15.7463  15.7647  15.7918  15.8174
    16.4071  16.4226  16.5954  16.6029  16.9908  17.0114

     occupation numbers 
     1.0000   1.0000   1.0000   1.0000   1.0000   1.0000   1.0000   1.0000
     1.0000   1.0000   1.0000   1.0000   1.0000   1.0000   1.0000   1.0000
     1.0000   1.0000   1.0000   1.0000   1.0000   1.0000   1.0000   1.0000
     1.0000   1.0000   1.0000   1.0000   1.0000   1.0000   1.0000   1.0000
     1.0000   1.0000   1.0000   1.0000   1.0000   1.0000   1.0000   1.0000
     1.0000   1.0000   1.0000   1.0000   1.0000   1.0000   1.0000   1.0000
     1.0000   1.0000   1.0000   1.0000   1.0000   1.0000   1.0000   1.0000
     1.0000   1.0000   1.0000   1.0000   1.0000   1.0000   1.0000   1.0000
     1.0000   1.0000   1.0000   1.0000   1.0000   1.0000  -0.0059  -0.0037
    -0.0002  -0.0002  -0.0000  -0.0000  -0.0000  -0.0000  -0.0000  -0.0000
    -0.0000  -0.0000  -0.0000  -0.0000  -0.0000  -0.0000

          k = 0.0000 0.0000 0.2500 (  9618 PWs)   bands (ev):

   -56.5122 -56.5122 -56.4905 -56.4905 -56.4802 -56.4802 -56.4773 -56.4773
   -28.5914 -28.5842 -28.5811 -28.5786 -28.5547 -28.5516 -28.4957 -28.4955
   -27.6388 -27.6299 -27.5945 -27.5871 -27.5582 -27.5473 -27.5377 -27.5349
   -27.5297 -27.5060 -27.4694 -27.4621 -27.4600 -27.4502 -27.4476 -27.4409
     3.1273   3.1273   5.9921   5.9935   7.6896   7.6926   8.3702   8.3803
     9.7439   9.7453  10.7560  10.7613  10.8662  10.8749  11.1953  11.2027
    11.5682  11.5689  12.2654  12.2803  12.8662  12.8728  12.9122  12.9340
    13.1198  13.1239  13.1286  13.1339  13.2506  13.2512  13.2816  13.2856
    13.5436  13.5469  13.6975  13.7051  14.0461  14.0466  15.0728  15.1014
    15.3796  15.3802  15.6156  15.6308  15.7380  15.7623  15.8511  15.8751
    16.2853  16.3000  16.4935  16.5050  17.1873  17.2078

     occupation numbers 
     1.0000   1.0000   1.0000   1.0000   1.0000   1.0000   1.0000   1.0000
     1.0000   1.0000   1.0000   1.0000   1.0000   1.0000   1.0000   1.0000
     1.0000   1.0000   1.0000   1.0000   1.0000   1.0000   1.0000   1.0000
     1.0000   1.0000   1.0000   1.0000   1.0000   1.0000   1.0000   1.0000
     1.0000   1.0000   1.0000   1.0000   1.0000   1.0000   1.0000   1.0000
     1.0000   1.0000   1.0000   1.0000   1.0000   1.0000   1.0000   1.0000
     1.0000   1.0000   1.0000   1.0000   1.0000   1.0000   1.0000   1.0000
     1.0000   1.0000   1.0000   1.0000   1.0000   1.0000   1.0000   1.0000
     1.0000   1.0000   1.0000   1.0000   1.0000   1.0000   0.0272  -0.0138
    -0.0007  -0.0007  -0.0000  -0.0000  -0.0000  -0.0000  -0.0000  -0.0000
    -0.0000  -0.0000  -0.0000  -0.0000  -0.0000  -0.0000

          k = 0.0000 0.0000 0.3333 (  9606 PWs)   bands (ev):

   -56.5094 -56.5094 -56.4943 -56.4943 -56.4794 -56.4794 -56.4771 -56.4771
   -28.5920 -28.5850 -28.5841 -28.5801 -28.5447 -28.5421 -28.5037 -28.5031
   -27.6415 -27.6339 -27.5848 -27.5802 -27.5641 -27.5455 -27.5402 -27.5304
   -27.5296 -27.4963 -27.4797 -27.4652 -27.4623 -27.4520 -27.4469 -27.4408
     3.4513   3.4513   5.4203   5.4211   7.8602   7.8643   8.5098   8.5195
     9.6515   9.6531  10.6593  10.6616  10.7718  10.7842  11.0445  11.0474
    11.8624  11.8644  12.1343  12.1500  12.8381  12.8542  12.9331  12.9426
    13.1134  13.1192  13.1687  13.1739  13.2579  13.2607  13.3936  13.3958
    13.4518  13.4540  13.9153  13.9192  14.1177  14.1245  14.8895  14.9236
    15.3571  15.3655  15.5343  15.5526  15.7426  15.7709  15.8539  15.8781
    16.1945  16.2104  16.3706  16.3842  17.3061  17.3221

     occupation numbers 
     1.0000   1.0000   1.0000   1.0000   1.0000   1.0000   1.0000   1.0000
     1.0000   1.0000   1.0000   1.0000   1.0000   1.0000   1.0000   1.0000
     1.0000   1.0000   1.0000   1.0000   1.0000   1.0000   1.0000   1.0000
     1.0000   1.0000   1.0000   1.0000   1.0000   1.0000   1.0000   1.0000
     1.0000   1.0000   1.0000   1.0000   1.0000   1.0000   1.0000   1.0000
     1.0000   1.0000   1.0000   1.0000   1.0000   1.0000   1.0000   1.0000
     1.0000   1.0000   1.0000   1.0000   1.0000   1.0000   1.0000   1.0000
     1.0000   1.0000   1.0000   1.0000   1.0000   1.0000   1.0000   1.0000
     1.0000   1.0000   1.0000   1.0000   1.0000   1.0000   0.7994   0.6450
    -0.0013  -0.0010  -0.0000  -0.0000  -0.0000  -0.0000  -0.0000  -0.0000
    -0.0000  -0.0000  -0.0000  -0.0000  -0.0000  -0.0000

          k = 0.0000 0.0000 0.4167 (  9666 PWs)   bands (ev):

   -56.5060 -56.5060 -56.4983 -56.4983 -56.4786 -56.4786 -56.4773 -56.4773
   -28.5913 -28.5870 -28.5847 -28.5820 -28.5341 -28.5321 -28.5131 -28.5121
   -27.6420 -27.6376 -27.5783 -27.5712 -27.5691 -27.5488 -27.5419 -27.5331
   -27.5180 -27.4917 -27.4872 -27.4715 -27.4605 -27.4546 -27.4455 -27.4418
     3.8553   3.8554   4.8571   4.8575   8.0650   8.0701   8.4634   8.4714
     9.7544   9.7580  10.3459  10.3483  10.7986  10.8118  11.0008  11.0066
    12.1356  12.1375  12.1477  12.1609  12.6963  12.7115  12.8881  12.8998
    13.0760  13.0804  13.1923  13.1947  13.2270  13.2309  13.2799  13.2833
    13.6255  13.6271  13.9007  13.9048  14.3433  14.3624  14.7372  14.7714
    15.3635  15.3778  15.4597  15.4789  15.7677  15.7977  15.8352  15.8620
    16.1481  16.1633  16.2499  16.2638  17.4012  17.4064

     occupation numbers 
     1.0000   1.0000   1.0000   1.0000   1.0000   1.0000   1.0000   1.0000
     1.0000   1.0000   1.0000   1.0000   1.0000   1.0000   1.0000   1.0000
     1.0000   1.0000   1.0000   1.0000   1.0000   1.0000   1.0000   1.0000
     1.0000   1.0000   1.0000   1.0000   1.0000   1.0000   1.0000   1.0000
     1.0000   1.0000   1.0000   1.0000   1.0000   1.0000   1.0000   1.0000
     1.0000   1.0000   1.0000   1.0000   1.0000   1.0000   1.0000   1.0000
     1.0000   1.0000   1.0000   1.0000   1.0000   1.0000   1.0000   1.0000
     1.0000   1.0000   1.0000   1.0000   1.0000   1.0000   1.0000   1.0000
     1.0000   1.0000   1.0000   1.0000   1.0000   1.0000   1.0343   1.0330
    -0.0011  -0.0007  -0.0001  -0.0000  -0.0000  -0.0000  -0.0000  -0.0000
    -0.0000  -0.0000  -0.0000  -0.0000  -0.0000  -0.0000

          k = 0.0000 0.0000-0.5000 (  9658 PWs)   bands (ev):

   -56.5022 -56.5022 -56.5022 -56.5022 -56.4778 -56.4778 -56.4778 -56.4778
   -28.5896 -28.5896 -28.5836 -28.5836 -28.5234 -28.5234 -28.5219 -28.5219
   -27.6405 -27.6405 -27.5739 -27.5739 -27.5596 -27.5596 -27.5373 -27.5373
   -27.5048 -27.5048 -27.4788 -27.4788 -27.4576 -27.4576 -27.4436 -27.4436
     4.3288   4.3288   4.3290   4.3290   8.2826   8.2826   8.2890   8.2890
    10.0171  10.0171  10.0212  10.0212  10.8981  10.8981  10.9093  10.9093
    12.2472  12.2472  12.2538  12.2538  12.6848  12.6848  12.6972  12.6972
    13.1416  13.1416  13.1420  13.1420  13.2364  13.2364  13.2401  13.2401
    13.7824  13.7824  13.7856  13.7856  14.5654  14.5654  14.5940  14.5940
    15.4002  15.4002  15.4180  15.4180  15.8051  15.8051  15.8348  15.8348
    16.1656  16.1656  16.1793  16.1793  17.5421  17.5431

     occupation numbers 
     1.0000   1.0000   1.0000   1.0000   1.0000   1.0000   1.0000   1.0000
     1.0000   1.0000   1.0000   1.0000   1.0000   1.0000   1.0000   1.0000
     1.0000   1.0000   1.0000   1.0000   1.0000   1.0000   1.0000   1.0000
     1.0000   1.0000   1.0000   1.0000   1.0000   1.0000   1.0000   1.0000
     1.0000   1.0000   1.0000   1.0000   1.0000   1.0000   1.0000   1.0000
     1.0000   1.0000   1.0000   1.0000   1.0000   1.0000   1.0000   1.0000
     1.0000   1.0000   1.0000   1.0000   1.0000   1.0000   1.0000   1.0000
     1.0000   1.0000   1.0000   1.0000   1.0000   1.0000   1.0000   1.0000
     1.0000   1.0000   1.0000   1.0000   1.0020   1.0020   1.0041   1.0041
    -0.0004  -0.0004  -0.0002  -0.0002  -0.0000  -0.0000  -0.0000  -0.0000
    -0.0000  -0.0000  -0.0000  -0.0000  -0.0000  -0.0000

          k = 0.0000 0.0833 0.0833 (  9665 PWs)   bands (ev):

   -56.5152 -56.5152 -56.4849 -56.4849 -56.4814 -56.4814 -56.4787 -56.4787
   -28.5877 -28.5810 -28.5773 -28.5754 -28.5688 -28.5651 -28.4872 -28.4872
   -27.6282 -27.6253 -27.6063 -27.6032 -27.5483 -27.5439 -27.5403 -27.5386
   -27.5306 -27.5208 -27.4579 -27.4576 -27.4539 -27.4495 -27.4474 -27.4441
     2.7951   2.7951   6.9087   6.9140   7.3950   7.3980   7.9862   7.9924
    10.1065  10.1121  10.6054  10.6085  10.9967  11.0019  11.2458  11.2473
    11.8533  11.8546  12.3855  12.4014  12.6046  12.6092  12.8118  12.8209
    12.8787  12.8837  13.1320  13.1345  13.1580  13.1614  13.2139  13.2161
    13.5043  13.5089  13.6656  13.6730  13.8922  13.8952  15.4185  15.4289
    15.4853  15.4871  15.6656  15.6789  15.7439  15.7518  15.7645  15.7756
    16.4764  16.4954  16.6696  16.6739  16.8508  16.8757

     occupation numbers 
     1.0000   1.0000   1.0000   1.0000   1.0000   1.0000   1.0000   1.0000
     1.0000   1.0000   1.0000   1.0000   1.0000   1.0000   1.0000   1.0000
     1.0000   1.0000   1.0000   1.0000   1.0000   1.0000   1.0000   1.0000
     1.0000   1.0000   1.0000   1.0000   1.0000   1.0000   1.0000   1.0000
     1.0000   1.0000   1.0000   1.0000   1.0000   1.0000   1.0000   1.0000
     1.0000   1.0000   1.0000   1.0000   1.0000   1.0000   1.0000   1.0000
     1.0000   1.0000   1.0000   1.0000   1.0000   1.0000   1.0000   1.0000
     1.0000   1.0000   1.0000   1.0000   1.0000   1.0000   1.0000   1.0000
     1.0000   1.0000   1.0000   1.0000   1.0000   1.0000  -0.0002  -0.0001
    -0.0000  -0.0000  -0.0000  -0.0000  -0.0000  -0.0000  -0.0000  -0.0000
    -0.0000  -0.0000  -0.0000  -0.0000  -0.0000  -0.0000

          k = 0.0000 0.0833 0.1667 (  9653 PWs)   bands (ev):

   -56.5139 -56.5139 -56.4874 -56.4874 -56.4811 -56.4811 -56.4777 -56.4777
   -28.5901 -28.5835 -28.5770 -28.5768 -28.5629 -28.5592 -28.4909 -28.4908
   -27.6337 -27.6278 -27.6004 -27.5946 -27.5524 -27.5472 -27.5419 -27.5375
   -27.5272 -27.5129 -27.4643 -27.4615 -27.4559 -27.4507 -27.4458 -27.4413
     2.9385   2.9385   6.5238   6.5274   7.4125   7.4149   8.2330   8.2395
     9.9137   9.9180  10.6959  10.6970  10.8383  10.8411  11.3144  11.3163
    11.6692  11.6733  12.4473  12.4525  12.6188  12.6252  12.9295  12.9370
    13.0459  13.0519  13.1326  13.1330  13.1823  13.1848  13.2618  13.2643
    13.4811  13.4860  13.6756  13.6863  13.9990  14.0044  15.2960  15.3171
    15.3782  15.3925  15.6421  15.6563  15.7229  15.7367  15.8072  15.8288
    16.3626  16.3805  16.6147  16.6244  16.9879  17.0148

     occupation numbers 
     1.0000   1.0000   1.0000   1.0000   1.0000   1.0000   1.0000   1.0000
     1.0000   1.0000   1.0000   1.0000   1.0000   1.0000   1.0000   1.0000
     1.0000   1.0000   1.0000   1.0000   1.0000   1.0000   1.0000   1.0000
     1.0000   1.0000   1.0000   1.0000   1.0000   1.0000   1.0000   1.0000
     1.0000   1.0000   1.0000   1.0000   1.0000   1.0000   1.0000   1.0000
     1.0000   1.0000   1.0000   1.0000   1.0000   1.0000   1.0000   1.0000
     1.0000   1.0000   1.0000   1.0000   1.0000   1.0000   1.0000   1.0000
     1.0000   1.0000   1.0000   1.0000   1.0000   1.0000   1.0000   1.0000
     1.0000   1.0000   1.0000   1.0000   1.0000   1.0000  -0.0056  -0.0035
    -0.0007  -0.0005  -0.0000  -0.0000  -0.0000  -0.0000  -0.0000  -0.0000
    -0.0000  -0.0000  -0.0000  -0.0000  -0.0000  -0.0000

          k = 0.0000 0.0833 0.2500 (  9646 PWs)   bands (ev):

   -56.5118 -56.5118 -56.4907 -56.4907 -56.4805 -56.4805 -56.4772 -56.4772
   -28.5916 -28.5851 -28.5795 -28.5777 -28.5545 -28.5513 -28.4968 -28.4966
   -27.6382 -27.6305 -27.5927 -27.5863 -27.5580 -27.5481 -27.5399 -27.5374
   -27.5263 -27.5038 -27.4727 -27.4645 -27.4589 -27.4528 -27.4446 -27.4395
     3.1741   3.1742   6.0097   6.0117   7.5332   7.5349   8.4345   8.4415
     9.7448   9.7462  10.5619  10.5654  10.8458  10.8485  11.3941  11.4023
    11.5684  11.5702  12.2883  12.3011  12.7222  12.7237  13.0168  13.0311
    13.0878  13.0915  13.1759  13.1819  13.2487  13.2493  13.3326  13.3355
    13.5253  13.5307  13.7536  13.7667  14.0709  14.0762  15.0807  15.1086
    15.3416  15.3519  15.5647  15.5803  15.7108  15.7326  15.8492  15.8735
    16.2532  16.2688  16.5135  16.5261  17.1635  17.1913

     occupation numbers 
     1.0000   1.0000   1.0000   1.0000   1.0000   1.0000   1.0000   1.0000
     1.0000   1.0000   1.0000   1.0000   1.0000   1.0000   1.0000   1.0000
     1.0000   1.0000   1.0000   1.0000   1.0000   1.0000   1.0000   1.0000
     1.0000   1.0000   1.0000   1.0000   1.0000   1.0000   1.0000   1.0000
     1.0000   1.0000   1.0000   1.0000   1.0000   1.0000   1.0000   1.0000
     1.0000   1.0000   1.0000   1.0000   1.0000   1.0000   1.0000   1.0000
     1.0000   1.0000   1.0000   1.0000   1.0000   1.0000   1.0000   1.0000
     1.0000   1.0000   1.0000   1.0000   1.0000   1.0000   1.0000   1.0000
     1.0000   1.0000   1.0000   1.0000   1.0000   1.0000   0.0132  -0.0203
    -0.0019  -0.0014  -0.0000  -0.0000  -0.0000  -0.0000  -0.0000  -0.0000
    -0.0000  -0.0000  -0.0000  -0.0000  -0.0000  -0.0000

          k = 0.0000 0.0833 0.3333 (  9649 PWs)   bands (ev):

   -56.5090 -56.5090 -56.4943 -56.4943 -56.4797 -56.4797 -56.4771 -56.4771
   -28.5918 -28.5857 -28.5824 -28.5794 -28.5449 -28.5423 -28.5047 -28.5042
   -27.6406 -27.6336 -27.5842 -27.5794 -27.5638 -27.5466 -27.5420 -27.5320
   -27.5274 -27.4947 -27.4827 -27.4664 -27.4621 -27.4551 -27.4436 -27.4390
     3.4970   3.4971   5.4516   5.4527   7.7141   7.7163   8.5120   8.5184
     9.6729   9.6750  10.3914  10.3957  10.9572  10.9601  11.1470  11.1595
    11.8086  11.8123  12.1755  12.1889  12.7436  12.7481  12.9867  12.9935
    13.0253  13.0301  13.2294  13.2343  13.2969  13.2985  13.4269  13.4322
    13.4956  13.5060  13.9328  13.9410  14.1519  14.1601  14.8955  14.9289
    15.3226  15.3349  15.4785  15.4942  15.7125  15.7383  15.8530  15.8787
    16.1740  16.1868  16.3937  16.4074  17.2781  17.3014

     occupation numbers 
     1.0000   1.0000   1.0000   1.0000   1.0000   1.0000   1.0000   1.0000
     1.0000   1.0000   1.0000   1.0000   1.0000   1.0000   1.0000   1.0000
     1.0000   1.0000   1.0000   1.0000   1.0000   1.0000   1.0000   1.0000
     1.0000   1.0000   1.0000   1.0000   1.0000   1.0000   1.0000   1.0000
     1.0000   1.0000   1.0000   1.0000   1.0000   1.0000   1.0000   1.0000
     1.0000   1.0000   1.0000   1.0000   1.0000   1.0000   1.0000   1.0000
     1.0000   1.0000   1.0000   1.0000   1.0000   1.0000   1.0000   1.0000
     1.0000   1.0000   1.0000   1.0000   1.0000   1.0000   1.0000   1.0000
     1.0000   1.0000   1.0000   1.0000   1.0000   1.0000   0.7745   0.6186
    -0.0030  -0.0023  -0.0000  -0.0000  -0.0000  -0.0000  -0.0000  -0.0000
    -0.0000  -0.0000  -0.0000  -0.0000  -0.0000  -0.0000

          k = 0.0000 0.0833 0.4167 (  9647 PWs)   bands (ev):

   -56.5057 -56.5057 -56.4982 -56.4982 -56.4788 -56.4788 -56.4774 -56.4774
   -28.5909 -28.5867 -28.5839 -28.5813 -28.5346 -28.5326 -28.5139 -28.5130
   -27.6409 -27.6368 -27.5781 -27.5705 -27.5691 -27.5504 -27.5418 -27.5325
   -27.5197 -27.4949 -27.4853 -27.4708 -27.4622 -27.4576 -27.4424 -27.4396
     3.8993   3.8995   4.8950   4.8956   7.9379   7.9408   8.4044   8.4095
     9.7773   9.7809  10.2245  10.2284  10.9622  10.9679  11.0304  11.0357
    12.0231  12.0292  12.2038  12.2112  12.6464  12.6511  12.8362  12.8438
    13.0724  13.0763  13.2590  13.2620  13.2902  13.2931  13.3199  13.3225
    13.6489  13.6521  13.9193  13.9239  14.3700  14.3908  14.7446  14.7786
    15.3260  15.3411  15.4057  15.4215  15.7392  15.7665  15.8299  15.8577
    16.1456  16.1553  16.2751  16.2877  17.3825  17.3964

     occupation numbers 
     1.0000   1.0000   1.0000   1.0000   1.0000   1.0000   1.0000   1.0000
     1.0000   1.0000   1.0000   1.0000   1.0000   1.0000   1.0000   1.0000
     1.0000   1.0000   1.0000   1.0000   1.0000   1.0000   1.0000   1.0000
     1.0000   1.0000   1.0000   1.0000   1.0000   1.0000   1.0000   1.0000
     1.0000   1.0000   1.0000   1.0000   1.0000   1.0000   1.0000   1.0000
     1.0000   1.0000   1.0000   1.0000   1.0000   1.0000   1.0000   1.0000
     1.0000   1.0000   1.0000   1.0000   1.0000   1.0000   1.0000   1.0000
     1.0000   1.0000   1.0000   1.0000   1.0000   1.0000   1.0000   1.0000
     1.0000   1.0000   1.0000   1.0000   1.0000   1.0000   1.0352   1.0305
    -0.0028  -0.0019  -0.0003  -0.0002  -0.0000  -0.0000  -0.0000  -0.0000
    -0.0000  -0.0000  -0.0000  -0.0000  -0.0000  -0.0000

          k = 0.0000 0.0833-0.5000 (  9688 PWs)   bands (ev):

   -56.5020 -56.5020 -56.5020 -56.5020 -56.4780 -56.4780 -56.4780 -56.4780
   -28.5890 -28.5890 -28.5830 -28.5830 -28.5243 -28.5243 -28.5224 -28.5224
   -27.6394 -27.6394 -27.5737 -27.5737 -27.5601 -27.5601 -27.5371 -27.5371
   -27.5073 -27.5073 -27.4775 -27.4775 -27.4601 -27.4601 -27.4409 -27.4409
     4.3704   4.3704   4.3708   4.3708   8.1814   8.1814   8.1882   8.1882
     9.9985   9.9985  10.0029  10.0029  10.9695  10.9695  10.9828  10.9828
    12.1974  12.1974  12.2034  12.2034  12.6442  12.6442  12.6599  12.6599
    13.1819  13.1819  13.1862  13.1862  13.2824  13.2824  13.2844  13.2844
    13.8036  13.8036  13.8070  13.8070  14.5809  14.5809  14.6103  14.6103
    15.3538  15.3538  15.3706  15.3706  15.7855  15.7855  15.8152  15.8152
    16.1817  16.1817  16.1937  16.1937  17.5397  17.5445

     occupation numbers 
     1.0000   1.0000   1.0000   1.0000   1.0000   1.0000   1.0000   1.0000
     1.0000   1.0000   1.0000   1.0000   1.0000   1.0000   1.0000   1.0000
     1.0000   1.0000   1.0000   1.0000   1.0000   1.0000   1.0000   1.0000
     1.0000   1.0000   1.0000   1.0000   1.0000   1.0000   1.0000   1.0000
     1.0000   1.0000   1.0000   1.0000   1.0000   1.0000   1.0000   1.0000
     1.0000   1.0000   1.0000   1.0000   1.0000   1.0000   1.0000   1.0000
     1.0000   1.0000   1.0000   1.0000   1.0000   1.0000   1.0000   1.0000
     1.0000   1.0000   1.0000   1.0000   1.0000   1.0000   1.0000   1.0000
     1.0000   1.0000   1.0000   1.0000   1.0030   1.0030   1.0058   1.0058
    -0.0014  -0.0014  -0.0009  -0.0009  -0.0000  -0.0000  -0.0000  -0.0000
    -0.0000  -0.0000  -0.0000  -0.0000  -0.0000  -0.0000

          k = 0.0000 0.1667 0.1667 (  9657 PWs)   bands (ev):

   -56.5126 -56.5126 -56.4889 -56.4889 -56.4814 -56.4814 -56.4773 -56.4773
   -28.5912 -28.5851 -28.5760 -28.5759 -28.5598 -28.5558 -28.4945 -28.4943
   -27.6346 -27.6305 -27.5943 -27.5905 -27.5533 -27.5502 -27.5437 -27.5395
   -27.5234 -27.5065 -27.4702 -27.4664 -27.4587 -27.4505 -27.4433 -27.4389
     3.0804   3.0805   6.3976   6.4019   7.2079   7.2122   8.4068   8.4122
     9.8324   9.8357  10.5105  10.5130  10.7867  10.7879  11.3570  11.3599
    11.7802  11.7806  12.4120  12.4177  12.5879  12.5956  12.9946  12.9960
    13.0903  13.0985  13.1708  13.1716  13.2429  13.2495  13.3346  13.3397
    13.4666  13.4745  13.7319  13.7461  14.0750  14.0823  15.2512  15.2730
    15.3007  15.3200  15.5340  15.5461  15.6936  15.7146  15.8132  15.8378
    16.2771  16.2941  16.6069  16.6167  17.0330  17.0675

     occupation numbers 
     1.0000   1.0000   1.0000   1.0000   1.0000   1.0000   1.0000   1.0000
     1.0000   1.0000   1.0000   1.0000   1.0000   1.0000   1.0000   1.0000
     1.0000   1.0000   1.0000   1.0000   1.0000   1.0000   1.0000   1.0000
     1.0000   1.0000   1.0000   1.0000   1.0000   1.0000   1.0000   1.0000
     1.0000   1.0000   1.0000   1.0000   1.0000   1.0000   1.0000   1.0000
     1.0000   1.0000   1.0000   1.0000   1.0000   1.0000   1.0000   1.0000
     1.0000   1.0000   1.0000   1.0000   1.0000   1.0000   1.0000   1.0000
     1.0000   1.0000   1.0000   1.0000   1.0000   1.0000   1.0000   1.0000
     1.0000   1.0000   1.0000   1.0000   1.0000   1.0000  -0.0132  -0.0089
    -0.0050  -0.0032  -0.0000  -0.0000  -0.0000  -0.0000  -0.0000  -0.0000
    -0.0000  -0.0000  -0.0000  -0.0000  -0.0000  -0.0000

          k = 0.0000 0.1667 0.2500 (  9644 PWs)   bands (ev):

   -56.5106 -56.5106 -56.4913 -56.4913 -56.4811 -56.4811 -56.4771 -56.4771
   -28.5917 -28.5859 -28.5772 -28.5762 -28.5536 -28.5502 -28.5001 -28.5000
   -27.6366 -27.6315 -27.5884 -27.5842 -27.5574 -27.5513 -27.5429 -27.5395
   -27.5224 -27.4991 -27.4786 -27.4697 -27.4622 -27.4512 -27.4413 -27.4369
     3.3137   3.3138   6.0386   6.0417   7.2041   7.2078   8.5047   8.5090
     9.7418   9.7437  10.2898  10.2939  10.8765  10.8776  11.4818  11.4825
    11.6894  11.6905  12.3245  12.3300  12.5673  12.5728  12.9873  12.9946
    13.1248  13.1379  13.2045  13.2100  13.3291  13.3303  13.4421  13.4500
    13.5202  13.5277  13.8631  13.8786  14.1361  14.1436  15.0960  15.1213
    15.2382  15.2572  15.4368  15.4500  15.6643  15.6873  15.8196  15.8465
    16.1944  16.2084  16.5334  16.5450  17.1529  17.1917

     occupation numbers 
     1.0000   1.0000   1.0000   1.0000   1.0000   1.0000   1.0000   1.0000
     1.0000   1.0000   1.0000   1.0000   1.0000   1.0000   1.0000   1.0000
     1.0000   1.0000   1.0000   1.0000   1.0000   1.0000   1.0000   1.0000
     1.0000   1.0000   1.0000   1.0000   1.0000   1.0000   1.0000   1.0000
     1.0000   1.0000   1.0000   1.0000   1.0000   1.0000   1.0000   1.0000
     1.0000   1.0000   1.0000   1.0000   1.0000   1.0000   1.0000   1.0000
     1.0000   1.0000   1.0000   1.0000   1.0000   1.0000   1.0000   1.0000
     1.0000   1.0000   1.0000   1.0000   1.0000   1.0000   1.0000   1.0000
     1.0000   1.0000   1.0000   1.0000   1.0000   1.0000  -0.0081  -0.0285
    -0.0163  -0.0119  -0.0001  -0.0001  -0.0000  -0.0000  -0.0000  -0.0000
    -0.0000  -0.0000  -0.0000  -0.0000  -0.0000  -0.0000

          k = 0.0000 0.1667 0.3333 (  9647 PWs)   bands (ev):

   -56.5080 -56.5080 -56.4944 -56.4944 -56.4804 -56.4804 -56.4773 -56.4773
   -28.5911 -28.5857 -28.5797 -28.5775 -28.5453 -28.5426 -28.5076 -28.5072
   -27.6378 -27.6326 -27.5831 -27.5774 -27.5631 -27.5502 -27.5435 -27.5345
   -27.5246 -27.4929 -27.4877 -27.4721 -27.4642 -27.4533 -27.4396 -27.4359
     3.6329   3.6332   5.5380   5.5397   7.3631   7.3657   8.4326   8.4359
     9.7331   9.7363  10.1895  10.1938  10.9872  10.9903  11.3855  11.3951
    11.7520  11.7563  12.1887  12.1975  12.5942  12.6018  12.8754  12.8842
    13.1118  13.1212  13.2501  13.2559  13.3783  13.3795  13.5252  13.5352
    13.5892  13.6023  13.9882  13.9987  14.2437  14.2561  14.9092  14.9402
    15.2237  15.2424  15.3435  15.3535  15.6522  15.6772  15.8052  15.8356
    16.1512  16.1607  16.4391  16.4522  17.2360  17.2689

     occupation numbers 
     1.0000   1.0000   1.0000   1.0000   1.0000   1.0000   1.0000   1.0000
     1.0000   1.0000   1.0000   1.0000   1.0000   1.0000   1.0000   1.0000
     1.0000   1.0000   1.0000   1.0000   1.0000   1.0000   1.0000   1.0000
     1.0000   1.0000   1.0000   1.0000   1.0000   1.0000   1.0000   1.0000
     1.0000   1.0000   1.0000   1.0000   1.0000   1.0000   1.0000   1.0000
     1.0000   1.0000   1.0000   1.0000   1.0000   1.0000   1.0000   1.0000
     1.0000   1.0000   1.0000   1.0000   1.0000   1.0000   1.0000   1.0000
     1.0000   1.0000   1.0000   1.0000   1.0000   1.0000   1.0000   1.0000
     1.0000   1.0000   1.0000   1.0000   1.0000   1.0000   0.7141   0.5616
    -0.0201  -0.0153  -0.0018  -0.0014  -0.0000  -0.0000  -0.0000  -0.0000
    -0.0000  -0.0000  -0.0000  -0.0000  -0.0000  -0.0000

          k = 0.0000 0.1667 0.4167 (  9668 PWs)   bands (ev):

   -56.5049 -56.5049 -56.4979 -56.4979 -56.4795 -56.4795 -56.4778 -56.4778
   -28.5895 -28.5855 -28.5819 -28.5795 -28.5359 -28.5340 -28.5163 -28.5156
   -27.6376 -27.6343 -27.5787 -27.5715 -27.5666 -27.5531 -27.5416 -27.5312
   -27.5231 -27.5006 -27.4848 -27.4753 -27.4631 -27.4564 -27.4380 -27.4359
     4.0302   4.0305   5.0055   5.0065   7.6068   7.6090   8.1965   8.1990
     9.8543   9.8578  10.1271  10.1305  11.0543  11.0630  11.2131  11.2270
    11.9234  11.9284  12.1472  12.1529  12.5356  12.5450  12.7020  12.7126
    13.1760  13.1803  13.2852  13.2900  13.3739  13.3762  13.4817  13.4830
    13.7239  13.7280  13.9706  13.9768  14.4431  14.4681  14.7612  14.7941
    15.2227  15.2391  15.2757  15.2843  15.6687  15.6955  15.7662  15.7977
    16.1692  16.1752  16.3382  16.3508  17.3262  17.3475

     occupation numbers 
     1.0000   1.0000   1.0000   1.0000   1.0000   1.0000   1.0000   1.0000
     1.0000   1.0000   1.0000   1.0000   1.0000   1.0000   1.0000   1.0000
     1.0000   1.0000   1.0000   1.0000   1.0000   1.0000   1.0000   1.0000
     1.0000   1.0000   1.0000   1.0000   1.0000   1.0000   1.0000   1.0000
     1.0000   1.0000   1.0000   1.0000   1.0000   1.0000   1.0000   1.0000
     1.0000   1.0000   1.0000   1.0000   1.0000   1.0000   1.0000   1.0000
     1.0000   1.0000   1.0000   1.0000   1.0000   1.0000   1.0000   1.0000
     1.0000   1.0000   1.0000   1.0000   1.0000   1.0000   1.0000   1.0000
     1.0000   1.0000   1.0000   1.0000   1.0000   1.0001   1.0349   1.0215
    -0.0204  -0.0161  -0.0085  -0.0071  -0.0000  -0.0000  -0.0000  -0.0000
    -0.0000  -0.0000  -0.0000  -0.0000  -0.0000  -0.0000

          k = 0.0000 0.1667-0.5000 (  9654 PWs)   bands (ev):

   -56.5014 -56.5014 -56.5014 -56.5014 -56.4786 -56.4786 -56.4786 -56.4786
   -28.5872 -28.5872 -28.5814 -28.5814 -28.5267 -28.5267 -28.5241 -28.5241
   -27.6362 -27.6362 -27.5745 -27.5745 -27.5601 -27.5601 -27.5364 -27.5364
   -27.5122 -27.5122 -27.4796 -27.4796 -27.4600 -27.4600 -27.4368 -27.4368
     4.4935   4.4935   4.4942   4.4942   7.8951   7.8951   7.9020   7.9020
    10.0149  10.0149  10.0189  10.0189  11.1034  11.1034  11.1175  11.1175
    12.0898  12.0898  12.0944  12.0944  12.5394  12.5394  12.5551  12.5551
    13.2749  13.2749  13.2758  13.2758  13.3901  13.3901  13.3913  13.3913
    13.8664  13.8664  13.8704  13.8704  14.6205  14.6205  14.6519  14.6519
    15.2362  15.2362  15.2509  15.2509  15.7131  15.7131  15.7429  15.7429
    16.2392  16.2392  16.2499  16.2499  17.4850  17.4926

     occupation numbers 
     1.0000   1.0000   1.0000   1.0000   1.0000   1.0000   1.0000   1.0000
     1.0000   1.0000   1.0000   1.0000   1.0000   1.0000   1.0000   1.0000
     1.0000   1.0000   1.0000   1.0000   1.0000   1.0000   1.0000   1.0000
     1.0000   1.0000   1.0000   1.0000   1.0000   1.0000   1.0000   1.0000
     1.0000   1.0000   1.0000   1.0000   1.0000   1.0000   1.0000   1.0000
     1.0000   1.0000   1.0000   1.0000   1.0000   1.0000   1.0000   1.0000
     1.0000   1.0000   1.0000   1.0000   1.0000   1.0000   1.0000   1.0000
     1.0000   1.0000   1.0000   1.0000   1.0000   1.0000   1.0000   1.0000
     1.0000   1.0000   1.0000   1.0000   1.0072   1.0072   1.0130   1.0130
    -0.0168  -0.0168  -0.0133  -0.0133  -0.0000  -0.0000  -0.0000  -0.0000
    -0.0000  -0.0000  -0.0000  -0.0000  -0.0000  -0.0000

          k = 0.0000 0.2500 0.2500 (  9661 PWs)   bands (ev):

   -56.5088 -56.5088 -56.4927 -56.4927 -56.4814 -56.4814 -56.4772 -56.4772
   -28.5910 -28.5858 -28.5761 -28.5753 -28.5507 -28.5473 -28.5055 -28.5051
   -27.6349 -27.6318 -27.5838 -27.5814 -27.5578 -27.5542 -27.5429 -27.5407
   -27.5208 -27.4958 -27.4853 -27.4753 -27.4653 -27.4488 -27.4388 -27.4348
     3.5428   3.5429   5.9654   5.9686   6.9413   6.9453   8.4363   8.4414
     9.7517   9.7549  10.1864  10.1916  10.9259  10.9283  11.3505  11.3516
    11.8599  11.8636  12.2863  12.2898  12.5058  12.5150  12.9036  12.9112
    13.1473  13.1566  13.2698  13.2793  13.4413  13.4428  13.5196  13.5288
    13.5705  13.5810  13.9841  13.9964  14.2198  14.2254  15.0459  15.0663
    15.1395  15.1641  15.2934  15.3048  15.6144  15.6395  15.7623  15.7911
    16.1593  16.1703  16.5120  16.5228  17.1851  17.2280

     occupation numbers 
     1.0000   1.0000   1.0000   1.0000   1.0000   1.0000   1.0000   1.0000
     1.0000   1.0000   1.0000   1.0000   1.0000   1.0000   1.0000   1.0000
     1.0000   1.0000   1.0000   1.0000   1.0000   1.0000   1.0000   1.0000
     1.0000   1.0000   1.0000   1.0000   1.0000   1.0000   1.0000   1.0000
     1.0000   1.0000   1.0000   1.0000   1.0000   1.0000   1.0000   1.0000
     1.0000   1.0000   1.0000   1.0000   1.0000   1.0000   1.0000   1.0000
     1.0000   1.0000   1.0000   1.0000   1.0000   1.0000   1.0000   1.0000
     1.0000   1.0000   1.0000   1.0000   1.0000   1.0000   1.0000   1.0000
     1.0000   1.0000   1.0000   1.0000   1.0000   1.0000   0.0918   0.0403
    -0.0344  -0.0347  -0.0059  -0.0046  -0.0000  -0.0000  -0.0000  -0.0000
    -0.0000  -0.0000  -0.0000  -0.0000  -0.0000  -0.0000

          k = 0.0000 0.2500 0.3333 (  9636 PWs)   bands (ev):

   -56.5064 -56.5064 -56.4948 -56.4948 -56.4811 -56.4811 -56.4777 -56.4777
   -28.5895 -28.5848 -28.5772 -28.5757 -28.5450 -28.5424 -28.5123 -28.5119
   -27.6338 -27.6308 -27.5830 -27.5764 -27.5621 -27.5524 -27.5426 -27.5369
   -27.5228 -27.4958 -27.4928 -27.4797 -27.4637 -27.4485 -27.4368 -27.4335
     3.8557   3.8560   5.6433   5.6457   6.9526   6.9561   8.1881   8.1919
     9.8430   9.8466  10.1796  10.1835  10.9891  10.9914  11.3884  11.3920
    11.8758  11.8780  12.1106  12.1120  12.4496  12.4599  12.7482  12.7567
    13.1965  13.2066  13.3024  13.3093  13.4486  13.4521  13.6453  13.6487
    13.7122  13.7170  14.0562  14.0672  14.3682  14.3881  14.9101  14.9347
    15.0746  15.0985  15.1867  15.1940  15.5824  15.6068  15.7076  15.7393
    16.1726  16.1805  16.4782  16.4881  17.1842  17.2197

     occupation numbers 
     1.0000   1.0000   1.0000   1.0000   1.0000   1.0000   1.0000   1.0000
     1.0000   1.0000   1.0000   1.0000   1.0000   1.0000   1.0000   1.0000
     1.0000   1.0000   1.0000   1.0000   1.0000   1.0000   1.0000   1.0000
     1.0000   1.0000   1.0000   1.0000   1.0000   1.0000   1.0000   1.0000
     1.0000   1.0000   1.0000   1.0000   1.0000   1.0000   1.0000   1.0000
     1.0000   1.0000   1.0000   1.0000   1.0000   1.0000   1.0000   1.0000
     1.0000   1.0000   1.0000   1.0000   1.0000   1.0000   1.0000   1.0000
     1.0000   1.0000   1.0000   1.0000   1.0000   1.0000   1.0000   1.0000
     1.0000   1.0000   1.0000   1.0000   1.0000   1.0000   0.7100   0.5894
     0.0238  -0.0108  -0.0303  -0.0285  -0.0000  -0.0000  -0.0000  -0.0000
    -0.0000  -0.0000  -0.0000  -0.0000  -0.0000  -0.0000

          k = 0.0000 0.2500 0.4167 (  9659 PWs)   bands (ev):

   -56.5036 -56.5036 -56.4976 -56.4976 -56.4804 -56.4804 -56.4785 -56.4785
   -28.5872 -28.5835 -28.5793 -28.5773 -28.5375 -28.5357 -28.5202 -28.5196
   -27.6325 -27.6303 -27.5817 -27.5759 -27.5616 -27.5530 -27.5408 -27.5303
   -27.5258 -27.5059 -27.4910 -27.4842 -27.4591 -27.4504 -27.4350 -27.4332
     4.2434   4.2440   5.1761   5.1775   7.1709   7.1738   7.8423   7.8454
     9.9964   9.9994  10.1860  10.1890  11.0742  11.0806  11.3415  11.3526
    11.9081  11.9108  11.9804  11.9855  12.4122  12.4238  12.5557  12.5670
    13.2755  13.2838  13.3654  13.3674  13.4292  13.4310  13.6286  13.6309
    13.8633  13.8661  14.0585  14.0661  14.5322  14.5611  14.7623  14.7906
    15.0725  15.0897  15.1188  15.1222  15.5767  15.6019  15.6513  15.6829
    16.2383  16.2456  16.4214  16.4326  17.2187  17.2409

     occupation numbers 
     1.0000   1.0000   1.0000   1.0000   1.0000   1.0000   1.0000   1.0000
     1.0000   1.0000   1.0000   1.0000   1.0000   1.0000   1.0000   1.0000
     1.0000   1.0000   1.0000   1.0000   1.0000   1.0000   1.0000   1.0000
     1.0000   1.0000   1.0000   1.0000   1.0000   1.0000   1.0000   1.0000
     1.0000   1.0000   1.0000   1.0000   1.0000   1.0000   1.0000   1.0000
     1.0000   1.0000   1.0000   1.0000   1.0000   1.0000   1.0000   1.0000
     1.0000   1.0000   1.0000   1.0000   1.0000   1.0000   1.0000   1.0000
     1.0000   1.0000   1.0000   1.0000   1.0000   1.0000   1.0000   1.0000
     1.0000   1.0000   1.0000   1.0000   1.0008   1.0018   1.0348   1.0239
     0.0277  -0.0002  -0.0272  -0.0289  -0.0000  -0.0000  -0.0000  -0.0000
    -0.0000  -0.0000  -0.0000  -0.0000  -0.0000  -0.0000

          k = 0.0000 0.2500-0.5000 (  9686 PWs)   bands (ev):

   -56.5006 -56.5006 -56.5006 -56.5006 -56.4795 -56.4795 -56.4795 -56.4795
   -28.5845 -28.5845 -28.5792 -28.5792 -28.5299 -28.5299 -28.5268 -28.5268
   -27.6310 -27.6310 -27.5791 -27.5791 -27.5571 -27.5571 -27.5353 -27.5353
   -27.5168 -27.5168 -27.4880 -27.4880 -27.4542 -27.4542 -27.4338 -27.4338
     4.6918   4.6918   4.6928   4.6928   7.4837   7.4837   7.4899   7.4899
    10.1294  10.1294  10.1324  10.1324  11.2000  11.2000  11.2117  11.2117
    11.9551  11.9551  11.9570  11.9570  12.4183  12.4183  12.4308  12.4308
    13.3463  13.3463  13.3528  13.3528  13.5155  13.5155  13.5216  13.5216
    13.9871  13.9871  13.9927  13.9927  14.6540  14.6540  14.6845  14.6845
    15.0843  15.0843  15.0960  15.0960  15.6025  15.6025  15.6313  15.6313
    16.3324  16.3324  16.3434  16.3434  17.3588  17.3600

     occupation numbers 
     1.0000   1.0000   1.0000   1.0000   1.0000   1.0000   1.0000   1.0000
     1.0000   1.0000   1.0000   1.0000   1.0000   1.0000   1.0000   1.0000
     1.0000   1.0000   1.0000   1.0000   1.0000   1.0000   1.0000   1.0000
     1.0000   1.0000   1.0000   1.0000   1.0000   1.0000   1.0000   1.0000
     1.0000   1.0000   1.0000   1.0000   1.0000   1.0000   1.0000   1.0000
     1.0000   1.0000   1.0000   1.0000   1.0000   1.0000   1.0000   1.0000
     1.0000   1.0000   1.0000   1.0000   1.0000   1.0000   1.0000   1.0000
     1.0000   1.0000   1.0000   1.0000   1.0000   1.0000   1.0000   1.0000
     1.0000   1.0000   1.0000   1.0000   1.0135   1.0135   1.0213   1.0213
     0.0074   0.0074  -0.0081  -0.0081  -0.0000  -0.0000  -0.0000  -0.0000
    -0.0000  -0.0000  -0.0000  -0.0000  -0.0000  -0.0000

          k = 0.0000 0.3333 0.3333 (  9619 PWs)   bands (ev):

   -56.5044 -56.5044 -56.4958 -56.4958 -56.4814 -56.4814 -56.4785 -56.4785
   -28.5871 -28.5830 -28.5760 -28.5750 -28.5430 -28.5406 -28.5184 -28.5177
   -27.6294 -27.6281 -27.5845 -27.5789 -27.5592 -27.5514 -27.5396 -27.5376
   -27.5234 -27.5010 -27.4988 -27.4876 -27.4585 -27.4450 -27.4353 -27.4322
     4.1585   4.1589   5.6402   5.6423   6.6786   6.6813   7.8199   7.8237
    10.0315  10.0343  10.3050  10.3080  10.9404  10.9422  11.2581  11.2603
    11.8942  11.9008  12.1583  12.1628  12.3089  12.3185  12.6280  12.6359
    13.1779  13.1862  13.3903  13.3953  13.5585  13.5613  13.7199  13.7253
    13.8830  13.8946  14.0939  14.1067  14.4876  14.5133  14.8477  14.8593
    14.9400  14.9601  15.0562  15.0730  15.5202  15.5433  15.6014  15.6314
    16.2317  16.2405  16.4894  16.4964  17.1460  17.1765

     occupation numbers 
     1.0000   1.0000   1.0000   1.0000   1.0000   1.0000   1.0000   1.0000
     1.0000   1.0000   1.0000   1.0000   1.0000   1.0000   1.0000   1.0000
     1.0000   1.0000   1.0000   1.0000   1.0000   1.0000   1.0000   1.0000
     1.0000   1.0000   1.0000   1.0000   1.0000   1.0000   1.0000   1.0000
     1.0000   1.0000   1.0000   1.0000   1.0000   1.0000   1.0000   1.0000
     1.0000   1.0000   1.0000   1.0000   1.0000   1.0000   1.0000   1.0000
     1.0000   1.0000   1.0000   1.0000   1.0000   1.0000   1.0000   1.0000
     1.0000   1.0000   1.0000   1.0000   1.0000   1.0000   1.0000   1.0000
     1.0000   1.0000   1.0000   1.0000   1.0002   1.0005   0.9369   0.9053
     0.5626   0.4586   0.0637   0.0267  -0.0000  -0.0000  -0.0000  -0.0000
    -0.0000  -0.0000  -0.0000  -0.0000  -0.0000  -0.0000

          k = 0.0000 0.3333 0.4167 (  9633 PWs)   bands (ev):

   -56.5020 -56.5020 -56.4975 -56.4975 -56.4811 -56.4811 -56.4795 -56.4794
   -28.5842 -28.5810 -28.5769 -28.5755 -28.5384 -28.5369 -28.5250 -28.5244
   -27.6259 -27.6250 -27.5873 -27.5833 -27.5551 -27.5496 -27.5388 -27.5304
   -27.5275 -27.5095 -27.5008 -27.4939 -27.4524 -27.4445 -27.4340 -27.4319
     4.5304   4.5310   5.3664   5.3682   6.7397   6.7425   7.4120   7.4151
    10.2063  10.2081  10.3656  10.3678  11.0316  11.0345  11.3561  11.3631
    11.7473  11.7503  11.9381  11.9432  12.3001  12.3063  12.4376  12.4463
    13.2739  13.2820  13.4171  13.4193  13.5829  13.5854  13.7586  13.7637
    14.0545  14.0618  14.1734  14.1814  14.5734  14.5971  14.7020  14.7206
    14.9163  14.9332  14.9741  14.9932  15.4933  15.5138  15.5342  15.5626
    16.3316  16.3415  16.5032  16.5095  17.0964  17.1156

     occupation numbers 
     1.0000   1.0000   1.0000   1.0000   1.0000   1.0000   1.0000   1.0000
     1.0000   1.0000   1.0000   1.0000   1.0000   1.0000   1.0000   1.0000
     1.0000   1.0000   1.0000   1.0000   1.0000   1.0000   1.0000   1.0000
     1.0000   1.0000   1.0000   1.0000   1.0000   1.0000   1.0000   1.0000
     1.0000   1.0000   1.0000   1.0000   1.0000   1.0000   1.0000   1.0000
     1.0000   1.0000   1.0000   1.0000   1.0000   1.0000   1.0000   1.0000
     1.0000   1.0000   1.0000   1.0000   1.0000   1.0000   1.0000   1.0000
     1.0000   1.0000   1.0000   1.0000   1.0000   1.0000   1.0000   1.0000
     1.0000   1.0000   1.0000   1.0000   1.0025   1.0044   1.0262   1.0311
     0.6805   0.5969   0.3869   0.2944  -0.0000  -0.0000  -0.0000  -0.0000
    -0.0000  -0.0000  -0.0000  -0.0000  -0.0000  -0.0000

          k = 0.0000 0.3333-0.5000 (  9646 PWs)   bands (ev):

   -56.4997 -56.4997 -56.4997 -56.4997 -56.4804 -56.4804 -56.4804 -56.4804
   -28.5813 -28.5813 -28.5769 -28.5769 -28.5331 -28.5331 -28.5301 -28.5301
   -27.6241 -27.6241 -27.5869 -27.5869 -27.5512 -27.5512 -27.5342 -27.5342
   -27.5200 -27.5200 -27.4983 -27.4983 -27.4473 -27.4473 -27.4327 -27.4327
     4.9497   4.9497   4.9511   4.9511   7.0287   7.0287   7.0336   7.0336
    10.3304  10.3304  10.3324  10.3324  11.2378  11.2378  11.2462  11.2462
    11.7603  11.7603  11.7658  11.7658  12.3338  12.3338  12.3411  12.3411
    13.3655  13.3655  13.3726  13.3726  13.6742  13.6742  13.6829  13.6829
    14.1703  14.1703  14.1758  14.1758  14.6100  14.6100  14.6291  14.6291
    14.9427  14.9427  14.9577  14.9577  15.4964  15.4964  15.5206  15.5206
    16.4399  16.4399  16.4507  16.4507  17.1940  17.1959

     occupation numbers 
     1.0000   1.0000   1.0000   1.0000   1.0000   1.0000   1.0000   1.0000
     1.0000   1.0000   1.0000   1.0000   1.0000   1.0000   1.0000   1.0000
     1.0000   1.0000   1.0000   1.0000   1.0000   1.0000   1.0000   1.0000
     1.0000   1.0000   1.0000   1.0000   1.0000   1.0000   1.0000   1.0000
     1.0000   1.0000   1.0000   1.0000   1.0000   1.0000   1.0000   1.0000
     1.0000   1.0000   1.0000   1.0000   1.0000   1.0000   1.0000   1.0000
     1.0000   1.0000   1.0000   1.0000   1.0000   1.0000   1.0000   1.0000
     1.0000   1.0000   1.0000   1.0000   1.0000   1.0000   1.0000   1.0000
     1.0000   1.0000   1.0000   1.0000   1.0058   1.0058   1.0086   1.0086
     0.5485   0.5485   0.4710   0.4710  -0.0000  -0.0000  -0.0000  -0.0000
    -0.0000  -0.0000  -0.0000  -0.0000  -0.0000  -0.0000

          k = 0.0000 0.4167 0.4167 (  9620 PWs)   bands (ev):

[...]
    12.1172  12.1172  12.1239  12.1239  12.4601  12.4601  12.4691  12.4691
    13.2033  13.2033  13.2079  13.2079  13.7310  13.7310  13.7447  13.7447
    14.3183  14.3183  14.3230  14.3230  14.7064  14.7064  14.7328  14.7328
    14.8542  14.8542  14.8931  14.8931  15.3748  15.3748  15.3860  15.3860
    16.4335  16.4336  16.4430  16.4431  17.0290  17.0323

     occupation numbers 
     1.0000   1.0000   1.0000   1.0000   1.0000   1.0000   1.0000   1.0000
     1.0000   1.0000   1.0000   1.0000   1.0000   1.0000   1.0000   1.0000
     1.0000   1.0000   1.0000   1.0000   1.0000   1.0000   1.0000   1.0000
     1.0000   1.0000   1.0000   1.0000   1.0000   1.0000   1.0000   1.0000
     1.0000   1.0000   1.0000   1.0000   1.0000   1.0000   1.0000   1.0000
     1.0000   1.0000   1.0000   1.0000   1.0000   1.0000   1.0000   1.0000
     1.0000   1.0000   1.0000   1.0000   1.0000   1.0000   1.0000   1.0000
     1.0000   1.0000   1.0000   1.0000   1.0000   1.0000   1.0000   1.0000
     1.0000   1.0000   1.0000   1.0000   1.0274   1.0274   1.0336   1.0336
     0.9197   0.9197   0.7847   0.7847  -0.0008  -0.0008  -0.0006  -0.0006
    -0.0000  -0.0000  -0.0000  -0.0000  -0.0000  -0.0000

          k =-0.2500 0.4167 0.3333 (  9646 PWs)   bands (ev):

   -56.4996 -56.4996 -56.4957 -56.4957 -56.4834 -56.4834 -56.4814 -56.4814
   -28.5794 -28.5765 -28.5716 -28.5704 -28.5438 -28.5419 -28.5322 -28.5307
   -27.6197 -27.6174 -27.5830 -27.5790 -27.5685 -27.5652 -27.5422 -27.5327
   -27.5240 -27.5111 -27.4838 -27.4763 -27.4598 -27.4552 -27.4361 -27.4337
     4.8889   4.8894   5.6568   5.6595   6.8103   6.8156   7.3891   7.3923
     8.9985   9.0029   9.5182   9.5230  10.7773  10.7806  11.2113  11.2131
    12.0003  12.0028  12.3391  12.3429  12.7067  12.7131  12.8287  12.8357
    13.1068  13.1145  13.1620  13.1738  13.4047  13.4126  13.5758  13.5862
    14.1366  14.1442  14.4442  14.4563  14.6828  14.6971  14.8318  14.8513
    14.9666  14.9782  15.1290  15.1623  15.2839  15.2920  15.4293  15.4425
    16.2777  16.2858  16.3851  16.3921  17.0191  17.0285

     occupation numbers 
     1.0000   1.0000   1.0000   1.0000   1.0000   1.0000   1.0000   1.0000
     1.0000   1.0000   1.0000   1.0000   1.0000   1.0000   1.0000   1.0000
     1.0000   1.0000   1.0000   1.0000   1.0000   1.0000   1.0000   1.0000
     1.0000   1.0000   1.0000   1.0000   1.0000   1.0000   1.0000   1.0000
     1.0000   1.0000   1.0000   1.0000   1.0000   1.0000   1.0000   1.0000
     1.0000   1.0000   1.0000   1.0000   1.0000   1.0000   1.0000   1.0000
     1.0000   1.0000   1.0000   1.0000   1.0000   1.0000   1.0000   1.0000
     1.0000   1.0000   1.0000   1.0000   1.0000   1.0000   1.0000   1.0000
     1.0000   1.0000   1.0000   1.0001   1.0208   1.0248   0.9720   0.9277
     0.4249   0.3663  -0.0318  -0.0349  -0.0072  -0.0061  -0.0001  -0.0001
    -0.0000  -0.0000  -0.0000  -0.0000  -0.0000  -0.0000

          k =-0.2500-0.5000 0.3333 (  9656 PWs)   bands (ev):

   -56.4975 -56.4975 -56.4975 -56.4975 -56.4826 -56.4826 -56.4826 -56.4826
   -28.5762 -28.5762 -28.5720 -28.5720 -28.5394 -28.5394 -28.5359 -28.5359
   -27.6171 -27.6171 -27.5824 -27.5824 -27.5670 -27.5670 -27.5380 -27.5380
   -27.5167 -27.5167 -27.4811 -27.4811 -27.4561 -27.4561 -27.4353 -27.4353
     5.2807   5.2807   5.2821   5.2821   7.0733   7.0733   7.0785   7.0785
     9.2473   9.2473   9.2518   9.2518  10.9387  10.9387  10.9412  10.9412
    12.1895  12.1895  12.1976  12.1976  12.7740  12.7740  12.7842  12.7842
    13.1170  13.1170  13.1282  13.1282  13.4998  13.4998  13.5102  13.5102
    14.3078  14.3078  14.3164  14.3164  14.7793  14.7793  14.7970  14.7970
    15.0295  15.0295  15.0547  15.0547  15.3554  15.3554  15.3705  15.3705
    16.3332  16.3332  16.3434  16.3434  17.0862  17.0873

     occupation numbers 
     1.0000   1.0000   1.0000   1.0000   1.0000   1.0000   1.0000   1.0000
     1.0000   1.0000   1.0000   1.0000   1.0000   1.0000   1.0000   1.0000
     1.0000   1.0000   1.0000   1.0000   1.0000   1.0000   1.0000   1.0000
     1.0000   1.0000   1.0000   1.0000   1.0000   1.0000   1.0000   1.0000
     1.0000   1.0000   1.0000   1.0000   1.0000   1.0000   1.0000   1.0000
     1.0000   1.0000   1.0000   1.0000   1.0000   1.0000   1.0000   1.0000
     1.0000   1.0000   1.0000   1.0000   1.0000   1.0000   1.0000   1.0000
     1.0000   1.0000   1.0000   1.0000   1.0000   1.0000   1.0000   1.0000
     1.0000   1.0000   1.0000   1.0000   1.0301   1.0301   1.0191   1.0191
     0.1445   0.1445   0.0677   0.0677  -0.0013  -0.0013  -0.0009  -0.0009
    -0.0000  -0.0000  -0.0000  -0.0000  -0.0000  -0.0000

          k =-0.2500-0.5000 0.4167 (  9646 PWs)   bands (ev):

   -56.4965 -56.4965 -56.4965 -56.4965 -56.4836 -56.4836 -56.4836 -56.4836
   -28.5729 -28.5729 -28.5703 -28.5703 -28.5417 -28.5417 -28.5394 -28.5394
   -27.6100 -27.6100 -27.5905 -27.5905 -27.5647 -27.5647 -27.5410 -27.5410
   -27.5122 -27.5122 -27.4859 -27.4859 -27.4509 -27.4509 -27.4380 -27.4380
     5.5374   5.5374   5.5392   5.5392   6.7777   6.7777   6.7820   6.7820
     9.3213   9.3213   9.3263   9.3263  10.6408  10.6408  10.6437  10.6437
    12.3612  12.3612  12.3696  12.3696  12.6609  12.6609  12.6704  12.6704
    13.1094  13.1094  13.1157  13.1157  13.5443  13.5443  13.5568  13.5568
    14.4443  14.4443  14.4508  14.4508  14.8158  14.8158  14.8421  14.8421
    14.9535  14.9535  14.9912  14.9912  15.3192  15.3192  15.3307  15.3307
    16.3803  16.3803  16.3888  16.3888  16.9293  16.9314

     occupation numbers 
     1.0000   1.0000   1.0000   1.0000   1.0000   1.0000   1.0000   1.0000
     1.0000   1.0000   1.0000   1.0000   1.0000   1.0000   1.0000   1.0000
     1.0000   1.0000   1.0000   1.0000   1.0000   1.0000   1.0000   1.0000
     1.0000   1.0000   1.0000   1.0000   1.0000   1.0000   1.0000   1.0000
     1.0000   1.0000   1.0000   1.0000   1.0000   1.0000   1.0000   1.0000
     1.0000   1.0000   1.0000   1.0000   1.0000   1.0000   1.0000   1.0000
     1.0000   1.0000   1.0000   1.0000   1.0000   1.0000   1.0000   1.0000
     1.0000   1.0000   1.0000   1.0000   1.0000   1.0000   1.0000   1.0000
     1.0000   1.0000   1.0001   1.0001   0.9984   0.9984   0.9502   0.9502
     0.4927   0.4927   0.3035   0.3035  -0.0033  -0.0033  -0.0025  -0.0025
    -0.0000  -0.0000  -0.0000  -0.0000  -0.0000  -0.0000

          k =-0.3333-0.5000 0.4167 (  9664 PWs)   bands (ev):

   -56.4949 -56.4949 -56.4949 -56.4949 -56.4852 -56.4852 -56.4852 -56.4852
   -28.5692 -28.5692 -28.5666 -28.5666 -28.5460 -28.5460 -28.5436 -28.5436
   -27.6054 -27.6054 -27.5879 -27.5879 -27.5729 -27.5729 -27.5454 -27.5454
   -27.5059 -27.5059 -27.4771 -27.4771 -27.4559 -27.4559 -27.4422 -27.4422
     5.7601   5.7601   5.7626   5.7626   6.7871   6.7871   6.7926   6.7926
     9.0481   9.0481   9.0544   9.0544  10.2140  10.2140  10.2176  10.2176
    12.5358  12.5358  12.5437  12.5437  12.8187  12.8187  12.8268  12.8268
    13.0616  13.0616  13.0712  13.0712  13.3558  13.3558  13.3662  13.3662
    14.5891  14.5891  14.5959  14.5959  14.9401  14.9401  14.9674  14.9674
    15.0538  15.0538  15.0883  15.0883  15.2575  15.2575  15.2760  15.2760
    16.3423  16.3423  16.3505  16.3505  16.7818  16.7871

     occupation numbers 
     1.0000   1.0000   1.0000   1.0000   1.0000   1.0000   1.0000   1.0000
     1.0000   1.0000   1.0000   1.0000   1.0000   1.0000   1.0000   1.0000
     1.0000   1.0000   1.0000   1.0000   1.0000   1.0000   1.0000   1.0000
     1.0000   1.0000   1.0000   1.0000   1.0000   1.0000   1.0000   1.0000
     1.0000   1.0000   1.0000   1.0000   1.0000   1.0000   1.0000   1.0000
     1.0000   1.0000   1.0000   1.0000   1.0000   1.0000   1.0000   1.0000
     1.0000   1.0000   1.0000   1.0000   1.0000   1.0000   1.0000   1.0000
     1.0000   1.0000   1.0000   1.0000   1.0000   1.0000   1.0000   1.0000
     1.0036   1.0036   1.0043   1.0043   0.5618   0.5618   0.4210   0.4210
     0.0700   0.0700   0.0018   0.0018  -0.0119  -0.0119  -0.0084  -0.0084
    -0.0000  -0.0000  -0.0000  -0.0000  -0.0000  -0.0000

     the Fermi energy is    14.9521 ev

!    total energy              =   -1180.35043489 Ry

     total all-electron energy =    -10727.811271 Ry
     estimated scf accuracy    <       0.00000052 Ry
     smearing contrib. (-TS)   =      -0.00020243 Ry
     internal energy E=F+TS    =   -1180.35023246 Ry

     The total energy is F=E-TS. E is the sum of the following terms:
     one-electron contribution =    -336.80025097 Ry
     hartree contribution      =     207.04524890 Ry
     xc contribution           =    -114.36251536 Ry
     ewald contribution        =    -496.51183961 Ry
     one-center paw contrib.   =    -439.72087542 Ry
      -> PAW hartree energy AE =     126.71733482 Ry
      -> PAW hartree energy PS =    -125.74997306 Ry
      -> PAW xc energy AE      =     -96.24005190 Ry
      -> PAW xc energy PS      =      20.93266696 Ry
      -> total E_H with PAW    =     208.01261067 Ry
      -> total E_XC with PAW   =    -189.66990030 Ry

     convergence has been achieved in   8 iterations

     Forces acting on atoms (cartesian axes, Ry/au):

     atom    1 type  1   force =    -0.00279659   -0.00279659    0.00279659
     atom    2 type  1   force =    -0.00279659    0.00279659   -0.00279659
     atom    3 type  1   force =     0.00279659   -0.00279659   -0.00279659
     atom    4 type  1   force =     0.00279659    0.00279659    0.00279659
     atom    5 type  2   force =    -0.00429169   -0.00429169    0.00429169
     atom    6 type  2   force =    -0.00429169    0.00429169   -0.00429169
     atom    7 type  2   force =     0.00429169   -0.00429169   -0.00429169
     atom    8 type  2   force =     0.00429169    0.00429169    0.00429169
     The non-local contrib.  to forces
     atom    1 type  1   force =     0.05120049    0.05120049   -0.05120049
     atom    2 type  1   force =     0.05120049   -0.05120049    0.05120049
     atom    3 type  1   force =    -0.05120049    0.05120049    0.05120049
     atom    4 type  1   force =    -0.05120049   -0.05120049   -0.05120049
     atom    5 type  2   force =    -0.00806326   -0.00806326    0.00806326
     atom    6 type  2   force =    -0.00806326    0.00806326   -0.00806326
     atom    7 type  2   force =     0.00806326   -0.00806326   -0.00806326
     atom    8 type  2   force =     0.00806326    0.00806326    0.00806326
     The ionic contribution  to forces
     atom    1 type  1   force =    -0.85044630   -0.85044630    0.85044630
     atom    2 type  1   force =    -0.85044630    0.85044630   -0.85044630
     atom    3 type  1   force =     0.85044630   -0.85044630   -0.85044630
     atom    4 type  1   force =     0.85044630    0.85044630    0.85044630
     atom    5 type  2   force =    -0.24524978   -0.24524978    0.24524978
     atom    6 type  2   force =    -0.24524978    0.24524978   -0.24524978
     atom    7 type  2   force =     0.24524978   -0.24524978   -0.24524978
     atom    8 type  2   force =     0.24524978    0.24524978    0.24524978
     The local contribution  to forces
     atom    1 type  1   force =     0.79739003    0.79739003   -0.79739003
     atom    2 type  1   force =     0.79739003   -0.79739003    0.79739003
     atom    3 type  1   force =    -0.79739003    0.79739003    0.79739003
     atom    4 type  1   force =    -0.79739003   -0.79739003   -0.79739003
     atom    5 type  2   force =     0.24823994    0.24823994   -0.24823994
     atom    6 type  2   force =     0.24823994   -0.24823994    0.24823994
     atom    7 type  2   force =    -0.24823994    0.24823994    0.24823994
     atom    8 type  2   force =    -0.24823994   -0.24823994   -0.24823994
     The core correction contribution to forces
     atom    1 type  1   force =    -0.00103192   -0.00103192    0.00103192
     atom    2 type  1   force =    -0.00103192    0.00103192   -0.00103192
     atom    3 type  1   force =     0.00103192   -0.00103192   -0.00103192
     atom    4 type  1   force =     0.00103192    0.00103192    0.00103192
     atom    5 type  2   force =     0.00079476    0.00079476   -0.00079476
     atom    6 type  2   force =     0.00079476   -0.00079476    0.00079476
     atom    7 type  2   force =    -0.00079476    0.00079476    0.00079476
     atom    8 type  2   force =    -0.00079476   -0.00079476   -0.00079476
     The Hubbard contrib.    to forces
     atom    1 type  1   force =     0.00000000    0.00000000    0.00000000
     atom    2 type  1   force =     0.00000000    0.00000000    0.00000000
     atom    3 type  1   force =     0.00000000    0.00000000    0.00000000
     atom    4 type  1   force =     0.00000000    0.00000000    0.00000000
     atom    5 type  2   force =     0.00000000    0.00000000    0.00000000
     atom    6 type  2   force =     0.00000000    0.00000000    0.00000000
     atom    7 type  2   force =     0.00000000    0.00000000    0.00000000
     atom    8 type  2   force =     0.00000000    0.00000000    0.00000000
     The SCF correction term to forces
     atom    1 type  1   force =     0.00009110    0.00009110   -0.00009110
     atom    2 type  1   force =     0.00009110   -0.00009110    0.00009110
     atom    3 type  1   force =    -0.00009110    0.00009110    0.00009110
     atom    4 type  1   force =    -0.00009110   -0.00009110   -0.00009110
     atom    5 type  2   force =    -0.00001336   -0.00001336    0.00001336
     atom    6 type  2   force =    -0.00001336    0.00001336   -0.00001336
     atom    7 type  2   force =     0.00001336   -0.00001336   -0.00001336
     atom    8 type  2   force =     0.00001336    0.00001336    0.00001336

     Total force =     0.017745     Total SCF correction =     0.000319


     Computing stress (Cartesian axis) and pressure

          total   stress  (Ry/bohr**3)                   (kbar)     P=      -40.94
  -0.00027830   0.00000000   0.00000000          -40.94        0.00        0.00
   0.00000000  -0.00027830   0.00000000            0.00      -40.94        0.00
   0.00000000   0.00000000  -0.00027830            0.00        0.00      -40.94

     kinetic stress (kbar)  35760.04      0.00      0.00
                                0.00  35760.04      0.00
                                0.00      0.00  35760.04

     local   stress (kbar) -10012.61      0.00     -0.00
                                0.00 -10012.61     -0.00
                               -0.00     -0.00 -10012.61

     nonloc. stress (kbar)   2428.05      0.00      0.00
                                0.00   2428.05      0.00
                                0.00      0.00   2428.05

     hartree stress (kbar)  15167.48     -0.00      0.00
                               -0.00  15167.48      0.00
                                0.00      0.00  15167.48

     exc-cor stress (kbar)  -1706.63     -0.00      0.00
                               -0.00  -1706.63     -0.00
                                0.00     -0.00  -1706.63

     corecor stress (kbar)  -5304.38      0.00     -0.00
                                0.00  -5304.38      0.00
                               -0.00      0.00  -5304.38

     ewald   stress (kbar) -36372.90      0.00      0.00
                                0.00 -36372.90      0.00
                                0.00      0.00 -36372.90

     hubbard stress (kbar)      0.00      0.00      0.00
                                0.00      0.00      0.00
                                0.00      0.00      0.00

     DFT-D   stress (kbar)      0.00      0.00      0.00
                                0.00      0.00      0.00
                                0.00      0.00      0.00

     XDM     stress (kbar)      0.00      0.00      0.00
                                0.00      0.00      0.00
                                0.00      0.00      0.00

     dft-nl  stress (kbar)      0.00      0.00      0.00
                                0.00      0.00      0.00
                                0.00      0.00      0.00

     TS-vdW  stress (kbar)      0.00      0.00      0.00
                                0.00      0.00      0.00
                                0.00      0.00      0.00



     Writing output data file /zfs_data/vergnior/martin/Scratch/OAL/CrSi/convergence/smearing/12x12x12/0.012/tmp/CrSi.save/
 
     init_run     :     23.94s CPU     24.81s WALL (       1 calls)
     electrons    :    784.01s CPU    802.50s WALL (       1 calls)
     forces       :     22.83s CPU     22.99s WALL (       1 calls)
     stress       :     60.24s CPU     60.66s WALL (       1 calls)

     Called by init_run:
     wfcinit      :     22.58s CPU     23.21s WALL (       1 calls)
     wfcinit:atom :      0.19s CPU      0.19s WALL (     119 calls)
     wfcinit:wfcr :     21.62s CPU     22.24s WALL (     119 calls)
     potinit      :      0.22s CPU      0.32s WALL (       1 calls)
     hinit0       :      0.18s CPU      0.18s WALL (       1 calls)

     Called by electrons:
     c_bands      :    650.86s CPU    665.18s WALL (       9 calls)
     sum_band     :    126.74s CPU    129.97s WALL (       9 calls)
     v_of_rho     :      0.29s CPU      0.32s WALL (       9 calls)
     v_h          :      0.02s CPU      0.02s WALL (       9 calls)
     v_xc         :      0.33s CPU      0.36s WALL (      11 calls)
     newd         :      5.14s CPU      6.04s WALL (       9 calls)
     PAW_pot      :      1.36s CPU      1.41s WALL (       9 calls)
     mix_rho      :      0.17s CPU      0.18s WALL (       9 calls)

     Called by c_bands:
     init_us_2    :      3.38s CPU      3.44s WALL (    2499 calls)
     cegterg      :    604.55s CPU    618.15s WALL (    1071 calls)

     Called by sum_band:
     sum_band:wei :      0.16s CPU      0.16s WALL (       9 calls)
     sum_band:loo :    122.52s CPU    124.68s WALL (       9 calls)
     sum_band:buf :      0.93s CPU      1.07s WALL (    1071 calls)
     sum_band:ini :      1.50s CPU      1.52s WALL (    1071 calls)
     sum_band:cal :      7.64s CPU      7.66s WALL (    1071 calls)
     sum_band:bec :     15.68s CPU     15.80s WALL (    1071 calls)
     addusdens    :      3.91s CPU      4.97s WALL (       9 calls)
     addusd:skk   :      0.01s CPU      0.01s WALL (      18 calls)
     addusd:dgemm :      1.51s CPU      2.53s WALL (      18 calls)
     addusd:qvan2 :      2.34s CPU      2.36s WALL (      18 calls)

     Called by *egterg:
     cdiaghg      :     48.12s CPU     48.49s WALL (    5960 calls)
     cegterg:over :     33.35s CPU     33.74s WALL (    5008 calls)
     cegterg:upda :     15.46s CPU     15.62s WALL (    5008 calls)
     cegterg:last :     30.65s CPU     31.06s WALL (    3214 calls)
     h_psi        :    429.02s CPU    441.23s WALL (    6198 calls)
     s_psi        :     53.90s CPU     54.43s WALL (    6198 calls)
     g_psi        :      0.98s CPU      1.00s WALL (    5008 calls)

     Called by h_psi:
     h_psi:calbec :     28.13s CPU     28.50s WALL (    6198 calls)
     vloc_psi     :    349.21s CPU    360.35s WALL (    6198 calls)
     add_vuspsi   :     49.43s CPU     50.09s WALL (    6198 calls)

     General routines
     calbec       :     40.04s CPU     40.49s WALL (    7864 calls)
     fft          :      0.30s CPU      0.32s WALL (     216 calls)
     ffts         :      0.03s CPU      0.12s WALL (      72 calls)
     fftw         :    280.90s CPU    288.93s WALL ( 1500544 calls)
     interpolate  :      0.07s CPU      0.16s WALL (      36 calls)
 
     Parallel routines
     fft_scatt_xy :     26.90s CPU     27.70s WALL ( 1500832 calls)
     fft_scatt_yz :    113.61s CPU    116.67s WALL ( 1500832 calls)

     PAW routines
     PAW_pot      :      1.36s CPU      1.41s WALL (       9 calls)
     PAW_symme    :      0.02s CPU      0.02s WALL (      18 calls)
 
     PWSCF        :  14m56.25s CPU  15m20.90s WALL

 
   This run was terminated on:  12:55: 7   1Aug2021            

=------------------------------------------------------------------------------=
   JOB DONE.
=------------------------------------------------------------------------------=
