
     Program PWSCF v.6.7MaX starts on 18May2022 at 17:51: 4 

     This program is part of the open-source Quantum ESPRESSO suite
     for quantum simulation of materials; please cite
         "P. Giannozzi et al., J. Phys.:Condens. Matter 21 395502 (2009);
         "P. Giannozzi et al., J. Phys.:Condens. Matter 29 465901 (2017);
          URL http://www.quantum-espresso.org", 
     in publications or presentations arising from this work. More details at
     http://www.quantum-espresso.org/quote

     Parallel version (MPI), running on    48 processors

     MPI processes distributed on     1 nodes
     R & G space division:  proc/nbgrp/npool/nimage =      48
     Waiting for input...
     Reading input from standard input

     Current dimensions of program PWSCF are:
     Max number of different atomic species (ntypx) = 10
     Max number of k-points (npk) =  40000
     Max angular momentum in pseudopotentials (lmaxx) =  3
     file O.pbe-nl-kjpaw_psl.1.0.0.UPF: wavefunction(s)  2S 2P renormalized
     file Cl.pbe-nl-kjpaw_psl.1.0.0.UPF: wavefunction(s)  3S renormalized
     file Nb.pbe-spn-kjpaw_psl.1.0.0.UPF: wavefunction(s)  4S 4P 4D renormalized

     Subspace diagonalization in iterative solution of the eigenvalue problem:
     a serial algorithm will be used

     Message from routine setup:
     using ibrav=0 with symmetry is DISCOURAGED, use correct ibrav instead
 
     Parallelization info
     --------------------
     sticks:   dense  smooth     PW     G-vecs:    dense   smooth      PW
     Min         226      90     28                 8011     2025     357
     Max         227      91     29                 8013     2026     359
     Sum       10861    4353   1363               384583    97215   17183
 


     bravais-lattice index     =            0
     lattice parameter (alat)  =      12.6717  a.u.
     unit-cell volume          =     547.9313 (a.u.)^3
     number of atoms/cell      =            4
     number of atomic types    =            3
     number of electrons       =        33.00
     number of Kohn-Sham states=           21
     kinetic-energy cutoff     =     120.0000  Ry
     charge density cutoff     =    1200.0000  Ry
     scf convergence threshold =      1.0E-10
     mixing beta               =       0.7000
     number of iterations used =            8  plain     mixing
     Exchange-correlation= SLA  PW   PBX  PBC
                           (   1   4   3   4   0   0   0)

     celldm(1)=  12.671676  celldm(2)=   0.000000  celldm(3)=   0.000000
     celldm(4)=   0.000000  celldm(5)=   0.000000  celldm(6)=   0.000000

     crystal axes: (cart. coord. in units of alat)
               a(1) = (  -0.250426   0.291161   0.923316 )  
               a(2) = (   0.250426  -0.291161   0.923316 )  
               a(3) = (   0.250426   0.291161  -0.923316 )  

     reciprocal axes: (cart. coord. in units 2 pi/alat)
               b(1) = (  0.000000  1.717261  0.541527 )  
               b(2) = (  1.996594  0.000000  0.541527 )  
               b(3) = (  1.996594  1.717261  0.000000 )  


     PseudoPot. # 1 for O  read from file:
     /zfs_data/gutierre/Scratch/Cl2NbO/smearing/8x8x8/0.012/pseudo/O.pbe-nl-kjpaw_psl.1.0.0.UPF
     MD5 check sum: df3ddea38124b4e5de5e1084591730e4
     Pseudo is Projector augmented-wave + core cor, Zval =  6.0
     Generated using 'atomic' code by A. Dal Corso  v.6.7MaX
     Shape of augmentation charge: PSQ
     Using radial grid of 1095 points,  4 beta functions with: 
                l(1) =   0
                l(2) =   0
                l(3) =   1
                l(4) =   1
     Q(r) pseudized with 0 coefficients 


     PseudoPot. # 2 for Cl read from file:
     /zfs_data/gutierre/Scratch/Cl2NbO/smearing/8x8x8/0.012/pseudo/Cl.pbe-nl-kjpaw_psl.1.0.0.UPF
     MD5 check sum: 8cf6bde52c08f6236e0f72a8870677af
     Pseudo is Projector augmented-wave + core cor, Zval =  7.0
     Generated using 'atomic' code by A. Dal Corso  v.6.7MaX
     Shape of augmentation charge: PSQ
     Using radial grid of 1157 points,  4 beta functions with: 
                l(1) =   0
                l(2) =   0
                l(3) =   1
                l(4) =   1
     Q(r) pseudized with 0 coefficients 


     PseudoPot. # 3 for Nb read from file:
     /zfs_data/gutierre/Scratch/Cl2NbO/smearing/8x8x8/0.012/pseudo/Nb.pbe-spn-kjpaw_psl.1.0.0.UPF
     MD5 check sum: 1ec1a3aa7bf3cbf7f7e0d720422bce7a
     Pseudo is Projector augmented-wave + core cor, Zval = 13.0
     Generated using 'atomic' code by A. Dal Corso  v.6.7MaX
     Shape of augmentation charge: PSQ
     Using radial grid of 1227 points,  6 beta functions with: 
                l(1) =   0
                l(2) =   0
                l(3) =   1
                l(4) =   1
                l(5) =   2
                l(6) =   2
     Q(r) pseudized with 0 coefficients 


     atomic species   valence    mass     pseudopotential
        O              6.00    15.99940     O ( 1.00)
        Cl             7.00    35.45150     Cl( 1.00)
        Nb            13.00    92.90637     Nb( 1.00)

      8 Sym. Ops., with inversion, found


                                    s                        frac. trans.

      isym =  1     identity                                     

 cryst.   s( 1) = (     1          0          0      )
                  (     0          1          0      )
                  (     0          0          1      )

 cart.    s( 1) = (  1.0000000  0.0000000  0.0000000 )
                  (  0.0000000  1.0000000  0.0000000 )
                  (  0.0000000  0.0000000  1.0000000 )


      isym =  2     180 deg rotation - cart. axis [0,0,1]        

 cryst.   s( 2) = (     0          1          0      )
                  (     1          0          0      )
                  (    -1         -1         -1      )

 cart.    s( 2) = ( -1.0000000  0.0000000  0.0000000 )
                  (  0.0000000 -1.0000000  0.0000000 )
                  (  0.0000000  0.0000000  1.0000000 )


      isym =  3     180 deg rotation - cart. axis [0,1,0]        

 cryst.   s( 3) = (     0          0          1      )
                  (    -1         -1         -1      )
                  (     1          0          0      )

 cart.    s( 3) = ( -1.0000000  0.0000000  0.0000000 )
                  (  0.0000000  1.0000000  0.0000000 )
                  (  0.0000000  0.0000000 -1.0000000 )


      isym =  4     180 deg rotation - cart. axis [1,0,0]        

 cryst.   s( 4) = (    -1         -1         -1      )
                  (     0          0          1      )
                  (     0          1          0      )

 cart.    s( 4) = (  1.0000000  0.0000000  0.0000000 )
                  (  0.0000000 -1.0000000  0.0000000 )
                  (  0.0000000  0.0000000 -1.0000000 )


      isym =  5     inversion                                    

 cryst.   s( 5) = (    -1          0          0      )
                  (     0         -1          0      )
                  (     0          0         -1      )

 cart.    s( 5) = ( -1.0000000  0.0000000  0.0000000 )
                  (  0.0000000 -1.0000000  0.0000000 )
                  (  0.0000000  0.0000000 -1.0000000 )


      isym =  6     inv. 180 deg rotation - cart. axis [0,0,1]   

 cryst.   s( 6) = (     0         -1          0      )
                  (    -1          0          0      )
                  (     1          1          1      )

 cart.    s( 6) = (  1.0000000  0.0000000  0.0000000 )
                  (  0.0000000  1.0000000  0.0000000 )
                  (  0.0000000  0.0000000 -1.0000000 )


      isym =  7     inv. 180 deg rotation - cart. axis [0,1,0]   

 cryst.   s( 7) = (     0          0         -1      )
                  (     1          1          1      )
                  (    -1          0          0      )

 cart.    s( 7) = (  1.0000000  0.0000000  0.0000000 )
                  (  0.0000000 -1.0000000  0.0000000 )
                  (  0.0000000  0.0000000  1.0000000 )


      isym =  8     inv. 180 deg rotation - cart. axis [1,0,0]   

 cryst.   s( 8) = (     1          1          1      )
                  (     0          0         -1      )
                  (     0         -1          0      )

 cart.    s( 8) = ( -1.0000000  0.0000000  0.0000000 )
                  (  0.0000000  1.0000000  0.0000000 )
                  (  0.0000000  0.0000000  1.0000000 )


   Cartesian axes

     site n.     atom                  positions (alat units)
         1           O   tau(   1) = (   0.0000000   0.2911613   0.0000000  )
         2           Cl  tau(   2) = (  -0.0000000   0.2911613   0.6365338  )
         3           Cl  tau(   3) = (   0.2504264  -0.0000000   0.2867819  )
         4           Nb  tau(   4) = (   0.0000000   0.0000000   0.0000000  )

   Crystallographic axes

     site n.     atom                  positions (cryst. coord.)
         1           O   tau(   1) = (  0.5000000  0.0000000  0.5000000  )
         2           Cl  tau(   2) = (  0.8447000  0.3447000  0.5000000  )
         3           Cl  tau(   3) = (  0.1553000  0.6553000  0.5000000  )
         4           Nb  tau(   4) = (  0.0000000  0.0000000  0.0000000  )

     number of k points=    95  Methfessel-Paxton smearing, width (Ry)=  0.0120
                       cart. coord. in units 2pi/alat
        k(    1) = (   0.0000000   0.0000000   0.0000000), wk =   0.0039062
        k(    2) = (   0.2495743   0.2146577   0.0000000), wk =   0.0156250
        k(    3) = (   0.4991486   0.4293153   0.0000000), wk =   0.0156250
        k(    4) = (   0.7487229   0.6439730   0.0000000), wk =   0.0156250
        k(    5) = (  -0.9982971  -0.8586307   0.0000000), wk =   0.0078125
        k(    6) = (   0.2495743   0.0000000   0.0676908), wk =   0.0156250
        k(    7) = (   0.4991486   0.2146577   0.0676908), wk =   0.0312500
        k(    8) = (   0.7487229   0.4293153   0.0676908), wk =   0.0312500
        k(    9) = (   0.9982971   0.6439730   0.0676908), wk =   0.0312500
        k(   10) = (  -0.7487229  -0.8586307   0.0676908), wk =   0.0312500
        k(   11) = (  -0.4991486  -0.6439730   0.0676908), wk =   0.0312500
        k(   12) = (  -0.2495743  -0.4293153   0.0676908), wk =   0.0312500
        k(   13) = (   0.0000000  -0.2146577   0.0676908), wk =   0.0156250
        k(   14) = (   0.4991486   0.0000000   0.1353817), wk =   0.0156250
        k(   15) = (   0.7487229   0.2146577   0.1353817), wk =   0.0312500
        k(   16) = (   0.9982971   0.4293153   0.1353817), wk =   0.0312500
        k(   17) = (   1.2478714   0.6439730   0.1353817), wk =   0.0312500
        k(   18) = (  -0.4991486  -0.8586307   0.1353817), wk =   0.0312500
        k(   19) = (  -0.2495743  -0.6439730   0.1353817), wk =   0.0312500
        k(   20) = (   0.0000000  -0.4293153   0.1353817), wk =   0.0156250
        k(   21) = (   0.2495743  -0.2146577   0.1353817), wk =   0.0312500
        k(   22) = (   0.7487229   0.0000000   0.2030725), wk =   0.0156250
        k(   23) = (   0.9982971   0.2146577   0.2030725), wk =   0.0312500
        k(   24) = (   1.2478714   0.4293153   0.2030725), wk =   0.0312500
        k(   25) = (   1.4974457   0.6439730   0.2030725), wk =   0.0312500
        k(   26) = (  -0.2495743  -0.8586307   0.2030725), wk =   0.0312500
        k(   27) = (   0.0000000  -0.6439730   0.2030725), wk =   0.0156250
        k(   28) = (   0.2495743  -0.4293153   0.2030725), wk =   0.0312500
        k(   29) = (   0.4991486  -0.2146577   0.2030725), wk =   0.0312500
        k(   30) = (  -0.9982971   0.0000000  -0.2707633), wk =   0.0078125
        k(   31) = (  -0.7487229   0.2146577  -0.2707633), wk =   0.0312500
        k(   32) = (  -0.4991486   0.4293153  -0.2707633), wk =   0.0312500
        k(   33) = (  -0.2495743   0.6439730  -0.2707633), wk =   0.0312500
        k(   34) = (  -1.9965943  -0.8586307  -0.2707633), wk =   0.0078125
        k(   35) = (   0.4991486   0.4293153   0.1353817), wk =   0.0312500
        k(   36) = (   0.7487229   0.6439730   0.1353817), wk =   0.0312500
        k(   37) = (   0.9982971   0.8586307   0.1353817), wk =   0.0156250
        k(   38) = (   0.0000000   0.0000000   0.1353817), wk =   0.0078125
        k(   39) = (   0.7487229   0.4293153   0.2030725), wk =   0.0312500
        k(   40) = (   0.9982971   0.6439730   0.2030725), wk =   0.0312500
        k(   41) = (   1.2478714   0.8586307   0.2030725), wk =   0.0312500
        k(   42) = (  -0.4991486  -0.6439730   0.2030725), wk =   0.0312500
        k(   43) = (   0.0000000  -0.2146577   0.2030725), wk =   0.0156250
        k(   44) = (   0.2495743   0.0000000   0.2030725), wk =   0.0156250
        k(   45) = (   0.9982971   0.4293153   0.2707633), wk =   0.0156250
        k(   46) = (   1.2478714   0.6439730   0.2707633), wk =   0.0312500
        k(   47) = (   1.4974457   0.8586307   0.2707633), wk =   0.0156250
        k(   48) = (   0.0000000  -0.4293153   0.2707633), wk =   0.0156250
        k(   49) = (   0.2495743  -0.2146577   0.2707633), wk =   0.0312500
        k(   50) = (   0.4991486   0.0000000   0.2707633), wk =   0.0156250
        k(   51) = (  -1.9965943  -0.6439730  -0.2030725), wk =   0.0156250
        k(   52) = (  -1.7470200  -0.4293153  -0.2030725), wk =   0.0312500
        k(   53) = (  -1.4974457  -0.2146577  -0.2030725), wk =   0.0312500
        k(   54) = (  -1.2478714   0.0000000  -0.2030725), wk =   0.0156250
        k(   55) = (   0.0000000   0.8586307  -0.1353817), wk =   0.0156250
        k(   56) = (  -1.7470200  -0.6439730  -0.1353817), wk =   0.0312500
        k(   57) = (  -1.4974457  -0.4293153  -0.1353817), wk =   0.0312500
        k(   58) = (  -1.2478714  -0.2146577  -0.1353817), wk =   0.0312500
        k(   59) = (  -0.9982971   0.0000000  -0.1353817), wk =   0.0156250
        k(   60) = (   0.0000000   0.6439730  -0.0676908), wk =   0.0156250
        k(   61) = (   0.2495743   0.8586307  -0.0676908), wk =   0.0312500
        k(   62) = (  -1.4974457  -0.6439730  -0.0676908), wk =   0.0312500
        k(   63) = (  -1.2478714  -0.4293153  -0.0676908), wk =   0.0312500
        k(   64) = (  -0.9982971  -0.2146577  -0.0676908), wk =   0.0312500
        k(   65) = (  -0.7487229   0.0000000  -0.0676908), wk =   0.0156250
        k(   66) = (   0.0000000   0.4293153   0.0000000), wk =   0.0078125
        k(   67) = (   0.2495743   0.6439730   0.0000000), wk =   0.0156250
        k(   68) = (   0.4991486   0.8586307   0.0000000), wk =   0.0156250
        k(   69) = (  -1.2478714  -0.6439730   0.0000000), wk =   0.0156250
        k(   70) = (  -0.9982971  -0.4293153   0.0000000), wk =   0.0156250
        k(   71) = (  -0.7487229  -0.2146577   0.0000000), wk =   0.0156250
        k(   72) = (  -0.4991486   0.0000000   0.0000000), wk =   0.0078125
        k(   73) = (   0.9982971   0.8586307   0.2707633), wk =   0.0078125
        k(   74) = (   0.0000000   0.0000000   0.2707633), wk =   0.0078125
        k(   75) = (   0.0000000  -0.2146577   0.3384542), wk =   0.0156250
        k(   76) = (   0.2495743   0.0000000   0.3384542), wk =   0.0156250
        k(   77) = (  -1.9965943  -0.4293153  -0.1353817), wk =   0.0156250
        k(   78) = (  -1.7470200  -0.2146577  -0.1353817), wk =   0.0312500
        k(   79) = (  -1.4974457   0.0000000  -0.1353817), wk =   0.0156250
        k(   80) = (   0.0000000   1.0732883  -0.0676908), wk =   0.0156250
        k(   81) = (  -1.7470200  -0.4293153  -0.0676908), wk =   0.0312500
        k(   82) = (  -1.4974457  -0.2146577  -0.0676908), wk =   0.0312500
        k(   83) = (  -1.2478714   0.0000000  -0.0676908), wk =   0.0156250
        k(   84) = (   0.0000000   0.8586307   0.0000000), wk =   0.0078125
        k(   85) = (   0.2495743   1.0732883   0.0000000), wk =   0.0156250
        k(   86) = (  -1.4974457  -0.4293153   0.0000000), wk =   0.0156250
        k(   87) = (  -1.2478714  -0.2146577   0.0000000), wk =   0.0156250
        k(   88) = (  -0.9982971   0.0000000   0.0000000), wk =   0.0078125
        k(   89) = (   0.0000000   0.0000000   0.4061450), wk =   0.0078125
        k(   90) = (  -1.9965943  -0.2146577  -0.0676908), wk =   0.0156250
        k(   91) = (  -1.7470200   0.0000000  -0.0676908), wk =   0.0156250
        k(   92) = (   0.0000000   1.2879460   0.0000000), wk =   0.0078125
        k(   93) = (  -1.7470200  -0.2146577   0.0000000), wk =   0.0156250
        k(   94) = (  -1.4974457   0.0000000   0.0000000), wk =   0.0078125
        k(   95) = (  -1.9965943  -1.7172613  -0.5415266), wk =   0.0039062

                       cryst. coord.
        k(    1) = (   0.0000000   0.0000000   0.0000000), wk =   0.0039062
        k(    2) = (   0.0000000   0.0000000   0.1250000), wk =   0.0156250
        k(    3) = (   0.0000000   0.0000000   0.2500000), wk =   0.0156250
        k(    4) = (  -0.0000000   0.0000000   0.3750000), wk =   0.0156250
        k(    5) = (   0.0000000   0.0000000  -0.5000000), wk =   0.0078125
        k(    6) = (   0.0000000   0.1250000   0.0000000), wk =   0.0156250
        k(    7) = (   0.0000000   0.1250000   0.1250000), wk =   0.0312500
        k(    8) = (   0.0000000   0.1250000   0.2500000), wk =   0.0312500
        k(    9) = (  -0.0000000   0.1250000   0.3750000), wk =   0.0312500
        k(   10) = (   0.0000000   0.1250000  -0.5000000), wk =   0.0312500
        k(   11) = (   0.0000000   0.1250000  -0.3750000), wk =   0.0312500
        k(   12) = (   0.0000000   0.1250000  -0.2500000), wk =   0.0312500
        k(   13) = (   0.0000000   0.1250000  -0.1250000), wk =   0.0156250
        k(   14) = (   0.0000000   0.2500000   0.0000000), wk =   0.0156250
        k(   15) = (   0.0000000   0.2500000   0.1250000), wk =   0.0312500
        k(   16) = (   0.0000000   0.2500000   0.2500000), wk =   0.0312500
        k(   17) = (  -0.0000000   0.2500000   0.3750000), wk =   0.0312500
        k(   18) = (   0.0000000   0.2500000  -0.5000000), wk =   0.0312500
        k(   19) = (   0.0000000   0.2500000  -0.3750000), wk =   0.0312500
        k(   20) = (   0.0000000   0.2500000  -0.2500000), wk =   0.0156250
        k(   21) = (   0.0000000   0.2500000  -0.1250000), wk =   0.0312500
        k(   22) = (   0.0000000   0.3750000   0.0000000), wk =   0.0156250
        k(   23) = (   0.0000000   0.3750000   0.1250000), wk =   0.0312500
        k(   24) = (  -0.0000000   0.3750000   0.2500000), wk =   0.0312500
        k(   25) = (  -0.0000000   0.3750000   0.3750000), wk =   0.0312500
        k(   26) = (   0.0000000   0.3750000  -0.5000000), wk =   0.0312500
        k(   27) = (   0.0000000   0.3750000  -0.3750000), wk =   0.0156250
        k(   28) = (   0.0000000   0.3750000  -0.2500000), wk =   0.0312500
        k(   29) = (   0.0000000   0.3750000  -0.1250000), wk =   0.0312500
        k(   30) = (   0.0000000  -0.5000000   0.0000000), wk =   0.0078125
        k(   31) = (   0.0000000  -0.5000000   0.1250000), wk =   0.0312500
        k(   32) = (   0.0000000  -0.5000000   0.2500000), wk =   0.0312500
        k(   33) = (   0.0000000  -0.5000000   0.3750000), wk =   0.0312500
        k(   34) = (   0.0000000  -0.5000000  -0.5000000), wk =   0.0078125
        k(   35) = (   0.1250000   0.1250000   0.1250000), wk =   0.0312500
        k(   36) = (   0.1250000   0.1250000   0.2500000), wk =   0.0312500
        k(   37) = (   0.1250000   0.1250000   0.3750000), wk =   0.0156250
        k(   38) = (   0.1250000   0.1250000  -0.1250000), wk =   0.0078125
        k(   39) = (   0.1250000   0.2500000   0.1250000), wk =   0.0312500
        k(   40) = (   0.1250000   0.2500000   0.2500000), wk =   0.0312500
        k(   41) = (   0.1250000   0.2500000   0.3750000), wk =   0.0312500
        k(   42) = (   0.1250000   0.2500000  -0.5000000), wk =   0.0312500
        k(   43) = (   0.1250000   0.2500000  -0.2500000), wk =   0.0156250
        k(   44) = (   0.1250000   0.2500000  -0.1250000), wk =   0.0156250
        k(   45) = (   0.1250000   0.3750000   0.1250000), wk =   0.0156250
        k(   46) = (   0.1250000   0.3750000   0.2500000), wk =   0.0312500
        k(   47) = (   0.1250000   0.3750000   0.3750000), wk =   0.0156250
        k(   48) = (   0.1250000   0.3750000  -0.3750000), wk =   0.0156250
        k(   49) = (   0.1250000   0.3750000  -0.2500000), wk =   0.0312500
        k(   50) = (   0.1250000   0.3750000  -0.1250000), wk =   0.0156250
        k(   51) = (   0.1250000  -0.5000000  -0.5000000), wk =   0.0156250
        k(   52) = (   0.1250000  -0.5000000  -0.3750000), wk =   0.0312500
        k(   53) = (   0.1250000  -0.5000000  -0.2500000), wk =   0.0312500
        k(   54) = (   0.1250000  -0.5000000  -0.1250000), wk =   0.0156250
        k(   55) = (   0.1250000  -0.3750000   0.3750000), wk =   0.0156250
        k(   56) = (   0.1250000  -0.3750000  -0.5000000), wk =   0.0312500
        k(   57) = (   0.1250000  -0.3750000  -0.3750000), wk =   0.0312500
        k(   58) = (   0.1250000  -0.3750000  -0.2500000), wk =   0.0312500
        k(   59) = (   0.1250000  -0.3750000  -0.1250000), wk =   0.0156250
        k(   60) = (   0.1250000  -0.2500000   0.2500000), wk =   0.0156250
        k(   61) = (   0.1250000  -0.2500000   0.3750000), wk =   0.0312500
        k(   62) = (   0.1250000  -0.2500000  -0.5000000), wk =   0.0312500
        k(   63) = (   0.1250000  -0.2500000  -0.3750000), wk =   0.0312500
        k(   64) = (   0.1250000  -0.2500000  -0.2500000), wk =   0.0312500
        k(   65) = (   0.1250000  -0.2500000  -0.1250000), wk =   0.0156250
        k(   66) = (   0.1250000  -0.1250000   0.1250000), wk =   0.0078125
        k(   67) = (   0.1250000  -0.1250000   0.2500000), wk =   0.0156250
        k(   68) = (   0.1250000  -0.1250000   0.3750000), wk =   0.0156250
        k(   69) = (   0.1250000  -0.1250000  -0.5000000), wk =   0.0156250
        k(   70) = (   0.1250000  -0.1250000  -0.3750000), wk =   0.0156250
        k(   71) = (   0.1250000  -0.1250000  -0.2500000), wk =   0.0156250
        k(   72) = (   0.1250000  -0.1250000  -0.1250000), wk =   0.0078125
        k(   73) = (   0.2500000   0.2500000   0.2500000), wk =   0.0078125
        k(   74) = (   0.2500000   0.2500000  -0.2500000), wk =   0.0078125
        k(   75) = (   0.2500000   0.3750000  -0.3750000), wk =   0.0156250
        k(   76) = (   0.2500000   0.3750000  -0.2500000), wk =   0.0156250
        k(   77) = (   0.2500000  -0.5000000  -0.5000000), wk =   0.0156250
        k(   78) = (   0.2500000  -0.5000000  -0.3750000), wk =   0.0312500
        k(   79) = (   0.2500000  -0.5000000  -0.2500000), wk =   0.0156250
        k(   80) = (   0.2500000  -0.3750000   0.3750000), wk =   0.0156250
        k(   81) = (   0.2500000  -0.3750000  -0.5000000), wk =   0.0312500
        k(   82) = (   0.2500000  -0.3750000  -0.3750000), wk =   0.0312500
        k(   83) = (   0.2500000  -0.3750000  -0.2500000), wk =   0.0156250
        k(   84) = (   0.2500000  -0.2500000   0.2500000), wk =   0.0078125
        k(   85) = (   0.2500000  -0.2500000   0.3750000), wk =   0.0156250
        k(   86) = (   0.2500000  -0.2500000  -0.5000000), wk =   0.0156250
        k(   87) = (   0.2500000  -0.2500000  -0.3750000), wk =   0.0156250
        k(   88) = (   0.2500000  -0.2500000  -0.2500000), wk =   0.0078125
        k(   89) = (   0.3750000   0.3750000  -0.3750000), wk =   0.0078125
        k(   90) = (   0.3750000  -0.5000000  -0.5000000), wk =   0.0156250
        k(   91) = (   0.3750000  -0.5000000  -0.3750000), wk =   0.0156250
        k(   92) = (   0.3750000  -0.3750000   0.3750000), wk =   0.0078125
        k(   93) = (   0.3750000  -0.3750000  -0.5000000), wk =   0.0156250
        k(   94) = (   0.3750000  -0.3750000  -0.3750000), wk =   0.0078125
        k(   95) = (  -0.5000000  -0.5000000  -0.5000000), wk =   0.0039062

     Dense  grid:   384583 G-vectors     FFT dimensions: ( 144, 144, 144)

     Smooth grid:    97215 G-vectors     FFT dimensions: (  90,  90,  90)

     Dynamical RAM for                 wfc:       0.08 MB

     Dynamical RAM for     wfc (w. buffer):       7.78 MB

     Dynamical RAM for           str. fact:       0.37 MB

     Dynamical RAM for           local pot:       0.00 MB

     Dynamical RAM for          nlocal pot:       0.16 MB

     Dynamical RAM for                qrad:       8.33 MB

     Dynamical RAM for          rho,v,vnew:       1.79 MB

     Dynamical RAM for               rhoin:       0.60 MB

     Dynamical RAM for            rho*nmix:       1.96 MB

     Dynamical RAM for           G-vectors:       0.47 MB

     Dynamical RAM for          h,s,v(r/c):       0.08 MB

     Dynamical RAM for          <psi|beta>:       0.01 MB

     Dynamical RAM for                 psi:       0.16 MB

     Dynamical RAM for                hpsi:       0.16 MB

     Dynamical RAM for                spsi:       0.16 MB

     Dynamical RAM for      wfcinit/wfcrot:       0.21 MB

     Dynamical RAM for           addusdens:      22.98 MB

     Dynamical RAM for          addusforce:      23.30 MB

     Dynamical RAM for         addusstress:      24.57 MB

     Estimated static dynamical RAM per process >      24.33 MB

     Estimated max dynamical RAM per process >      48.90 MB

     Estimated total dynamical RAM >       2.29 GB

     Initial potential from superposition of free atoms

     starting charge   32.99867, renormalised to   33.00000
     Starting wfcs are   25 randomized atomic wfcs
     Checking if some PAW data can be deallocated... 
       PAW data deallocated on   36 nodes for type:  1
       PAW data deallocated on   24 nodes for type:  2
       PAW data deallocated on   36 nodes for type:  3

     total cpu time spent up to now is        3.4 secs

     Self-consistent Calculation

     iteration #  1     ecut=   120.00 Ry     beta= 0.70
     Davidson diagonalization with overlap
     ethr =  1.00E-02,  avg # of iterations =  2.3

     total cpu time spent up to now is        8.1 secs

     total energy              =    -534.52346547 Ry
     estimated scf accuracy    <       0.76544770 Ry

     iteration #  2     ecut=   120.00 Ry     beta= 0.70
     Davidson diagonalization with overlap
     ethr =  2.32E-03,  avg # of iterations =  3.6

     total cpu time spent up to now is       13.7 secs

     total energy              =    -533.64310482 Ry
     estimated scf accuracy    <       8.32794318 Ry

     iteration #  3     ecut=   120.00 Ry     beta= 0.70
     Davidson diagonalization with overlap
     ethr =  2.32E-03,  avg # of iterations =  3.5

     total cpu time spent up to now is       19.0 secs

     total energy              =    -534.97364560 Ry
     estimated scf accuracy    <       0.12358944 Ry

     iteration #  4     ecut=   120.00 Ry     beta= 0.70
     Davidson diagonalization with overlap
     ethr =  3.75E-04,  avg # of iterations =  1.3

     total cpu time spent up to now is       23.2 secs

     total energy              =    -534.96775001 Ry
     estimated scf accuracy    <       0.05858464 Ry

     iteration #  5     ecut=   120.00 Ry     beta= 0.70
     Davidson diagonalization with overlap
     ethr =  1.78E-04,  avg # of iterations =  1.5

     total cpu time spent up to now is       27.5 secs

     total energy              =    -534.96366457 Ry
     estimated scf accuracy    <       0.02387780 Ry

     iteration #  6     ecut=   120.00 Ry     beta= 0.70
     Davidson diagonalization with overlap
     ethr =  7.24E-05,  avg # of iterations =  2.0

     total cpu time spent up to now is       31.9 secs

     total energy              =    -534.96636655 Ry
     estimated scf accuracy    <       0.00059684 Ry

     iteration #  7     ecut=   120.00 Ry     beta= 0.70
     Davidson diagonalization with overlap
     ethr =  1.81E-06,  avg # of iterations =  3.7

     total cpu time spent up to now is       37.6 secs

     total energy              =    -534.96656242 Ry
     estimated scf accuracy    <       0.00016761 Ry

     iteration #  8     ecut=   120.00 Ry     beta= 0.70
     Davidson diagonalization with overlap
     ethr =  5.08E-07,  avg # of iterations =  1.4

     total cpu time spent up to now is       41.8 secs

     total energy              =    -534.96656358 Ry
     estimated scf accuracy    <       0.00002835 Ry

     iteration #  9     ecut=   120.00 Ry     beta= 0.70
     Davidson diagonalization with overlap
     ethr =  8.59E-08,  avg # of iterations =  2.4

     total cpu time spent up to now is       46.6 secs

     total energy              =    -534.96657017 Ry
     estimated scf accuracy    <       0.00000050 Ry

     iteration # 10     ecut=   120.00 Ry     beta= 0.70
     Davidson diagonalization with overlap
     ethr =  1.52E-09,  avg # of iterations =  4.1

     total cpu time spent up to now is       52.6 secs

     total energy              =    -534.96657046 Ry
     estimated scf accuracy    <       0.00000001 Ry

     iteration # 11     ecut=   120.00 Ry     beta= 0.70
     Davidson diagonalization with overlap
     ethr =  3.08E-11,  avg # of iterations =  4.3

     total cpu time spent up to now is       59.0 secs

     total energy              =    -534.96657047 Ry
     estimated scf accuracy    <       0.00000002 Ry

     iteration # 12     ecut=   120.00 Ry     beta= 0.70
     Davidson diagonalization with overlap
     ethr =  3.08E-11,  avg # of iterations =  2.1

     total cpu time spent up to now is       63.7 secs

     End of self-consistent calculation

          k = 0.0000 0.0000 0.0000 ( 12131 PWs)   bands (ev):

   -49.8412 -26.0578 -25.7925 -25.7151 -12.3814  -9.5182  -8.8288   0.6166
     2.4659   2.7366   2.8734   3.0039   3.4590   3.9425   4.2015   4.2830
     5.5048   7.2153   7.3551   8.6462   9.3879

     occupation numbers 
     1.0000   1.0000   1.0000   1.0000   1.0000   1.0000   1.0000   1.0000
     1.0000   1.0000   1.0000   1.0000   1.0000   1.0000   1.0000   1.0000
     1.0000  -0.0015  -0.0000  -0.0000  -0.0000

          k = 0.2496 0.2147 0.0000 ( 12121 PWs)   bands (ev):

   -49.8386 -26.0829 -25.7859 -25.7462 -12.1863  -9.4095  -8.8365   0.8281
     2.1217   2.2558   2.4433   2.9940   3.2922   3.5033   3.8832   4.0351
     5.9388   7.5249   7.5999   8.7504  10.0910

     occupation numbers 
     1.0000   1.0000   1.0000   1.0000   1.0000   1.0000   1.0000   1.0000
     1.0000   1.0000   1.0000   1.0000   1.0000   1.0000   1.0000   1.0000
     1.0000  -0.0000  -0.0000  -0.0000  -0.0000

          k = 0.4991 0.4293 0.0000 ( 12152 PWs)   bands (ev):

   -49.8322 -26.1416 -25.8201 -25.7700 -11.6874  -9.1321  -8.8586   1.1099
     1.4012   1.7327   1.8971   2.0067   2.1866   2.9229   3.8455   4.0133
     6.8099   8.1633   8.2736   9.1596  11.1497

     occupation numbers 
     1.0000   1.0000   1.0000   1.0000   1.0000   1.0000   1.0000   1.0000
     1.0000   1.0000   1.0000   1.0000   1.0000   1.0000   1.0000   1.0000
     0.5328  -0.0000  -0.0000  -0.0000  -0.0000

          k = 0.7487 0.6440 0.0000 ( 12176 PWs)   bands (ev):

   -49.8259 -26.1981 -25.8926 -25.7541 -11.1378  -8.8857  -8.8276  -0.0719
     0.9778   1.2641   1.6647   1.7788   2.1863   2.3103   3.5230   3.9755
     7.8673   8.8514   9.0590   9.5762  11.3805

     occupation numbers 
     1.0000   1.0000   1.0000   1.0000   1.0000   1.0000   1.0000   1.0000
     1.0000   1.0000   1.0000   1.0000   1.0000   1.0000   1.0000   1.0000
    -0.0000  -0.0000  -0.0000  -0.0000  -0.0000

          k =-0.9983-0.8586 0.0000 ( 12140 PWs)   bands (ev):

   -49.8233 -26.2208 -25.9222 -25.7475 -10.8905  -8.8984  -8.6910  -0.5607
     0.6051   0.9557   1.7499   1.8300   1.9829   2.5726   3.2692   3.8798
     8.4669   9.1823   9.3742   9.7676  11.4047

     occupation numbers 
     1.0000   1.0000   1.0000   1.0000   1.0000   1.0000   1.0000   1.0000
     1.0000   1.0000   1.0000   1.0000   1.0000   1.0000   1.0000   1.0000
    -0.0000  -0.0000  -0.0000  -0.0000  -0.0000

          k = 0.2496 0.0000 0.0677 ( 12148 PWs)   bands (ev):

   -49.8391 -26.0553 -25.7869 -25.7471 -12.3641  -9.4289  -8.8418   0.8062
     2.2496   2.6627   2.9508   3.0591   3.1022   3.8005   3.9330   4.1205
     5.9232   7.1248   7.2949   8.7305   9.7664

     occupation numbers 
     1.0000   1.0000   1.0000   1.0000   1.0000   1.0000   1.0000   1.0000
     1.0000   1.0000   1.0000   1.0000   1.0000   1.0000   1.0000   1.0000
     1.0000  -0.0112  -0.0001  -0.0000  -0.0000

          k = 0.4991 0.2147 0.0677 ( 12153 PWs)   bands (ev):

   -49.8334 -26.0766 -25.8225 -25.7724 -12.1452  -9.1892  -8.8602   1.2353
     1.9030   2.0824   2.2402   2.4849   2.8915   3.0649   3.8695   4.0701
     6.7586   7.3212   7.4391   9.1623  10.5515

     occupation numbers 
     1.0000   1.0000   1.0000   1.0000   1.0000   1.0000   1.0000   1.0000
     1.0000   1.0000   1.0000   1.0000   1.0000   1.0000   1.0000   1.0000
     0.7790  -0.0001  -0.0000  -0.0000  -0.0000

          k = 0.7487 0.4293 0.0677 ( 12179 PWs)   bands (ev):

   -49.8271 -26.1349 -25.8952 -25.7564 -11.6480  -8.9107  -8.8640   1.0914
     1.2396   1.4421   1.6810   1.9121   2.2616   2.5425   3.7129   4.1140
     7.7186   8.0644   8.1707   9.6535  11.1252

     occupation numbers 
     1.0000   1.0000   1.0000   1.0000   1.0000   1.0000   1.0000   1.0000
     1.0000   1.0000   1.0000   1.0000   1.0000   1.0000   1.0000   1.0000
    -0.0000  -0.0000  -0.0000  -0.0000  -0.0000

          k = 0.9983 0.6440 0.0677 ( 12173 PWs)   bands (ev):

   -49.8238 -26.1951 -25.9233 -25.7485 -11.1223  -8.9105  -8.7043  -0.0592
     0.7501   0.9305   1.5586   1.9412   2.2113   2.6028   3.3440   3.9450
     8.4546   8.7786   9.0179   9.7520  11.2796

     occupation numbers 
     1.0000   1.0000   1.0000   1.0000   1.0000   1.0000   1.0000   1.0000
     1.0000   1.0000   1.0000   1.0000   1.0000   1.0000   1.0000   1.0000
    -0.0000  -0.0000  -0.0000  -0.0000  -0.0000

          k =-0.7487-0.8586 0.0677 ( 12172 PWs)   bands (ev):

   -49.8254 -26.2238 -25.8915 -25.7532 -10.9052  -8.9044  -8.7818  -0.5714
     0.7912   1.2450   1.4371   1.8052   2.3301   2.4022   3.4322   3.8228
     7.9189   9.2333   9.4226   9.4870  11.3402

     occupation numbers 
     1.0000   1.0000   1.0000   1.0000   1.0000   1.0000   1.0000   1.0000
     1.0000   1.0000   1.0000   1.0000   1.0000   1.0000   1.0000   1.0000
    -0.0000  -0.0000  -0.0000  -0.0000  -0.0000

          k =-0.4991-0.6440 0.0677 ( 12166 PWs)   bands (ev):

   -49.8311 -26.2052 -25.8177 -25.7677 -11.1746  -9.0562  -8.8770  -0.1011
     1.3238   1.4611   1.5709   1.8786   2.1359   2.9311   3.7148   3.8065
     6.8864   8.9651   9.0519   9.2206  11.4237

     occupation numbers 
     1.0000   1.0000   1.0000   1.0000   1.0000   1.0000   1.0000   1.0000
     1.0000   1.0000   1.0000   1.0000   1.0000   1.0000   1.0000   1.0000
     0.1708  -0.0000  -0.0000  -0.0000  -0.0000

          k =-0.2496-0.4293 0.0677 ( 12135 PWs)   bands (ev):

   -49.8374 -26.1483 -25.7835 -25.7440 -11.7266  -9.3412  -8.8501   0.9165
     1.1322   1.4946   2.2525   2.5199   3.1832   3.4087   3.7280   3.9157
     6.0033   8.3722   8.4033   8.7855  10.6487

     occupation numbers 
     1.0000   1.0000   1.0000   1.0000   1.0000   1.0000   1.0000   1.0000
     1.0000   1.0000   1.0000   1.0000   1.0000   1.0000   1.0000   1.0000
     1.0000  -0.0000  -0.0000  -0.0000  -0.0000

          k = 0.0000-0.2147 0.0677 ( 12112 PWs)   bands (ev):

   -49.8407 -26.0855 -25.7915 -25.7142 -12.2032  -9.4879  -8.8375   0.6691
     2.0624   2.4317   2.4884   3.2938   3.3570   3.7537   3.9563   4.1602
     5.5335   7.6403   7.6649   8.6757   9.7240

     occupation numbers 
     1.0000   1.0000   1.0000   1.0000   1.0000   1.0000   1.0000   1.0000
     1.0000   1.0000   1.0000   1.0000   1.0000   1.0000   1.0000   1.0000
     1.0000  -0.0000  -0.0000  -0.0000  -0.0000

          k = 0.4991 0.0000 0.1354 ( 12156 PWs)   bands (ev):

   -49.8339 -26.0493 -25.8235 -25.7733 -12.3225  -9.2061  -8.8679   1.1833
     1.9250   2.0242   2.4798   3.0496   3.3263   3.4624   3.7849   3.9088
     6.7878   6.9376   7.0955   9.1037  10.1132

     occupation numbers 
     1.0000   1.0000   1.0000   1.0000   1.0000   1.0000   1.0000   1.0000
     1.0000   1.0000   1.0000   1.0000   1.0000   1.0000   1.0000   1.0000
     0.6448   0.0259  -0.0181  -0.0000  -0.0000

          k = 0.7487 0.2147 0.1354 ( 12169 PWs)   bands (ev):

   -49.8282 -26.0704 -25.8977 -25.7587 -12.1043  -8.9710  -8.8629   1.0788
     1.4580   1.8246   2.0170   2.6174   2.7650   3.1396   3.8329   4.0161
     7.0923   7.2277   7.8517   9.6434  10.4503

     occupation numbers 
     1.0000   1.0000   1.0000   1.0000   1.0000   1.0000   1.0000   1.0000
     1.0000   1.0000   1.0000   1.0000   1.0000   1.0000   1.0000   1.0000
    -0.0189  -0.0011  -0.0000  -0.0000  -0.0000

          k = 0.9983 0.4293 0.1354 ( 12163 PWs)   bands (ev):

   -49.8249 -26.1321 -25.9260 -25.7508 -11.6315  -8.9392  -8.7361   0.7675
     1.2164   1.2400   1.4285   1.9512   2.6337   2.8137   3.5536   4.0446
     7.8512   8.1194   8.4573   9.7354  10.8993

     occupation numbers 
     1.0000   1.0000   1.0000   1.0000   1.0000   1.0000   1.0000   1.0000
     1.0000   1.0000   1.0000   1.0000   1.0000   1.0000   1.0000   1.0000
    -0.0000  -0.0000  -0.0000  -0.0000  -0.0000

          k = 1.2479 0.6440 0.1354 ( 12184 PWs)   bands (ev):

   -49.8259 -26.1981 -25.8926 -25.7541 -11.1375  -8.9416  -8.7676  -0.0722
     0.9217   1.1569   1.3356   1.9079   2.5118   2.5797   3.5035   3.8060
     7.9356   8.8353   9.0642   9.4133  11.1830

     occupation numbers 
     1.0000   1.0000   1.0000   1.0000   1.0000   1.0000   1.0000   1.0000
     1.0000   1.0000   1.0000   1.0000   1.0000   1.0000   1.0000   1.0000
    -0.0000  -0.0000  -0.0000  -0.0000  -0.0000

          k =-0.4991-0.8586 0.1354 ( 12184 PWs)   bands (ev):

   -49.8306 -26.2311 -25.8167 -25.7667 -10.9403  -8.9906  -8.9199  -0.5972
     1.1758   1.2213   1.7231   1.8015   2.1812   2.9628   3.5790   3.7467
     6.9404   8.9597   9.4192   9.5174  11.4683

     occupation numbers 
     1.0000   1.0000   1.0000   1.0000   1.0000   1.0000   1.0000   1.0000
     1.0000   1.0000   1.0000   1.0000   1.0000   1.0000   1.0000   1.0000
     0.0206  -0.0000  -0.0000  -0.0000  -0.0000

          k =-0.2496-0.6440 0.1354 ( 12161 PWs)   bands (ev):

   -49.8362 -26.2123 -25.7811 -25.7418 -11.2108  -9.2514  -8.8897  -0.1293
     0.9538   1.2478   2.0108   2.2590   2.9736   3.3195   3.5278   3.9362
     6.0719   8.7650   9.2204   9.2531  11.0500

     occupation numbers 
     1.0000   1.0000   1.0000   1.0000   1.0000   1.0000   1.0000   1.0000
     1.0000   1.0000   1.0000   1.0000   1.0000   1.0000   1.0000   1.0000
     1.0000  -0.0000  -0.0000  -0.0000  -0.0000

          k = 0.0000-0.4293 0.1354 ( 12137 PWs)   bands (ev):

   -49.8395 -26.1511 -25.7891 -25.7121 -11.7426  -9.4082  -8.8664   0.7806
     1.1087   1.4387   2.5449   2.9037   3.0140   3.5511   3.9518   4.0105
     5.5887   8.4237   8.5347   8.7477  10.3241

     occupation numbers 
     1.0000   1.0000   1.0000   1.0000   1.0000   1.0000   1.0000   1.0000
     1.0000   1.0000   1.0000   1.0000   1.0000   1.0000   1.0000   1.0000
     1.0000  -0.0000  -0.0000  -0.0000  -0.0000

          k = 0.2496-0.2147 0.1354 ( 12130 PWs)   bands (ev):

   -49.8386 -26.0829 -25.7859 -25.7462 -12.1860  -9.3905  -8.8596   0.8842
     2.1372   2.2506   2.4544   2.9577   3.2049   3.4973   3.8605   4.0662
     5.9623   7.5188   7.6176   8.7325  10.1562

     occupation numbers 
     1.0000   1.0000   1.0000   1.0000   1.0000   1.0000   1.0000   1.0000
     1.0000   1.0000   1.0000   1.0000   1.0000   1.0000   1.0000   1.0000
     1.0000  -0.0000  -0.0000  -0.0000  -0.0000

          k = 0.7487 0.0000 0.2031 ( 12173 PWs)   bands (ev):

   -49.8287 -26.0432 -25.8988 -25.7597 -12.2811  -9.0091  -8.8475   1.0096
     1.3336   1.9956   2.0961   3.1695   3.4407   3.5786   3.7291   3.7606
     6.7808   6.7956   7.8394   9.5464   9.9789

     occupation numbers 
     1.0000   1.0000   1.0000   1.0000   1.0000   1.0000   1.0000   1.0000
     1.0000   1.0000   1.0000   1.0000   1.0000   1.0000   1.0000   1.0000
     0.6790   0.6061  -0.0000  -0.0000  -0.0000

          k = 0.9983 0.2147 0.2031 ( 12179 PWs)   bands (ev):

   -49.8261 -26.0678 -25.9286 -25.7531 -12.0873  -8.9676  -8.7673   0.6970
     1.3338   1.7680   1.9292   2.6863   2.9043   3.4018   3.8041   3.9306
     7.0317   7.1200   8.4338   9.6745  10.3109

     occupation numbers 
     1.0000   1.0000   1.0000   1.0000   1.0000   1.0000   1.0000   1.0000
     1.0000   1.0000   1.0000   1.0000   1.0000   1.0000   1.0000   1.0000
    -0.0342  -0.0122  -0.0000  -0.0000  -0.0000

          k = 1.2479 0.4293 0.2031 ( 12170 PWs)   bands (ev):

   -49.8271 -26.1349 -25.8952 -25.7564 -11.6477  -8.9839  -8.7851   1.0043
     1.1818   1.2991   1.3941   2.0969   2.6505   2.8086   3.6919   3.9530
     7.8586   7.9904   8.1753   9.4054  10.8605

     occupation numbers 
     1.0000   1.0000   1.0000   1.0000   1.0000   1.0000   1.0000   1.0000
     1.0000   1.0000   1.0000   1.0000   1.0000   1.0000   1.0000   1.0000
    -0.0000  -0.0000  -0.0000  -0.0000  -0.0000

          k = 1.4974 0.6440 0.2031 ( 12175 PWs)   bands (ev):

   -49.8311 -26.2052 -25.8177 -25.7677 -11.1741  -9.0213  -8.9126  -0.1023
     1.2548   1.3212   1.6930   1.8478   2.2864   3.0106   3.5552   3.8699
     6.9449   8.8552   9.1185   9.1540  11.3581

     occupation numbers 
     1.0000   1.0000   1.0000   1.0000   1.0000   1.0000   1.0000   1.0000
     1.0000   1.0000   1.0000   1.0000   1.0000   1.0000   1.0000   1.0000
     0.0130  -0.0000  -0.0000  -0.0000  -0.0000

          k =-0.2496-0.8586 0.2031 ( 12167 PWs)   bands (ev):

   -49.8357 -26.2384 -25.7802 -25.7409 -10.9746  -9.1871  -8.9371  -0.6228
     0.8389   1.4198   1.7747   2.1692   2.8873   3.2248   3.4799   3.9637
     6.1088   8.7798   9.5695   9.5997  11.2110

     occupation numbers 
     1.0000   1.0000   1.0000   1.0000   1.0000   1.0000   1.0000   1.0000
     1.0000   1.0000   1.0000   1.0000   1.0000   1.0000   1.0000   1.0000
     1.0000  -0.0000  -0.0000  -0.0000  -0.0000

          k = 0.0000-0.6440 0.2031 ( 12156 PWs)   bands (ev):

   -49.8383 -26.2153 -25.7867 -25.7100 -11.2255  -9.3135  -8.9138  -0.1413
     0.7861   1.2385   2.4068   2.5596   2.6079   3.4587   3.9248   3.9850
     5.6424   8.8186   9.2227   9.3603  10.7874

     occupation numbers 
     1.0000   1.0000   1.0000   1.0000   1.0000   1.0000   1.0000   1.0000
     1.0000   1.0000   1.0000   1.0000   1.0000   1.0000   1.0000   1.0000
     1.0000  -0.0000  -0.0000  -0.0000  -0.0000

          k = 0.2496-0.4293 0.2031 ( 12155 PWs)   bands (ev):

   -49.8374 -26.1483 -25.7836 -25.7440 -11.7261  -9.3069  -8.8905   0.9617
     1.1569   1.5898   2.1769   2.5416   2.9607   3.4647   3.5774   4.0744
     6.0328   8.3921   8.4014   8.7610  10.7490

     occupation numbers 
     1.0000   1.0000   1.0000   1.0000   1.0000   1.0000   1.0000   1.0000
     1.0000   1.0000   1.0000   1.0000   1.0000   1.0000   1.0000   1.0000
     1.0000  -0.0000  -0.0000  -0.0000  -0.0000

          k = 0.4991-0.2147 0.2031 ( 12152 PWs)   bands (ev):

   -49.8334 -26.0766 -25.8225 -25.7724 -12.1449  -9.1751  -8.8749   1.2085
     1.8872   1.9442   2.3076   2.5177   2.9326   3.1627   3.8417   4.0820
     6.8139   7.2868   7.4535   9.0314  10.4943

     occupation numbers 
     1.0000   1.0000   1.0000   1.0000   1.0000   1.0000   1.0000   1.0000
     1.0000   1.0000   1.0000   1.0000   1.0000   1.0000   1.0000   1.0000
     0.5118  -0.0002  -0.0000  -0.0000  -0.0000

          k =-0.9983 0.0000-0.2708 ( 12202 PWs)   bands (ev):

   -49.8266 -26.0407 -25.9297 -25.7541 -12.2640  -8.9793  -8.7800   0.6632
     1.3137   1.8903   2.0427   3.3078   3.4077   3.5005   3.7823   3.9221
     6.6039   6.7451   8.4214   9.5362  10.0277

     occupation numbers 
     1.0000   1.0000   1.0000   1.0000   1.0000   1.0000   1.0000   1.0000
     1.0000   1.0000   1.0000   1.0000   1.0000   1.0000   1.0000   1.0000
     1.0347   0.8326  -0.0000  -0.0000  -0.0000

          k =-0.7487 0.2147-0.2708 ( 12174 PWs)   bands (ev):

   -49.8282 -26.0704 -25.8977 -25.7588 -12.1041  -9.0118  -8.8181   0.9973
     1.2696   1.8238   2.1575   2.6355   2.8941   3.2509   3.8076   4.0103
     7.0813   7.2217   7.8819   9.4623  10.3175

     occupation numbers 
     1.0000   1.0000   1.0000   1.0000   1.0000   1.0000   1.0000   1.0000
     1.0000   1.0000   1.0000   1.0000   1.0000   1.0000   1.0000   1.0000
    -0.0220  -0.0012  -0.0000  -0.0000  -0.0000

          k =-0.4991 0.4293-0.2708 ( 12174 PWs)   bands (ev):

   -49.8322 -26.1416 -25.8201 -25.7700 -11.6868  -9.1054  -8.8862   1.0917
     1.3093   1.6903   1.8856   1.9355   2.4025   3.0821   3.6929   4.0580
     6.8933   8.1339   8.2974   8.9872  11.0542

     occupation numbers 
     1.0000   1.0000   1.0000   1.0000   1.0000   1.0000   1.0000   1.0000
     1.0000   1.0000   1.0000   1.0000   1.0000   1.0000   1.0000   1.0000
     0.1457  -0.0000  -0.0000  -0.0000  -0.0000

          k =-0.2496 0.6440-0.2708 ( 12165 PWs)   bands (ev):

   -49.8362 -26.2123 -25.7812 -25.7418 -11.2104  -9.2149  -8.9308  -0.1305
     0.9465   1.4636   1.8440   2.2680   2.8830   3.2750   3.5005   4.0197
     6.0938   8.7704   9.2088   9.2556  11.1178

     occupation numbers 
     1.0000   1.0000   1.0000   1.0000   1.0000   1.0000   1.0000   1.0000
     1.0000   1.0000   1.0000   1.0000   1.0000   1.0000   1.0000   1.0000
     1.0000  -0.0000  -0.0000  -0.0000  -0.0000

          k =-1.9966-0.8586-0.2708 ( 12134 PWs)   bands (ev):

   -49.8378 -26.2415 -25.7857 -25.7091 -10.9886  -9.2654  -8.9446  -0.6334
     0.6862   1.3313   2.1200   2.4335   2.6325   3.4173   3.8950   3.9817
     5.6648   8.8487   9.5733   9.6980  10.9578

     occupation numbers 
     1.0000   1.0000   1.0000   1.0000   1.0000   1.0000   1.0000   1.0000
     1.0000   1.0000   1.0000   1.0000   1.0000   1.0000   1.0000   1.0000
     1.0000  -0.0000  -0.0000  -0.0000  -0.0000

          k = 0.4991 0.4293 0.1354 ( 12160 PWs)   bands (ev):

   -49.8322 -26.1416 -25.8201 -25.7700 -11.6872  -9.1249  -8.8661   1.1041
     1.3659   1.7504   1.8351   2.0657   2.1921   2.9845   3.7941   4.0335
     6.8334   8.1498   8.2840   9.1097  11.1260

     occupation numbers 
     1.0000   1.0000   1.0000   1.0000   1.0000   1.0000   1.0000   1.0000
     1.0000   1.0000   1.0000   1.0000   1.0000   1.0000   1.0000   1.0000
     0.4115  -0.0000  -0.0000  -0.0000  -0.0000

          k = 0.7487 0.6440 0.1354 ( 12164 PWs)   bands (ev):

   -49.8259 -26.1981 -25.8926 -25.7541 -11.1377  -8.9010  -8.8116  -0.0720
     0.9708   1.2298   1.6443   1.7353   2.2831   2.3588   3.5171   3.9483
     7.8796   8.8394   9.0590   9.5573  11.3617

     occupation numbers 
     1.0000   1.0000   1.0000   1.0000   1.0000   1.0000   1.0000   1.0000
     1.0000   1.0000   1.0000   1.0000   1.0000   1.0000   1.0000   1.0000
    -0.0000  -0.0000  -0.0000  -0.0000  -0.0000

          k = 0.9983 0.8586 0.1354 ( 12170 PWs)   bands (ev):

   -49.8233 -26.2208 -25.9222 -25.7475 -10.8905  -8.8984  -8.6910  -0.5607
     0.6194   0.9259   1.7731   1.8620   1.9488   2.5843   3.2254   3.9080
     8.4685   9.1840   9.3838   9.7389  11.3857

     occupation numbers 
     1.0000   1.0000   1.0000   1.0000   1.0000   1.0000   1.0000   1.0000
     1.0000   1.0000   1.0000   1.0000   1.0000   1.0000   1.0000   1.0000
    -0.0000  -0.0000  -0.0000  -0.0000  -0.0000

          k = 0.0000 0.0000 0.1354 ( 12125 PWs)   bands (ev):

   -49.8412 -26.0578 -25.7925 -25.7151 -12.3811  -9.4954  -8.8578   0.6949
     2.4900   2.7057   2.8460   3.0593   3.4456   3.8229   4.1548   4.2476
     5.5226   7.2154   7.3852   8.6979   9.4800

     occupation numbers 
     1.0000   1.0000   1.0000   1.0000   1.0000   1.0000   1.0000   1.0000
     1.0000   1.0000   1.0000   1.0000   1.0000   1.0000   1.0000   1.0000
     1.0000  -0.0015  -0.0000  -0.0000  -0.0000

          k = 0.7487 0.4293 0.2031 ( 12170 PWs)   bands (ev):

   -49.8271 -26.1349 -25.8952 -25.7564 -11.6478  -8.9525  -8.8198   1.0534
     1.2093   1.4129   1.4965   1.9876   2.4686   2.6471   3.7005   4.0551
     7.7720   8.0331   8.1721   9.5533  11.0188

     occupation numbers 
     1.0000   1.0000   1.0000   1.0000   1.0000   1.0000   1.0000   1.0000
     1.0000   1.0000   1.0000   1.0000   1.0000   1.0000   1.0000   1.0000
    -0.0000  -0.0000  -0.0000  -0.0000  -0.0000

          k = 0.9983 0.6440 0.2031 ( 12179 PWs)   bands (ev):

   -49.8238 -26.1951 -25.9233 -25.7485 -11.1223  -8.9104  -8.7043  -0.0592
     0.7826   0.8782   1.6399   1.8532   2.2245   2.6418   3.2904   3.9748
     8.4630   8.7742   9.0246   9.7201  11.2703

     occupation numbers 
     1.0000   1.0000   1.0000   1.0000   1.0000   1.0000   1.0000   1.0000
     1.0000   1.0000   1.0000   1.0000   1.0000   1.0000   1.0000   1.0000
    -0.0000  -0.0000  -0.0000  -0.0000  -0.0000

          k = 1.2479 0.8586 0.2031 ( 12154 PWs)   bands (ev):

   -49.8254 -26.2238 -25.8915 -25.7532 -10.9052  -8.9044  -8.7818  -0.5714
     0.7947   1.2121   1.5382   1.6985   2.3644   2.4113   3.4286   3.8172
     7.9198   9.1956   9.4279   9.5184  11.3790

     occupation numbers 
     1.0000   1.0000   1.0000   1.0000   1.0000   1.0000   1.0000   1.0000
     1.0000   1.0000   1.0000   1.0000   1.0000   1.0000   1.0000   1.0000
    -0.0000  -0.0000  -0.0000  -0.0000  -0.0000

          k =-0.4991-0.6440 0.2031 ( 12177 PWs)   bands (ev):

   -49.8311 -26.2052 -25.8177 -25.7677 -11.1744  -9.0438  -8.8897  -0.1016
     1.2914   1.3908   1.6101   1.9252   2.1588   2.9727   3.6272   3.8535
     6.9099   8.8927   9.1140   9.1861  11.4054

     occupation numbers 
     1.0000   1.0000   1.0000   1.0000   1.0000   1.0000   1.0000   1.0000
     1.0000   1.0000   1.0000   1.0000   1.0000   1.0000   1.0000   1.0000
     0.0921  -0.0000  -0.0000  -0.0000  -0.0000

          k = 0.0000-0.2147 0.2031 ( 12117 PWs)   bands (ev):

   -49.8407 -26.0855 -25.7916 -25.7142 -12.2026  -9.4440  -8.8922   0.8131
     2.1024   2.4296   2.5320   3.1516   3.2797   3.5628   4.0587   4.0896
     5.5497   7.6399   7.6880   8.7640   9.9068

     occupation numbers 
     1.0000   1.0000   1.0000   1.0000   1.0000   1.0000   1.0000   1.0000
     1.0000   1.0000   1.0000   1.0000   1.0000   1.0000   1.0000   1.0000
     1.0000  -0.0000  -0.0000  -0.0000  -0.0000

          k = 0.2496 0.0000 0.2031 ( 12145 PWs)   bands (ev):

   -49.8391 -26.0553 -25.7869 -25.7471 -12.3636  -9.3907  -8.8879   0.9246
     2.2548   2.5872   2.8859   3.0461   3.1761   3.6987   3.9597   4.0487
     5.9760   7.1048   7.3417   8.7027   9.8635

     occupation numbers 
     1.0000   1.0000   1.0000   1.0000   1.0000   1.0000   1.0000   1.0000
     1.0000   1.0000   1.0000   1.0000   1.0000   1.0000   1.0000   1.0000
     1.0000  -0.0157  -0.0000  -0.0000  -0.0000

          k = 0.9983 0.4293 0.2708 ( 12166 PWs)   bands (ev):

   -49.8249 -26.1321 -25.9260 -25.7508 -11.6315  -8.9392  -8.7361   0.7545
     1.2161   1.2386   1.5063   1.8609   2.6210   2.8725   3.5268   4.0529
     7.8600   8.1210   8.4506   9.7125  10.9184

     occupation numbers 
     1.0000   1.0000   1.0000   1.0000   1.0000   1.0000   1.0000   1.0000
     1.0000   1.0000   1.0000   1.0000   1.0000   1.0000   1.0000   1.0000
    -0.0000  -0.0000  -0.0000  -0.0000  -0.0000

          k = 1.2479 0.6440 0.2708 ( 12163 PWs)   bands (ev):

   -49.8259 -26.1981 -25.8926 -25.7541 -11.1376  -8.9246  -8.7863  -0.0721
     0.9505   1.1726   1.4835   1.8144   2.4239   2.4737   3.5063   3.8799
     7.9085   8.8244   9.0610   9.4971  11.2891

     occupation numbers 
     1.0000   1.0000   1.0000   1.0000   1.0000   1.0000   1.0000   1.0000
     1.0000   1.0000   1.0000   1.0000   1.0000   1.0000   1.0000   1.0000
    -0.0000  -0.0000  -0.0000  -0.0000  -0.0000

          k = 1.4974 0.8586 0.2708 ( 12186 PWs)   bands (ev):

   -49.8306 -26.2311 -25.8167 -25.7667 -10.9403  -8.9906  -8.9199  -0.5972
     1.1914   1.2052   1.7095   1.8096   2.1960   2.9507   3.5707   3.7585
     6.9400   8.9499   9.4394   9.5085  11.4803

     occupation numbers 
     1.0000   1.0000   1.0000   1.0000   1.0000   1.0000   1.0000   1.0000
     1.0000   1.0000   1.0000   1.0000   1.0000   1.0000   1.0000   1.0000
     0.0213  -0.0000  -0.0000  -0.0000  -0.0000

          k = 0.0000-0.4293 0.2708 ( 12158 PWs)   bands (ev):

   -49.8395 -26.1511 -25.7892 -25.7121 -11.7419  -9.3501  -8.9358   0.8939
     1.1419   1.5745   2.5925   2.6230   2.8996   3.3863   3.9273   4.1547
     5.6006   8.4146   8.5335   8.8364  10.5412

     occupation numbers 
     1.0000   1.0000   1.0000   1.0000   1.0000   1.0000   1.0000   1.0000
     1.0000   1.0000   1.0000   1.0000   1.0000   1.0000   1.0000   1.0000
     1.0000  -0.0000  -0.0000  -0.0000  -0.0000

          k = 0.2496-0.2147 0.2708 ( 12146 PWs)   bands (ev):

   -49.8386 -26.0829 -25.7860 -25.7462 -12.1853  -9.3360  -8.9237   1.0453
     2.1079   2.2753   2.4696   2.8372   3.1156   3.4561   3.7850   4.1148
     6.0172   7.5106   7.6480   8.7231  10.2784

     occupation numbers 
     1.0000   1.0000   1.0000   1.0000   1.0000   1.0000   1.0000   1.0000
     1.0000   1.0000   1.0000   1.0000   1.0000   1.0000   1.0000   1.0000
     1.0000  -0.0000  -0.0000  -0.0000  -0.0000

          k = 0.4991 0.0000 0.2708 ( 12154 PWs)   bands (ev):

   -49.8339 -26.0493 -25.8235 -25.7734 -12.3221  -9.1865  -8.8881   1.1662
     1.7849   2.0237   2.5637   2.9848   3.4469   3.5427   3.8485   3.8659
     6.8555   6.8874   7.1095   8.9217  10.0337

     occupation numbers 
     1.0000   1.0000   1.0000   1.0000   1.0000   1.0000   1.0000   1.0000
     1.0000   1.0000   1.0000   1.0000   1.0000   1.0000   1.0000   1.0000
     0.3028   0.1670  -0.0146  -0.0000  -0.0000

          k =-1.9966-0.6440-0.2031 ( 12169 PWs)   bands (ev):

   -49.8383 -26.2153 -25.7867 -25.7100 -11.2250  -9.2631  -8.9712  -0.1429
     0.8486   1.3886   2.2003   2.5590   2.6378   3.2636   3.8725   4.1457
     5.6486   8.8706   9.2139   9.3596  10.9061

     occupation numbers 
     1.0000   1.0000   1.0000   1.0000   1.0000   1.0000   1.0000   1.0000
     1.0000   1.0000   1.0000   1.0000   1.0000   1.0000   1.0000   1.0000
     1.0000  -0.0000  -0.0000  -0.0000  -0.0000

          k =-1.7470-0.4293-0.2031 ( 12164 PWs)   bands (ev):

   -49.8374 -26.1483 -25.7836 -25.7440 -11.7254  -9.2423  -8.9635   1.0111
     1.2510   1.7343   1.9985   2.5337   2.8801   3.3834   3.4235   4.2205
     6.0750   8.3783   8.4089   8.7780  10.8683

     occupation numbers 
     1.0000   1.0000   1.0000   1.0000   1.0000   1.0000   1.0000   1.0000
     1.0000   1.0000   1.0000   1.0000   1.0000   1.0000   1.0000   1.0000
     1.0000  -0.0000  -0.0000  -0.0000  -0.0000

          k =-1.4974-0.2147-0.2031 ( 12140 PWs)   bands (ev):

   -49.8334 -26.0766 -25.8225 -25.7724 -12.1445  -9.1523  -8.8984   1.1978
     1.6783   1.9710   2.3803   2.5394   3.0342   3.2504   3.7849   4.1063
     6.9019   7.2534   7.4606   8.8564  10.3942

     occupation numbers 
     1.0000   1.0000   1.0000   1.0000   1.0000   1.0000   1.0000   1.0000
     1.0000   1.0000   1.0000   1.0000   1.0000   1.0000   1.0000   1.0000
     0.1164  -0.0005  -0.0000  -0.0000  -0.0000

          k =-1.2479 0.0000-0.2031 ( 12202 PWs)   bands (ev):

   -49.8287 -26.0432 -25.8988 -25.7597 -12.2809  -9.0445  -8.8075   0.9334
     1.1533   2.0140   2.2750   3.1270   3.5568   3.5667   3.7909   3.8484
     6.7407   6.7712   7.8888   9.3425   9.8425

     occupation numbers 
     1.0000   1.0000   1.0000   1.0000   1.0000   1.0000   1.0000   1.0000
     1.0000   1.0000   1.0000   1.0000   1.0000   1.0000   1.0000   1.0000
     0.8488   0.7238  -0.0000  -0.0000  -0.0000

          k = 0.0000 0.8586-0.1354 ( 12137 PWs)   bands (ev):

   -49.8378 -26.2415 -25.7857 -25.7091 -10.9886  -9.2654  -8.9446  -0.6334
     0.7405   1.1820   2.3376   2.4336   2.6324   3.1846   3.8950   4.0977
     5.6604   8.8487   9.5830   9.6979  10.9158

     occupation numbers 
     1.0000   1.0000   1.0000   1.0000   1.0000   1.0000   1.0000   1.0000
     1.0000   1.0000   1.0000   1.0000   1.0000   1.0000   1.0000   1.0000
     1.0000  -0.0000  -0.0000  -0.0000  -0.0000

          k =-1.7470-0.6440-0.1354 ( 12171 PWs)   bands (ev):

   -49.8362 -26.2123 -25.7812 -25.7418 -11.2100  -9.1625  -8.9876  -0.1317
     1.0340   1.4553   1.8651   2.2193   2.9280   3.1786   3.3437   4.1496
     6.1122   8.7630   9.2264   9.2549  11.1727

     occupation numbers 
     1.0000   1.0000   1.0000   1.0000   1.0000   1.0000   1.0000   1.0000
     1.0000   1.0000   1.0000   1.0000   1.0000   1.0000   1.0000   1.0000
     1.0000  -0.0000  -0.0000  -0.0000  -0.0000

          k =-1.4974-0.4293-0.1354 ( 12163 PWs)   bands (ev):

   -49.8322 -26.1416 -25.8201 -25.7701 -11.6865  -9.0813  -8.9108   1.0833
     1.2749   1.6242   1.7943   1.9880   2.6099   3.1229   3.6019   4.0704
     6.9577   8.1423   8.2948   8.8606  10.9633

     occupation numbers 
     1.0000   1.0000   1.0000   1.0000   1.0000   1.0000   1.0000   1.0000
     1.0000   1.0000   1.0000   1.0000   1.0000   1.0000   1.0000   1.0000
    -0.0052  -0.0000  -0.0000  -0.0000  -0.0000

          k =-1.2479-0.2147-0.1354 ( 12175 PWs)   bands (ev):

   -49.8282 -26.0704 -25.8977 -25.7588 -12.1040  -9.0389  -8.7871   0.9415
     1.1184   1.7932   2.2952   2.6354   3.0115   3.3674   3.8070   3.9750
     7.0682   7.2170   7.9257   9.2869  10.1705

     occupation numbers 
     1.0000   1.0000   1.0000   1.0000   1.0000   1.0000   1.0000   1.0000
     1.0000   1.0000   1.0000   1.0000   1.0000   1.0000   1.0000   1.0000
    -0.0257  -0.0014  -0.0000  -0.0000  -0.0000

          k =-0.9983 0.0000-0.1354 ( 12175 PWs)   bands (ev):

   -49.8266 -26.0407 -25.9297 -25.7541 -12.2640  -8.9792  -8.7800   0.6811
     1.2602   1.9092   2.0703   3.3075   3.4081   3.5150   3.7531   3.9217
     6.6105   6.7384   8.4248   9.6039   9.9513

     occupation numbers 
     1.0000   1.0000   1.0000   1.0000   1.0000   1.0000   1.0000   1.0000
     1.0000   1.0000   1.0000   1.0000   1.0000   1.0000   1.0000   1.0000
     1.0353   0.8569  -0.0000  -0.0000  -0.0000

          k = 0.0000 0.6440-0.0677 ( 12143 PWs)   bands (ev):

   -49.8383 -26.2153 -25.7867 -25.7100 -11.2259  -9.3416  -8.8807  -0.1403
     0.8334   1.0138   2.5617   2.5861   2.8034   3.2231   3.9609   4.0276
     5.6333   8.7820   9.2436   9.3606  10.6650

     occupation numbers 
     1.0000   1.0000   1.0000   1.0000   1.0000   1.0000   1.0000   1.0000
     1.0000   1.0000   1.0000   1.0000   1.0000   1.0000   1.0000   1.0000
     1.0000  -0.0000  -0.0000  -0.0000  -0.0000

          k = 0.2496 0.8586-0.0677 ( 12173 PWs)   bands (ev):

   -49.8357 -26.2384 -25.7802 -25.7409 -10.9746  -9.1870  -8.9371  -0.6228
     0.9108   1.2218   1.9461   2.1458   2.9891   3.1526   3.3574   4.0371
     6.1050   8.7786   9.5829   9.5959  11.2014

     occupation numbers 
     1.0000   1.0000   1.0000   1.0000   1.0000   1.0000   1.0000   1.0000
     1.0000   1.0000   1.0000   1.0000   1.0000   1.0000   1.0000   1.0000
     1.0000  -0.0000  -0.0000  -0.0000  -0.0000

          k =-1.4974-0.6440-0.0677 ( 12172 PWs)   bands (ev):

   -49.8311 -26.2052 -25.8177 -25.7677 -11.1739  -8.9962  -8.9381  -0.1028
     1.2277   1.2946   1.7539   1.7807   2.3714   3.0332   3.5142   3.8695
     6.9710   8.8577   9.0511   9.1725  11.3093

     occupation numbers 
     1.0000   1.0000   1.0000   1.0000   1.0000   1.0000   1.0000   1.0000
     1.0000   1.0000   1.0000   1.0000   1.0000   1.0000   1.0000   1.0000
    -0.0189  -0.0000  -0.0000  -0.0000  -0.0000

          k =-1.2479-0.4293-0.0677 ( 12169 PWs)   bands (ev):

   -49.8271 -26.1349 -25.8952 -25.7565 -11.6476  -9.0006  -8.7660   0.9812
     1.1519   1.1948   1.3830   2.1650   2.7655   2.9152   3.7139   3.8450
     7.9295   7.9622   8.1785   9.2941  10.7420

     occupation numbers 
     1.0000   1.0000   1.0000   1.0000   1.0000   1.0000   1.0000   1.0000
     1.0000   1.0000   1.0000   1.0000   1.0000   1.0000   1.0000   1.0000
    -0.0000  -0.0000  -0.0000  -0.0000  -0.0000

          k =-0.9983-0.2147-0.0677 ( 12179 PWs)   bands (ev):

   -49.8261 -26.0678 -25.9286 -25.7531 -12.0873  -8.9676  -8.7673   0.7231
     1.2642   1.7152   2.0595   2.6828   2.8952   3.3624   3.8218   3.9294
     7.0280   7.1174   8.4396   9.7454  10.2295

     occupation numbers 
     1.0000   1.0000   1.0000   1.0000   1.0000   1.0000   1.0000   1.0000
     1.0000   1.0000   1.0000   1.0000   1.0000   1.0000   1.0000   1.0000
    -0.0347  -0.0128  -0.0000  -0.0000  -0.0000

          k =-0.7487 0.0000-0.0677 ( 12188 PWs)   bands (ev):

   -49.8287 -26.0432 -25.8988 -25.7597 -12.2812  -8.9650  -8.8948   1.0807
     1.5398   1.8245   2.0375   3.2052   3.3554   3.6091   3.6715   3.6847
     6.7973   6.8240   7.8110   9.7121  10.0492

     occupation numbers 
     1.0000   1.0000   1.0000   1.0000   1.0000   1.0000   1.0000   1.0000
     1.0000   1.0000   1.0000   1.0000   1.0000   1.0000   1.0000   1.0000
     0.5974   0.4596  -0.0000  -0.0000  -0.0000

          k = 0.0000 0.4293 0.0000 ( 12139 PWs)   bands (ev):

   -49.8395 -26.1511 -25.7891 -25.7121 -11.7429  -9.4283  -8.8416   0.7347
     1.1043   1.3855   2.5268   2.9050   3.3692   3.3980   3.8829   4.0443
     5.5834   8.4334   8.5357   8.7103  10.2284

     occupation numbers 
     1.0000   1.0000   1.0000   1.0000   1.0000   1.0000   1.0000   1.0000
     1.0000   1.0000   1.0000   1.0000   1.0000   1.0000   1.0000   1.0000
     1.0000  -0.0000  -0.0000  -0.0000  -0.0000

          k = 0.2496 0.6440 0.0000 ( 12153 PWs)   bands (ev):

   -49.8362 -26.2123 -25.7811 -25.7418 -11.2110  -9.2643  -8.8750  -0.1289
     1.0530   1.0664   2.0958   2.2310   3.1506   3.2040   3.5038   3.9364
     6.0618   8.7589   9.2415   9.2439  11.0177

     occupation numbers 
     1.0000   1.0000   1.0000   1.0000   1.0000   1.0000   1.0000   1.0000
     1.0000   1.0000   1.0000   1.0000   1.0000   1.0000   1.0000   1.0000
     1.0000  -0.0000  -0.0000  -0.0000  -0.0000

          k = 0.4991 0.8586 0.0000 ( 12181 PWs)   bands (ev):

   -49.8306 -26.2311 -25.8167 -25.7667 -10.9403  -8.9906  -8.9200  -0.5972
     1.1676   1.2298   1.7476   1.7822   2.1672   2.9743   3.5893   3.7331
     6.9408   8.9701   9.4010   9.5239  11.4564

     occupation numbers 
     1.0000   1.0000   1.0000   1.0000   1.0000   1.0000   1.0000   1.0000
     1.0000   1.0000   1.0000   1.0000   1.0000   1.0000   1.0000   1.0000
     0.0199  -0.0000  -0.0000  -0.0000  -0.0000

          k =-1.2479-0.6440 0.0000 ( 12181 PWs)   bands (ev):

   -49.8259 -26.1981 -25.8926 -25.7541 -11.1375  -8.9477  -8.7608  -0.0723
     0.9070   1.1764   1.2606   1.9482   2.5476   2.6119   3.5071   3.7723
     7.9460   8.8512   9.0645   9.3700  11.1301

     occupation numbers 
     1.0000   1.0000   1.0000   1.0000   1.0000   1.0000   1.0000   1.0000
     1.0000   1.0000   1.0000   1.0000   1.0000   1.0000   1.0000   1.0000
    -0.0000  -0.0000  -0.0000  -0.0000  -0.0000

          k =-0.9983-0.4293 0.0000 ( 12173 PWs)   bands (ev):

   -49.8249 -26.1321 -25.9260 -25.7508 -11.6315  -8.9392  -8.7361   0.7817
     1.2171   1.2425   1.3660   2.0270   2.6704   2.7295   3.5792   4.0358
     7.8426   8.1179   8.4636   9.7593  10.8788

     occupation numbers 
     1.0000   1.0000   1.0000   1.0000   1.0000   1.0000   1.0000   1.0000
     1.0000   1.0000   1.0000   1.0000   1.0000   1.0000   1.0000   1.0000
    -0.0000  -0.0000  -0.0000  -0.0000  -0.0000

          k =-0.7487-0.2147 0.0000 ( 12171 PWs)   bands (ev):

   -49.8282 -26.0704 -25.8977 -25.7587 -12.1044  -8.9337  -8.9019   1.1204
     1.6352   1.6840   2.0111   2.5818   2.7196   3.0972   3.8486   4.0115
     7.0964   7.2306   7.8424   9.7219  10.5004

     occupation numbers 
     1.0000   1.0000   1.0000   1.0000   1.0000   1.0000   1.0000   1.0000
     1.0000   1.0000   1.0000   1.0000   1.0000   1.0000   1.0000   1.0000
    -0.0178  -0.0010  -0.0000  -0.0000  -0.0000

          k =-0.4991 0.0000 0.0000 ( 12159 PWs)   bands (ev):

   -49.8339 -26.0493 -25.8235 -25.7733 -12.3227  -9.2135  -8.8602   1.1978
     1.8918   2.1511   2.4053   3.0965   3.2599   3.4293   3.7547   3.9230
     6.7630   6.9633   7.0848   9.1854  10.1396

     occupation numbers 
     1.0000   1.0000   1.0000   1.0000   1.0000   1.0000   1.0000   1.0000
     1.0000   1.0000   1.0000   1.0000   1.0000   1.0000   1.0000   1.0000
     0.7603  -0.0115  -0.0210  -0.0000  -0.0000

          k = 0.9983 0.8586 0.2708 ( 12188 PWs)   bands (ev):

   -49.8233 -26.2208 -25.9222 -25.7475 -10.8905  -8.8984  -8.6910  -0.5607
     0.6362   0.8946   1.8101   1.8938   1.9015   2.5954   3.1836   3.9335
     8.4702   9.1857   9.3948   9.7093  11.3669

     occupation numbers 
     1.0000   1.0000   1.0000   1.0000   1.0000   1.0000   1.0000   1.0000
     1.0000   1.0000   1.0000   1.0000   1.0000   1.0000   1.0000   1.0000
    -0.0000  -0.0000  -0.0000  -0.0000  -0.0000

          k = 0.0000 0.0000 0.2708 ( 12121 PWs)   bands (ev):

   -49.8412 -26.0578 -25.7926 -25.7151 -12.3803  -9.4297  -8.9385   0.9170
     2.5549   2.5794   2.8102   3.1744   3.4050   3.5771   4.0318   4.1656
     5.5474   7.2158   7.4567   8.8223   9.6872

     occupation numbers 
     1.0000   1.0000   1.0000   1.0000   1.0000   1.0000   1.0000   1.0000
     1.0000   1.0000   1.0000   1.0000   1.0000   1.0000   1.0000   1.0000
     1.0000  -0.0015  -0.0000  -0.0000  -0.0000

          k = 0.0000-0.2147 0.3385 ( 12164 PWs)   bands (ev):

   -49.8407 -26.0855 -25.7916 -25.7142 -12.2018  -9.3615  -8.9899   1.0718
     2.1573   2.4253   2.6032   2.7757   3.2516   3.4533   3.9909   4.0857
     5.5667   7.6395   7.7303   8.8884  10.1489

     occupation numbers 
     1.0000   1.0000   1.0000   1.0000   1.0000   1.0000   1.0000   1.0000
     1.0000   1.0000   1.0000   1.0000   1.0000   1.0000   1.0000   1.0000
     1.0000  -0.0000  -0.0000  -0.0000  -0.0000

          k = 0.2496 0.0000 0.3385 ( 12138 PWs)   bands (ev):

   -49.8391 -26.0553 -25.7870 -25.7471 -12.3629  -9.3206  -8.9691   1.1472
     2.1119   2.5777   2.8425   2.9607   3.3150   3.6517   3.9090   3.9260
     6.0383   7.0874   7.3964   8.7140   9.9438

     occupation numbers 
     1.0000   1.0000   1.0000   1.0000   1.0000   1.0000   1.0000   1.0000
     1.0000   1.0000   1.0000   1.0000   1.0000   1.0000   1.0000   1.0000
     1.0000  -0.0203  -0.0000  -0.0000  -0.0000

          k =-1.9966-0.4293-0.1354 ( 12189 PWs)   bands (ev):

   -49.8395 -26.1511 -25.7892 -25.7121 -11.7411  -9.2608  -9.0363   0.9812
     1.2733   1.6896   2.3297   2.6477   2.8926   3.1213   3.8406   4.3098
     5.6115   8.4223   8.5331   8.9242  10.7398

     occupation numbers 
     1.0000   1.0000   1.0000   1.0000   1.0000   1.0000   1.0000   1.0000
     1.0000   1.0000   1.0000   1.0000   1.0000   1.0000   1.0000   1.0000
     1.0000  -0.0000  -0.0000  -0.0000  -0.0000

          k =-1.7470-0.2147-0.1354 ( 12147 PWs)   bands (ev):

   -49.8386 -26.0829 -25.7860 -25.7462 -12.1847  -9.2558  -9.0137   1.2880
     1.9247   2.3502   2.4495   2.7758   3.0853   3.3916   3.6968   4.1386
     6.0685   7.5054   7.6685   8.7527  10.3587

     occupation numbers 
     1.0000   1.0000   1.0000   1.0000   1.0000   1.0000   1.0000   1.0000
     1.0000   1.0000   1.0000   1.0000   1.0000   1.0000   1.0000   1.0000
     1.0000  -0.0000  -0.0000  -0.0000  -0.0000

          k =-1.4974 0.0000-0.1354 ( 12156 PWs)   bands (ev):

   -49.8339 -26.0493 -25.8235 -25.7734 -12.3217  -9.1639  -8.9114   1.1793
     1.5881   2.0927   2.6129   2.9415   3.5750   3.6315   3.7941   3.8933
     6.8449   6.9364   7.1160   8.7533   9.9369

     occupation numbers 
     1.0000   1.0000   1.0000   1.0000   1.0000   1.0000   1.0000   1.0000
     1.0000   1.0000   1.0000   1.0000   1.0000   1.0000   1.0000   1.0000
     0.3539   0.0281  -0.0131  -0.0000  -0.0000

          k = 0.0000 1.0733-0.0677 ( 12170 PWs)   bands (ev):

   -49.8383 -26.2153 -25.7868 -25.7100 -11.2247  -9.2099  -9.0293  -0.1439
     1.0089   1.2560   2.3747   2.5591   2.6598   2.8991   3.8345   4.2939
     5.6488   8.9076   9.2201   9.3588  10.9448

     occupation numbers 
     1.0000   1.0000   1.0000   1.0000   1.0000   1.0000   1.0000   1.0000
     1.0000   1.0000   1.0000   1.0000   1.0000   1.0000   1.0000   1.0000
     1.0000  -0.0000  -0.0000  -0.0000  -0.0000

          k =-1.7470-0.4293-0.0677 ( 12175 PWs)   bands (ev):

   -49.8374 -26.1483 -25.7836 -25.7440 -11.7250  -9.1567  -9.0550   1.0303
     1.4391   1.6984   1.9091   2.4782   2.9699   3.2265   3.3332   4.3021
     6.1049   8.3563   8.4101   8.8185  10.9385

     occupation numbers 
     1.0000   1.0000   1.0000   1.0000   1.0000   1.0000   1.0000   1.0000
     1.0000   1.0000   1.0000   1.0000   1.0000   1.0000   1.0000   1.0000
     1.0000  -0.0000  -0.0000  -0.0000  -0.0000

          k =-1.4974-0.2147-0.0677 ( 12154 PWs)   bands (ev):

   -49.8334 -26.0766 -25.8225 -25.7724 -12.1442  -9.1332  -8.9180   1.2179
     1.5287   1.9766   2.4429   2.5415   3.1163   3.3105   3.7194   4.1288
     6.9700   7.2421   7.4574   8.7364  10.3119

     occupation numbers 
     1.0000   1.0000   1.0000   1.0000   1.0000   1.0000   1.0000   1.0000
     1.0000   1.0000   1.0000   1.0000   1.0000   1.0000   1.0000   1.0000
    -0.0180  -0.0007  -0.0000  -0.0000  -0.0000

          k =-1.2479 0.0000-0.0677 ( 12165 PWs)   bands (ev):

   -49.8287 -26.0432 -25.8988 -25.7597 -12.2808  -9.0635  -8.7852   0.8988
     1.0390   2.0153   2.3842   3.1010   3.5627   3.6456   3.8260   3.9027
     6.7075   6.7582   7.9327   9.2087   9.7287

     occupation numbers 
     1.0000   1.0000   1.0000   1.0000   1.0000   1.0000   1.0000   1.0000
     1.0000   1.0000   1.0000   1.0000   1.0000   1.0000   1.0000   1.0000
     0.9475   0.7808  -0.0000  -0.0000  -0.0000

          k = 0.0000 0.8586 0.0000 ( 12151 PWs)   bands (ev):

   -49.8378 -26.2415 -25.7857 -25.7091 -10.9886  -9.2654  -8.9447  -0.6334
     0.8424   1.0097   2.4337   2.6322   2.7291   2.7871   3.8951   4.1800
     5.6559   8.8487   9.5932   9.6978  10.8751

     occupation numbers 
     1.0000   1.0000   1.0000   1.0000   1.0000   1.0000   1.0000   1.0000
     1.0000   1.0000   1.0000   1.0000   1.0000   1.0000   1.0000   1.0000
     1.0000  -0.0000  -0.0000  -0.0000  -0.0000

          k = 0.2496 1.0733 0.0000 ( 12164 PWs)   bands (ev):

   -49.8362 -26.2123 -25.7812 -25.7418 -11.2098  -9.1257  -9.0263  -0.1322
     1.1471   1.3068   2.0029   2.1435   3.0160   3.1075   3.2356   4.2037
     6.1188   8.7570   9.2427   9.2521  11.1921

     occupation numbers 
     1.0000   1.0000   1.0000   1.0000   1.0000   1.0000   1.0000   1.0000
     1.0000   1.0000   1.0000   1.0000   1.0000   1.0000   1.0000   1.0000
     1.0000  -0.0000  -0.0000  -0.0000  -0.0000

          k =-1.4974-0.4293 0.0000 ( 12157 PWs)   bands (ev):

   -49.8322 -26.1416 -25.8201 -25.7701 -11.6863  -9.0690  -8.9234   1.0815
     1.2654   1.5909   1.7569   2.0207   2.7053   3.1185   3.5652   4.0742
     6.9857   8.1583   8.2840   8.8068  10.9206

     occupation numbers 
     1.0000   1.0000   1.0000   1.0000   1.0000   1.0000   1.0000   1.0000
     1.0000   1.0000   1.0000   1.0000   1.0000   1.0000   1.0000   1.0000
    -0.0287  -0.0000  -0.0000  -0.0000  -0.0000

          k =-1.2479-0.2147 0.0000 ( 12169 PWs)   bands (ev):

   -49.8282 -26.0704 -25.8977 -25.7588 -12.1039  -9.0484  -8.7760   0.9290
     1.0544   1.7824   2.3461   2.6341   3.0587   3.4135   3.8262   3.9412
     7.0621   7.2155   7.9492   9.2143  10.1058

     occupation numbers 
     1.0000   1.0000   1.0000   1.0000   1.0000   1.0000   1.0000   1.0000
     1.0000   1.0000   1.0000   1.0000   1.0000   1.0000   1.0000   1.0000
    -0.0274  -0.0015  -0.0000  -0.0000  -0.0000

          k =-0.9983 0.0000 0.0000 ( 12191 PWs)   bands (ev):

   -49.8266 -26.0407 -25.9297 -25.7541 -12.2640  -8.9792  -8.7800   0.7015
     1.2090   1.9209   2.1005   3.3072   3.4086   3.5346   3.7187   3.9213
     6.6179   6.7309   8.4281   9.7647   9.7822

     occupation numbers 
     1.0000   1.0000   1.0000   1.0000   1.0000   1.0000   1.0000   1.0000
     1.0000   1.0000   1.0000   1.0000   1.0000   1.0000   1.0000   1.0000
     1.0354   0.8821  -0.0000  -0.0000  -0.0000

          k = 0.0000 0.0000 0.4061 ( 12117 PWs)   bands (ev):

   -49.8412 -26.0578 -25.7926 -25.7151 -12.3796  -9.3307  -9.0523   1.2349
     2.3122   2.6333   2.7882   3.3070   3.3476   3.4004   3.8796   4.0896
     5.5561   7.2162   7.5268   8.9463   9.8680

     occupation numbers 
     1.0000   1.0000   1.0000   1.0000   1.0000   1.0000   1.0000   1.0000
     1.0000   1.0000   1.0000   1.0000   1.0000   1.0000   1.0000   1.0000
     1.0000  -0.0014  -0.0000  -0.0000  -0.0000

          k =-1.9966-0.2147-0.0677 ( 12164 PWs)   bands (ev):

   -49.8407 -26.0855 -25.7916 -25.7142 -12.2012  -9.2539  -9.1082   1.3482
     2.1534   2.4058   2.4883   2.6640   3.2218   3.3863   3.9220   4.0878
     5.5748   7.6393   7.7655   8.9763  10.3065

     occupation numbers 
     1.0000   1.0000   1.0000   1.0000   1.0000   1.0000   1.0000   1.0000
     1.0000   1.0000   1.0000   1.0000   1.0000   1.0000   1.0000   1.0000
     1.0000  -0.0000  -0.0000  -0.0000  -0.0000

          k =-1.7470 0.0000-0.0677 ( 12142 PWs)   bands (ev):

   -49.8391 -26.0553 -25.7870 -25.7471 -12.3624  -9.2390  -9.0585   1.4423
     1.8089   2.6746   2.8212   2.8630   3.4421   3.6519   3.8013   3.8411
     6.0739   7.0789   7.4308   8.7511   9.9688

     occupation numbers 
     1.0000   1.0000   1.0000   1.0000   1.0000   1.0000   1.0000   1.0000
     1.0000   1.0000   1.0000   1.0000   1.0000   1.0000   1.0000   1.0000
     1.0000  -0.0227  -0.0000  -0.0000  -0.0000

          k = 0.0000 1.2879 0.0000 ( 12185 PWs)   bands (ev):

   -49.8395 -26.1511 -25.7892 -25.7121 -11.7408  -9.1608  -9.1409   1.0011
     1.4268   1.6428   2.2656   2.6739   2.8881   2.9764   3.8033   4.3639
     5.6157   8.4297   8.5331   8.9605  10.8163

     occupation numbers 
     1.0000   1.0000   1.0000   1.0000   1.0000   1.0000   1.0000   1.0000
     1.0000   1.0000   1.0000   1.0000   1.0000   1.0000   1.0000   1.0000
     1.0000  -0.0000  -0.0000  -0.0000  -0.0000

          k =-1.7470-0.2147 0.0000 ( 12152 PWs)   bands (ev):

   -49.8386 -26.0829 -25.7860 -25.7462 -12.1844  -9.1929  -9.0805   1.5046
     1.7149   2.4003   2.4206   2.7824   3.0767   3.3557   3.6575   4.1442
     6.0883   7.5036   7.6751   8.7747  10.3810

     occupation numbers 
     1.0000   1.0000   1.0000   1.0000   1.0000   1.0000   1.0000   1.0000
     1.0000   1.0000   1.0000   1.0000   1.0000   1.0000   1.0000   1.0000
     1.0000  -0.0000  -0.0000  -0.0000  -0.0000

          k =-1.4974 0.0000 0.0000 ( 12179 PWs)   bands (ev):

   -49.8339 -26.0493 -25.8235 -25.7734 -12.3216  -9.1532  -8.9224   1.2014
     1.4983   2.1187   2.6294   2.9266   3.6742   3.6844   3.7050   3.9033
     6.8286   6.9747   7.1174   8.6858   9.8924

     occupation numbers 
     1.0000   1.0000   1.0000   1.0000   1.0000   1.0000   1.0000   1.0000
     1.0000   1.0000   1.0000   1.0000   1.0000   1.0000   1.0000   1.0000
     0.4362  -0.0218  -0.0128  -0.0000  -0.0000

          k =-1.9966-1.7173-0.5415 ( 12132 PWs)   bands (ev):

   -49.8412 -26.0578 -25.7926 -25.7151 -12.3793  -9.2447  -9.1445   1.4564
     2.0956   2.6719   2.7810   3.3163   3.3486   3.3827   3.7943   4.0603
     5.5566   7.2163   7.5555   8.9977   9.9338

     occupation numbers 
     1.0000   1.0000   1.0000   1.0000   1.0000   1.0000   1.0000   1.0000
     1.0000   1.0000   1.0000   1.0000   1.0000   1.0000   1.0000   1.0000
     1.0000  -0.0014  -0.0000  -0.0000  -0.0000

     the Fermi energy is     6.8162 ev

!    total energy              =    -534.96657047 Ry

     total all-electron energy =     -9636.856813 Ry
     estimated scf accuracy    <          6.3E-11 Ry
     smearing contrib. (-TS)   =      -0.00023027 Ry
     internal energy E=F+TS    =    -534.96634020 Ry

     The total energy is F=E-TS. E is the sum of the following terms:
     one-electron contribution =     -93.95508337 Ry
     hartree contribution      =      61.22315532 Ry
     xc contribution           =     -39.53496929 Ry
     ewald contribution        =    -135.48921389 Ry
     one-center paw contrib.   =    -327.21022897 Ry
      -> PAW hartree energy AE =      29.07860859 Ry
      -> PAW hartree energy PS =     -29.04854784 Ry
      -> PAW xc energy AE      =     -17.03604873 Ry
      -> PAW xc energy PS      =       7.41190964 Ry
      -> total E_H with PAW    =      61.25321607 Ry
      -> total E_XC with PAW   =     -49.15910838 Ry

     convergence has been achieved in  12 iterations

     Forces acting on atoms (cartesian axes, Ry/au):

     atom    1 type  1   force =     0.00000000    0.00000000    0.00000000
     atom    2 type  2   force =     0.00000000    0.00000000    0.03667482
     atom    3 type  2   force =     0.00000000    0.00000000   -0.03667482
     atom    4 type  3   force =     0.00000000    0.00000000    0.00000000
     The non-local contrib.  to forces
     atom    1 type  1   force =     0.00000000    0.00000000   -0.00000000
     atom    2 type  2   force =     0.00000000    0.00000000    0.06300642
     atom    3 type  2   force =    -0.00000000   -0.00000000   -0.06300642
     atom    4 type  3   force =    -0.00000000   -0.00000000   -0.00000000
     The ionic contribution  to forces
     atom    1 type  1   force =    -0.00000000   -0.00000000    0.00000000
     atom    2 type  2   force =     0.00000001    0.00000000  -10.07462875
     atom    3 type  2   force =    -0.00000001   -0.00000000   10.07462875
     atom    4 type  3   force =    -0.00000000   -0.00000000    0.00000000
     The local contribution  to forces
     atom    1 type  1   force =     0.00000000    0.00000000    0.00000000
     atom    2 type  2   force =     0.00000002   -0.00000003   10.04674714
     atom    3 type  2   force =    -0.00000002    0.00000003  -10.04674714
     atom    4 type  3   force =     0.00000000    0.00000000    0.00000000
     The core correction contribution to forces
     atom    1 type  1   force =     0.00000000    0.00000000    0.00000000
     atom    2 type  2   force =    -0.00000000    0.00000000    0.00154886
     atom    3 type  2   force =     0.00000000   -0.00000000   -0.00154886
     atom    4 type  3   force =     0.00000000    0.00000000    0.00000000
     The Hubbard contrib.    to forces
     atom    1 type  1   force =     0.00000000    0.00000000    0.00000000
     atom    2 type  2   force =     0.00000000    0.00000000    0.00000000
     atom    3 type  2   force =     0.00000000    0.00000000    0.00000000
     atom    4 type  3   force =     0.00000000    0.00000000    0.00000000
     The SCF correction term to forces
     atom    1 type  1   force =    -0.00000000   -0.00000000   -0.00000000
     atom    2 type  2   force =    -0.00000000    0.00000000    0.00000116
     atom    3 type  2   force =     0.00000000   -0.00000000   -0.00000116
     atom    4 type  3   force =    -0.00000000   -0.00000000    0.00000000

     Total force =     0.051866     Total SCF correction =     0.000002


     Computing stress (Cartesian axis) and pressure

          total   stress  (Ry/bohr**3)                   (kbar)     P=      -39.16
  -0.00026267  -0.00000000   0.00000000          -38.64       -0.00        0.00
  -0.00000000  -0.00026242   0.00000000           -0.00      -38.60        0.00
  -0.00000000  -0.00000000  -0.00027359           -0.00       -0.00      -40.25

     kinetic stress (kbar)  14746.63      0.00     -0.00
                                0.00  14843.99      0.00
                                0.00      0.00  14760.26

     local   stress (kbar) -18881.89      0.00      0.00
                                0.00 -24245.30      0.00
                                0.00      0.00   4120.55

     nonloc. stress (kbar)   8010.98     -0.00      0.00
                                0.00   7930.84      0.00
                                0.00     -0.00   8005.51

     hartree stress (kbar)   8371.13     -0.00     -0.00
                               -0.00  10123.83      0.00
                               -0.00      0.00  -2058.16

     exc-cor stress (kbar)  -1131.06     -0.00     -0.00
                               -0.00  -1121.19     -0.00
                               -0.00     -0.00  -1130.55

     corecor stress (kbar)  -2029.30     -0.00      0.00
                               -0.00  -2029.33      0.00
                                0.00      0.00  -2029.16

     ewald   stress (kbar)  -9125.13      0.00     -0.00
                                0.00  -5541.44     -0.00
                               -0.00     -0.00 -21708.70

     hubbard stress (kbar)      0.00      0.00      0.00
                                0.00      0.00      0.00
                                0.00      0.00      0.00

     DFT-D   stress (kbar)      0.00      0.00      0.00
                                0.00      0.00      0.00
                                0.00      0.00      0.00

     XDM     stress (kbar)      0.00      0.00      0.00
                                0.00      0.00      0.00
                                0.00      0.00      0.00

     dft-nl  stress (kbar)      0.00      0.00      0.00
                                0.00      0.00      0.00
                                0.00      0.00      0.00

     TS-vdW  stress (kbar)      0.00      0.00      0.00
                                0.00      0.00      0.00
                                0.00      0.00      0.00



     Writing output data file /zfs_data/gutierre/Scratch/Cl2NbO/smearing/8x8x8/0.012/tmp/Cl2NbO.save/
 
     init_run     :      2.97s CPU      3.08s WALL (       1 calls)
     electrons    :     58.92s CPU     60.35s WALL (       1 calls)
     forces       :      0.79s CPU      0.79s WALL (       1 calls)
     stress       :      1.78s CPU      1.79s WALL (       1 calls)

     Called by init_run:
     wfcinit      :      1.76s CPU      1.83s WALL (       1 calls)
     wfcinit:atom :      0.01s CPU      0.01s WALL (      95 calls)
     wfcinit:wfcr :      1.69s CPU      1.75s WALL (      95 calls)
     potinit      :      0.37s CPU      0.39s WALL (       1 calls)
     hinit0       :      0.48s CPU      0.49s WALL (       1 calls)

     Called by electrons:
     c_bands      :     45.55s CPU     46.69s WALL (      12 calls)
     sum_band     :     10.41s CPU     10.65s WALL (      12 calls)
     v_of_rho     :      1.17s CPU      1.19s WALL (      13 calls)
     v_h          :      0.09s CPU      0.09s WALL (      13 calls)
     v_xc         :      1.24s CPU      1.26s WALL (      15 calls)
     newd         :      1.00s CPU      1.01s WALL (      13 calls)
     PAW_pot      :      0.67s CPU      0.69s WALL (      13 calls)
     mix_rho      :      0.17s CPU      0.17s WALL (      12 calls)

     Called by c_bands:
     init_us_2    :      0.61s CPU      0.64s WALL (    2565 calls)
     cegterg      :     44.25s CPU     45.30s WALL (    1140 calls)

     Called by sum_band:
     sum_band:wei :      0.04s CPU      0.04s WALL (      12 calls)
     sum_band:loo :      9.24s CPU      9.44s WALL (      12 calls)
     sum_band:buf :      0.09s CPU      0.09s WALL (    1140 calls)
     sum_band:ini :      0.29s CPU      0.29s WALL (    1140 calls)
     sum_band:cal :      0.30s CPU      0.31s WALL (    1140 calls)
     sum_band:bec :      0.03s CPU      0.03s WALL (    1140 calls)
     addusdens    :      0.99s CPU      1.01s WALL (      12 calls)
     addusd:skk   :      0.01s CPU      0.01s WALL (      36 calls)
     addusd:dgemm :      0.29s CPU      0.31s WALL (      36 calls)
     addusd:qvan2 :      0.65s CPU      0.65s WALL (      36 calls)

     Called by *egterg:
     cdiaghg      :      2.44s CPU      2.57s WALL (    4202 calls)
     cegterg:over :      0.85s CPU      0.87s WALL (    3062 calls)
     cegterg:upda :      0.27s CPU      0.27s WALL (    3062 calls)
     cegterg:last :      0.42s CPU      0.43s WALL (    2253 calls)
     h_psi        :     40.78s CPU     41.71s WALL (    4297 calls)
     s_psi        :      0.28s CPU      0.29s WALL (    4297 calls)
     g_psi        :      0.06s CPU      0.06s WALL (    3062 calls)

     Called by h_psi:
     h_psi:calbec :      0.98s CPU      1.00s WALL (    4297 calls)
     vloc_psi     :     39.20s CPU     40.10s WALL (    4297 calls)
     add_vuspsi   :      0.44s CPU      0.45s WALL (    4297 calls)

     General routines
     calbec       :      1.32s CPU      1.35s WALL (    5912 calls)
     fft          :      1.02s CPU      1.03s WALL (     192 calls)
     ffts         :      0.02s CPU      0.02s WALL (      25 calls)
     fftw         :     42.97s CPU     43.99s WALL (  146106 calls)
     interpolate  :      0.09s CPU      0.09s WALL (      13 calls)
 
     Parallel routines
     fft_scatt_xy :      5.80s CPU      5.89s WALL (  146323 calls)
     fft_scatt_yz :     19.02s CPU     19.47s WALL (  146323 calls)

     PAW routines
     PAW_pot      :      0.67s CPU      0.69s WALL (      13 calls)
     PAW_symme    :      0.03s CPU      0.03s WALL (      25 calls)
 
     PWSCF        :   1m 5.25s CPU   1m 7.91s WALL

 
   This run was terminated on:  17:52:11  18May2022            

=------------------------------------------------------------------------------=
   JOB DONE.
=------------------------------------------------------------------------------=
