MPI startup(): Warning: I_MPI_PMI_LIBRARY will be ignored since the hydra process manager was found
MPI startup(): Warning: I_MPI_PMI_LIBRARY will be ignored since the hydra process manager was found
MPI startup(): Warning: I_MPI_PMI_LIBRARY will be ignored since the hydra process manager was found
MPI startup(): Warning: I_MPI_PMI_LIBRARY will be ignored since the hydra process manager was found
MPI startup(): Warning: I_MPI_PMI_LIBRARY will be ignored since the hydra process manager was found
MPI startup(): Warning: I_MPI_PMI_LIBRARY will be ignored since the hydra process manager was found
MPI startup(): Warning: I_MPI_PMI_LIBRARY will be ignored since the hydra process manager was found
MPI startup(): Warning: I_MPI_PMI_LIBRARY will be ignored since the hydra process manager was found
MPI startup(): Warning: I_MPI_PMI_LIBRARY will be ignored since the hydra process manager was found
MPI startup(): Warning: I_MPI_PMI_LIBRARY will be ignored since the hydra process manager was found
MPI startup(): Warning: I_MPI_PMI_LIBRARY will be ignored since the hydra process manager was found
MPI startup(): Warning: I_MPI_PMI_LIBRARY will be ignored since the hydra process manager was found
MPI startup(): Warning: I_MPI_PMI_LIBRARY will be ignored since the hydra process manager was found
MPI startup(): Warning: I_MPI_PMI_LIBRARY will be ignored since the hydra process manager was found
MPI startup(): Warning: I_MPI_PMI_LIBRARY will be ignored since the hydra process manager was found
MPI startup(): Warning: I_MPI_PMI_LIBRARY will be ignored since the hydra process manager was found
MPI startup(): Warning: I_MPI_PMI_LIBRARY will be ignored since the hydra process manager was found
MPI startup(): Warning: I_MPI_PMI_LIBRARY will be ignored since the hydra process manager was found
MPI startup(): Warning: I_MPI_PMI_LIBRARY will be ignored since the hydra process manager was found
MPI startup(): Warning: I_MPI_PMI_LIBRARY will be ignored since the hydra process manager was found
MPI startup(): Warning: I_MPI_PMI_LIBRARY will be ignored since the hydra process manager was found
MPI startup(): Warning: I_MPI_PMI_LIBRARY will be ignored since the hydra process manager was found
MPI startup(): Warning: I_MPI_PMI_LIBRARY will be ignored since the hydra process manager was found
MPI startup(): Warning: I_MPI_PMI_LIBRARY will be ignored since the hydra process manager was found

     Program PWSCF v.6.7MaX starts on  1Aug2021 at 12:45:22 

     This program is part of the open-source Quantum ESPRESSO suite
     for quantum simulation of materials; please cite
         "P. Giannozzi et al., J. Phys.:Condens. Matter 21 395502 (2009);
         "P. Giannozzi et al., J. Phys.:Condens. Matter 29 465901 (2017);
          URL http://www.quantum-espresso.org", 
     in publications or presentations arising from this work. More details at
     http://www.quantum-espresso.org/quote

     Parallel version (MPI), running on    24 processors

     MPI processes distributed on     1 nodes
     R & G space division:  proc/nbgrp/npool/nimage =      24
     Waiting for input...
     Reading input from standard input

     Current dimensions of program PWSCF are:
     Max number of different atomic species (ntypx) = 10
     Max number of k-points (npk) =  40000
     Max angular momentum in pseudopotentials (lmaxx) =  3
     file Cr.rel-pbe-spn-kjpaw_psl.1.0.0.UPF: wavefunction(s)  3S 3P 3P 3D 3D renormalized
     file Si.rel-pbe-n-kjpaw_psl.1.0.0.UPF: wavefunction(s)  3S 3P 3P renormalized

     Subspace diagonalization in iterative solution of the eigenvalue problem:
     a serial algorithm will be used

     Message from routine setup:
     using ibrav=0 with symmetry is DISCOURAGED, use correct ibrav instead
 
     Parallelization info
     --------------------
     sticks:   dense  smooth     PW     G-vecs:    dense   smooth      PW
     Min         228      91     25                12702     3210     487
     Max         229      93     26                12704     3214     492
     Sum        5473    2201    621               304867    77053   11753
 


     bravais-lattice index     =            0
     lattice parameter (alat)  =       8.7475  a.u.
     unit-cell volume          =     669.3575 (a.u.)^3
     number of atoms/cell      =            8
     number of atomic types    =            2
     number of electrons       =        72.00
     number of Kohn-Sham states=           86
     kinetic-energy cutoff     =      90.0000  Ry
     charge density cutoff     =     900.0000  Ry
     scf convergence threshold =      1.0E-06
     mixing beta               =       0.7000
     number of iterations used =            8  plain     mixing
     Exchange-correlation= SLA  PW   PBX  PBC
                           (   1   4   3   4   0   0   0)
     Non magnetic calculation with spin-orbit


     celldm(1)=   8.747542  celldm(2)=   0.000000  celldm(3)=   0.000000
     celldm(4)=   0.000000  celldm(5)=   0.000000  celldm(6)=   0.000000

     crystal axes: (cart. coord. in units of alat)
               a(1) = (   1.000000   0.000000   0.000000 )  
               a(2) = (   0.000000   1.000000   0.000000 )  
               a(3) = (   0.000000   0.000000   1.000000 )  

     reciprocal axes: (cart. coord. in units 2 pi/alat)
               b(1) = (  1.000000  0.000000  0.000000 )  
               b(2) = (  0.000000  1.000000  0.000000 )  
               b(3) = (  0.000000  0.000000  1.000000 )  


     PseudoPot. # 1 for Cr read from file:
     ../../../../pseudo/Cr.rel-pbe-spn-kjpaw_psl.1.0.0.UPF
     MD5 check sum: 1e24e2b5251376a8b945118fca0c7981
     Pseudo is Projector augmented-wave + core cor, Zval = 14.0
     Generated using &quot;atomic&quot; code by A. Dal Corso  v.6.3
     Shape of augmentation charge: PSQ
     Using radial grid of 1183 points, 10 beta functions with: 
                l(1) =   0
                l(2) =   0
                l(3) =   1
                l(4) =   1
                l(5) =   1
                l(6) =   1
                l(7) =   2
                l(8) =   2
                l(9) =   2
               l(10) =   2
     Q(r) pseudized with 0 coefficients 


     PseudoPot. # 2 for Si read from file:
     ../../../../pseudo/Si.rel-pbe-n-kjpaw_psl.1.0.0.UPF
     MD5 check sum: d74f6caf6830ea4c2076867160cab1b0
     Pseudo is Projector augmented-wave + core cor, Zval =  4.0
     Generated using &quot;atomic&quot; code by A. Dal Corso  v.6.3
     Shape of augmentation charge: PSQ
     Using radial grid of 1141 points, 10 beta functions with: 
                l(1) =   0
                l(2) =   0
                l(3) =   1
                l(4) =   1
                l(5) =   1
                l(6) =   1
                l(7) =   2
                l(8) =   2
                l(9) =   2
               l(10) =   2
     Q(r) pseudized with 0 coefficients 


     atomic species   valence    mass     pseudopotential
        Cr            14.00    51.99600     Cr( 1.00)
        Si             4.00    28.08500     Si( 1.00)

     12 Sym. Ops. (no inversion) found ( 9 have fractional translation)


                                    s                        frac. trans.

      isym =  1     identity                                     

 cryst.   s( 1) = (     1          0          0      )
                  (     0          1          0      )
                  (     0          0          1      )

 cart.    s( 1) = (  1.0000000  0.0000000  0.0000000 )
                  (  0.0000000  1.0000000  0.0000000 )
                  (  0.0000000  0.0000000  1.0000000 )


      isym =  2     180 deg rotation - cart. axis [0,0,1]        

 cryst.   s( 2) = (    -1          0          0      )    f =(  0.5000000 )
                  (     0         -1          0      )       (  0.0000000 )
                  (     0          0          1      )       ( -0.5000000 )

 cart.    s( 2) = ( -1.0000000  0.0000000  0.0000000 )    f =(  0.5000000 )
                  (  0.0000000 -1.0000000  0.0000000 )       (  0.0000000 )
                  (  0.0000000  0.0000000  1.0000000 )       ( -0.5000000 )


      isym =  3     180 deg rotation - cart. axis [0,1,0]        

 cryst.   s( 3) = (    -1          0          0      )    f =(  0.0000000 )
                  (     0          1          0      )       ( -0.5000000 )
                  (     0          0         -1      )       (  0.5000000 )

 cart.    s( 3) = ( -1.0000000  0.0000000  0.0000000 )    f =(  0.0000000 )
                  (  0.0000000  1.0000000  0.0000000 )       ( -0.5000000 )
                  (  0.0000000  0.0000000 -1.0000000 )       (  0.5000000 )


      isym =  4     180 deg rotation - cart. axis [1,0,0]        

 cryst.   s( 4) = (     1          0          0      )    f =(  0.5000000 )
                  (     0         -1          0      )       (  0.5000000 )
                  (     0          0         -1      )       (  0.0000000 )

 cart.    s( 4) = (  1.0000000  0.0000000  0.0000000 )    f =(  0.5000000 )
                  (  0.0000000 -1.0000000  0.0000000 )       (  0.5000000 )
                  (  0.0000000  0.0000000 -1.0000000 )       (  0.0000000 )


      isym =  5     120 deg rotation - cart. axis [-1,-1,-1]     

 cryst.   s( 5) = (     0          0          1      )
                  (     1          0          0      )
                  (     0          1          0      )

 cart.    s( 5) = (  0.0000000  1.0000000  0.0000000 )
                  (  0.0000000  0.0000000  1.0000000 )
                  (  1.0000000  0.0000000  0.0000000 )


      isym =  6     120 deg rotation - cart. axis [-1,1,1]       

 cryst.   s( 6) = (     0          0         -1      )    f =(  0.0000000 )
                  (    -1          0          0      )       ( -0.5000000 )
                  (     0          1          0      )       (  0.5000000 )

 cart.    s( 6) = (  0.0000000 -1.0000000  0.0000000 )    f =(  0.0000000 )
                  (  0.0000000  0.0000000  1.0000000 )       ( -0.5000000 )
                  ( -1.0000000  0.0000000  0.0000000 )       (  0.5000000 )


      isym =  7     120 deg rotation - cart. axis [1,1,-1]       

 cryst.   s( 7) = (     0          0         -1      )    f =(  0.5000000 )
                  (     1          0          0      )       (  0.5000000 )
                  (     0         -1          0      )       (  0.0000000 )

 cart.    s( 7) = (  0.0000000  1.0000000  0.0000000 )    f =(  0.5000000 )
                  (  0.0000000  0.0000000 -1.0000000 )       (  0.5000000 )
                  ( -1.0000000  0.0000000  0.0000000 )       (  0.0000000 )


      isym =  8     120 deg rotation - cart. axis [1,-1,1]       

 cryst.   s( 8) = (     0          0          1      )    f =(  0.5000000 )
                  (    -1          0          0      )       (  0.0000000 )
                  (     0         -1          0      )       ( -0.5000000 )

 cart.    s( 8) = (  0.0000000 -1.0000000  0.0000000 )    f =(  0.5000000 )
                  (  0.0000000  0.0000000 -1.0000000 )       (  0.0000000 )
                  (  1.0000000  0.0000000  0.0000000 )       ( -0.5000000 )


      isym =  9     120 deg rotation - cart. axis [1,1,1]        

 cryst.   s( 9) = (     0          1          0      )
                  (     0          0          1      )
                  (     1          0          0      )

 cart.    s( 9) = (  0.0000000  0.0000000  1.0000000 )
                  (  1.0000000  0.0000000  0.0000000 )
                  (  0.0000000  1.0000000  0.0000000 )


      isym = 10     120 deg rotation - cart. axis [-1,1,-1]      

 cryst.   s(10) = (     0         -1          0      )    f =(  0.5000000 )
                  (     0          0         -1      )       (  0.5000000 )
                  (     1          0          0      )       (  0.0000000 )

 cart.    s(10) = (  0.0000000  0.0000000  1.0000000 )    f =(  0.5000000 )
                  ( -1.0000000  0.0000000  0.0000000 )       (  0.5000000 )
                  (  0.0000000 -1.0000000  0.0000000 )       (  0.0000000 )


      isym = 11     120 deg rotation - cart. axis [1,-1,-1]      

 cryst.   s(11) = (     0         -1          0      )    f =(  0.5000000 )
                  (     0          0          1      )       (  0.0000000 )
                  (    -1          0          0      )       ( -0.5000000 )

 cart.    s(11) = (  0.0000000  0.0000000 -1.0000000 )    f =(  0.5000000 )
                  ( -1.0000000  0.0000000  0.0000000 )       (  0.0000000 )
                  (  0.0000000  1.0000000  0.0000000 )       ( -0.5000000 )


      isym = 12     120 deg rotation - cart. axis [-1,-1,1]      

 cryst.   s(12) = (     0          1          0      )    f =(  0.0000000 )
                  (     0          0         -1      )       ( -0.5000000 )
                  (    -1          0          0      )       (  0.5000000 )

 cart.    s(12) = (  0.0000000  0.0000000 -1.0000000 )    f =(  0.0000000 )
                  (  1.0000000  0.0000000  0.0000000 )       ( -0.5000000 )
                  (  0.0000000 -1.0000000  0.0000000 )       (  0.5000000 )


   Cartesian axes

     site n.     atom                  positions (alat units)
         1           Cr  tau(   1) = (   0.8640000   0.3640000   0.1360000  )
         2           Cr  tau(   2) = (   0.3640000   0.1360000   0.8640000  )
         3           Cr  tau(   3) = (   0.1360000   0.8640000   0.3640000  )
         4           Cr  tau(   4) = (   0.6360000   0.6360000   0.6360000  )
         5           Si  tau(   5) = (   0.1540000   0.6540000   0.8460000  )
         6           Si  tau(   6) = (   0.6540000   0.8460000   0.1540000  )
         7           Si  tau(   7) = (   0.8460000   0.1540000   0.6540000  )
         8           Si  tau(   8) = (   0.3460000   0.3460000   0.3460000  )

   Crystallographic axes

     site n.     atom                  positions (cryst. coord.)
         1           Cr  tau(   1) = (  0.8640000  0.3640000  0.1360000  )
         2           Cr  tau(   2) = (  0.3640000  0.1360000  0.8640000  )
         3           Cr  tau(   3) = (  0.1360000  0.8640000  0.3640000  )
         4           Cr  tau(   4) = (  0.6360000  0.6360000  0.6360000  )
         5           Si  tau(   5) = (  0.1540000  0.6540000  0.8460000  )
         6           Si  tau(   6) = (  0.6540000  0.8460000  0.1540000  )
         7           Si  tau(   7) = (  0.8460000  0.1540000  0.6540000  )
         8           Si  tau(   8) = (  0.3460000  0.3460000  0.3460000  )

     number of k points=    45  Methfessel-Paxton smearing, width (Ry)=  0.0120
                       cart. coord. in units 2pi/alat
        k(    1) = (   0.0000000   0.0000000   0.0000000), wk =   0.0019531
        k(    2) = (   0.0000000   0.0000000   0.1250000), wk =   0.0117188
        k(    3) = (   0.0000000   0.0000000   0.2500000), wk =   0.0117188
        k(    4) = (   0.0000000   0.0000000   0.3750000), wk =   0.0117188
        k(    5) = (   0.0000000   0.0000000  -0.5000000), wk =   0.0058594
        k(    6) = (   0.0000000   0.1250000   0.1250000), wk =   0.0234375
        k(    7) = (   0.0000000   0.1250000   0.2500000), wk =   0.0234375
        k(    8) = (   0.0000000   0.1250000   0.3750000), wk =   0.0234375
        k(    9) = (   0.0000000   0.1250000  -0.5000000), wk =   0.0117188
        k(   10) = (   0.0000000   0.2500000   0.2500000), wk =   0.0234375
        k(   11) = (   0.0000000   0.2500000   0.3750000), wk =   0.0234375
        k(   12) = (   0.0000000   0.2500000  -0.5000000), wk =   0.0117188
        k(   13) = (   0.0000000   0.3750000   0.3750000), wk =   0.0234375
        k(   14) = (   0.0000000   0.3750000  -0.5000000), wk =   0.0117188
        k(   15) = (   0.0000000  -0.5000000  -0.5000000), wk =   0.0058594
        k(   16) = (   0.1250000   0.1250000   0.1250000), wk =   0.0156250
        k(   17) = (   0.1250000   0.1250000   0.2500000), wk =   0.0468750
        k(   18) = (   0.1250000   0.1250000   0.3750000), wk =   0.0468750
        k(   19) = (   0.1250000   0.1250000  -0.5000000), wk =   0.0234375
        k(   20) = (   0.1250000   0.2500000   0.2500000), wk =   0.0468750
        k(   21) = (   0.1250000   0.2500000   0.3750000), wk =   0.0468750
        k(   22) = (   0.1250000   0.2500000  -0.5000000), wk =   0.0234375
        k(   23) = (   0.1250000   0.3750000   0.3750000), wk =   0.0468750
        k(   24) = (   0.1250000   0.3750000  -0.5000000), wk =   0.0234375
        k(   25) = (   0.1250000  -0.5000000  -0.5000000), wk =   0.0117188
        k(   26) = (   0.2500000   0.2500000   0.2500000), wk =   0.0156250
        k(   27) = (   0.2500000   0.2500000   0.3750000), wk =   0.0468750
        k(   28) = (   0.2500000   0.2500000  -0.5000000), wk =   0.0234375
        k(   29) = (   0.2500000   0.3750000   0.3750000), wk =   0.0468750
        k(   30) = (   0.2500000   0.3750000  -0.5000000), wk =   0.0234375
        k(   31) = (   0.2500000  -0.5000000  -0.5000000), wk =   0.0117188
        k(   32) = (   0.3750000   0.3750000   0.3750000), wk =   0.0156250
        k(   33) = (   0.3750000   0.3750000  -0.5000000), wk =   0.0234375
        k(   34) = (   0.3750000  -0.5000000  -0.5000000), wk =   0.0117188
        k(   35) = (  -0.5000000  -0.5000000  -0.5000000), wk =   0.0019531
        k(   36) = (   0.0000000   0.2500000   0.1250000), wk =   0.0234375
        k(   37) = (   0.0000000   0.3750000   0.1250000), wk =   0.0234375
        k(   38) = (   0.0000000  -0.5000000   0.1250000), wk =   0.0117188
        k(   39) = (   0.0000000   0.3750000   0.2500000), wk =   0.0234375
        k(   40) = (   0.0000000  -0.5000000   0.2500000), wk =   0.0117188
        k(   41) = (   0.0000000  -0.5000000   0.3750000), wk =   0.0117188
        k(   42) = (  -0.1250000   0.3750000   0.2500000), wk =   0.0468750
        k(   43) = (  -0.1250000  -0.5000000   0.2500000), wk =   0.0234375
        k(   44) = (  -0.1250000  -0.5000000   0.3750000), wk =   0.0234375
        k(   45) = (  -0.2500000  -0.5000000   0.3750000), wk =   0.0234375

                       cryst. coord.
        k(    1) = (   0.0000000   0.0000000   0.0000000), wk =   0.0019531
        k(    2) = (   0.0000000   0.0000000   0.1250000), wk =   0.0117188
        k(    3) = (   0.0000000   0.0000000   0.2500000), wk =   0.0117188
        k(    4) = (   0.0000000   0.0000000   0.3750000), wk =   0.0117188
        k(    5) = (   0.0000000   0.0000000  -0.5000000), wk =   0.0058594
        k(    6) = (   0.0000000   0.1250000   0.1250000), wk =   0.0234375
        k(    7) = (   0.0000000   0.1250000   0.2500000), wk =   0.0234375
        k(    8) = (   0.0000000   0.1250000   0.3750000), wk =   0.0234375
        k(    9) = (   0.0000000   0.1250000  -0.5000000), wk =   0.0117188
        k(   10) = (   0.0000000   0.2500000   0.2500000), wk =   0.0234375
        k(   11) = (   0.0000000   0.2500000   0.3750000), wk =   0.0234375
        k(   12) = (   0.0000000   0.2500000  -0.5000000), wk =   0.0117188
        k(   13) = (   0.0000000   0.3750000   0.3750000), wk =   0.0234375
        k(   14) = (   0.0000000   0.3750000  -0.5000000), wk =   0.0117188
        k(   15) = (   0.0000000  -0.5000000  -0.5000000), wk =   0.0058594
        k(   16) = (   0.1250000   0.1250000   0.1250000), wk =   0.0156250
        k(   17) = (   0.1250000   0.1250000   0.2500000), wk =   0.0468750
        k(   18) = (   0.1250000   0.1250000   0.3750000), wk =   0.0468750
        k(   19) = (   0.1250000   0.1250000  -0.5000000), wk =   0.0234375
        k(   20) = (   0.1250000   0.2500000   0.2500000), wk =   0.0468750
        k(   21) = (   0.1250000   0.2500000   0.3750000), wk =   0.0468750
        k(   22) = (   0.1250000   0.2500000  -0.5000000), wk =   0.0234375
        k(   23) = (   0.1250000   0.3750000   0.3750000), wk =   0.0468750
        k(   24) = (   0.1250000   0.3750000  -0.5000000), wk =   0.0234375
        k(   25) = (   0.1250000  -0.5000000  -0.5000000), wk =   0.0117188
        k(   26) = (   0.2500000   0.2500000   0.2500000), wk =   0.0156250
        k(   27) = (   0.2500000   0.2500000   0.3750000), wk =   0.0468750
        k(   28) = (   0.2500000   0.2500000  -0.5000000), wk =   0.0234375
        k(   29) = (   0.2500000   0.3750000   0.3750000), wk =   0.0468750
        k(   30) = (   0.2500000   0.3750000  -0.5000000), wk =   0.0234375
        k(   31) = (   0.2500000  -0.5000000  -0.5000000), wk =   0.0117188
        k(   32) = (   0.3750000   0.3750000   0.3750000), wk =   0.0156250
        k(   33) = (   0.3750000   0.3750000  -0.5000000), wk =   0.0234375
        k(   34) = (   0.3750000  -0.5000000  -0.5000000), wk =   0.0117188
        k(   35) = (  -0.5000000  -0.5000000  -0.5000000), wk =   0.0019531
        k(   36) = (   0.0000000   0.2500000   0.1250000), wk =   0.0234375
        k(   37) = (   0.0000000   0.3750000   0.1250000), wk =   0.0234375
        k(   38) = (   0.0000000  -0.5000000   0.1250000), wk =   0.0117188
        k(   39) = (   0.0000000   0.3750000   0.2500000), wk =   0.0234375
        k(   40) = (   0.0000000  -0.5000000   0.2500000), wk =   0.0117188
        k(   41) = (   0.0000000  -0.5000000   0.3750000), wk =   0.0117188
        k(   42) = (  -0.1250000   0.3750000   0.2500000), wk =   0.0468750
        k(   43) = (  -0.1250000  -0.5000000   0.2500000), wk =   0.0234375
        k(   44) = (  -0.1250000  -0.5000000   0.3750000), wk =   0.0234375
        k(   45) = (  -0.2500000  -0.5000000   0.3750000), wk =   0.0234375

     Dense  grid:   304867 G-vectors     FFT dimensions: (  90,  90,  90)

     Smooth grid:    77053 G-vectors     FFT dimensions: (  54,  54,  54)

     Dynamical RAM for                 wfc:       1.06 MB

     Dynamical RAM for     wfc (w. buffer):      48.53 MB

     Dynamical RAM for           str. fact:       0.39 MB

     Dynamical RAM for           local pot:       0.00 MB

     Dynamical RAM for          nlocal pot:       1.67 MB

     Dynamical RAM for                qrad:      12.61 MB

     Dynamical RAM for          rho,v,vnew:       5.29 MB

     Dynamical RAM for               rhoin:       1.76 MB

     Dynamical RAM for            rho*nmix:      12.41 MB

     Dynamical RAM for           G-vectors:       0.75 MB

     Dynamical RAM for          h,s,v(r/c):       1.35 MB

     Dynamical RAM for          <psi|beta>:       0.71 MB

     Dynamical RAM for                 psi:       2.11 MB

     Dynamical RAM for                hpsi:       2.11 MB

     Dynamical RAM for                spsi:       2.11 MB

     Dynamical RAM for      wfcinit/wfcrot:       2.35 MB

     Dynamical RAM for           addusdens:     119.02 MB

     Dynamical RAM for          addusforce:     120.34 MB

     Dynamical RAM for         addusstress:     121.74 MB

     Estimated static dynamical RAM per process >      85.97 MB

     Estimated max dynamical RAM per process >     207.70 MB

     Estimated total dynamical RAM >       4.87 GB

     Initial potential from superposition of free atoms

     starting charge   71.99469, renormalised to   72.00000
     Starting wfcs are  112 randomized atomic wfcs
     Checking if some PAW data can be deallocated... 
       PAW data deallocated on   12 nodes for type:  1
       PAW data deallocated on   12 nodes for type:  2

     total cpu time spent up to now is       11.8 secs

     Self-consistent Calculation

     iteration #  1     ecut=    90.00 Ry     beta= 0.70
     Davidson diagonalization with overlap
     ethr =  1.00E-02,  avg # of iterations =  2.0

     Threshold (ethr) on eigenvalues was too large:
     Diagonalizing with lowered threshold

     Davidson diagonalization with overlap
     ethr =  2.09E-04,  avg # of iterations =  4.4

     total cpu time spent up to now is       64.0 secs

     total energy              =   -1180.30964559 Ry
     estimated scf accuracy    <       0.18977231 Ry

     iteration #  2     ecut=    90.00 Ry     beta= 0.70
     Davidson diagonalization with overlap
     ethr =  2.64E-04,  avg # of iterations =  3.2

     total cpu time spent up to now is       90.9 secs

     total energy              =   -1180.31344402 Ry
     estimated scf accuracy    <       0.08456682 Ry

     iteration #  3     ecut=    90.00 Ry     beta= 0.70
     Davidson diagonalization with overlap
     ethr =  1.17E-04,  avg # of iterations =  5.0

     total cpu time spent up to now is      123.1 secs

     total energy              =   -1180.32583648 Ry
     estimated scf accuracy    <       0.16503798 Ry

     iteration #  4     ecut=    90.00 Ry     beta= 0.70
     Davidson diagonalization with overlap
     ethr =  1.17E-04,  avg # of iterations =  4.1

     total cpu time spent up to now is      149.2 secs

     total energy              =   -1180.34985870 Ry
     estimated scf accuracy    <       0.00024271 Ry

     iteration #  5     ecut=    90.00 Ry     beta= 0.70
     Davidson diagonalization with overlap
     ethr =  3.37E-07,  avg # of iterations =  8.6

     total cpu time spent up to now is      191.3 secs

     total energy              =   -1180.35050688 Ry
     estimated scf accuracy    <       0.00041559 Ry

     iteration #  6     ecut=    90.00 Ry     beta= 0.70
     Davidson diagonalization with overlap
     ethr =  3.37E-07,  avg # of iterations =  4.2

     total cpu time spent up to now is      217.3 secs

     total energy              =   -1180.35058079 Ry
     estimated scf accuracy    <       0.00000481 Ry

     iteration #  7     ecut=    90.00 Ry     beta= 0.70
     Davidson diagonalization with overlap
     ethr =  6.68E-09,  avg # of iterations =  5.0

     total cpu time spent up to now is      245.2 secs

     total energy              =   -1180.35058119 Ry
     estimated scf accuracy    <       0.00000609 Ry

     iteration #  8     ecut=    90.00 Ry     beta= 0.70
     Davidson diagonalization with overlap
     ethr =  6.68E-09,  avg # of iterations =  3.9

     total cpu time spent up to now is      270.4 secs

     End of self-consistent calculation

          k = 0.0000 0.0000 0.0000 (  9771 PWs)   bands (ev):

   -56.5165 -56.5165 -56.4818 -56.4818 -56.4818 -56.4818 -56.4818 -56.4818
   -28.5823 -28.5823 -28.5744 -28.5744 -28.5744 -28.5744 -28.4851 -28.4851
   -27.6176 -27.6176 -27.6176 -27.6176 -27.5405 -27.5405 -27.5405 -27.5405
   -27.5327 -27.5327 -27.4512 -27.4512 -27.4512 -27.4512 -27.4499 -27.4499
     2.6988   2.6988   7.4570   7.4570   7.4570   7.4570   7.4661   7.4661
    10.5368  10.5368  10.5447  10.5447  10.5447  10.5447  11.9119  11.9119
    11.9119  11.9119  11.9230  11.9230  12.6030  12.6030  12.7719  12.7719
    12.7719  12.7719  13.1424  13.1424  13.1424  13.1424  13.1436  13.1436
    13.6707  13.6707  13.6707  13.6707  13.6745  13.6745  15.5509  15.5509
    15.5823  15.5823  15.5823  15.5823  15.7637  15.7637  15.7637  15.7637
    16.6654  16.6654  16.6958  16.6958  16.6958  16.6958

     occupation numbers 
     1.0000   1.0000   1.0000   1.0000   1.0000   1.0000   1.0000   1.0000
     1.0000   1.0000   1.0000   1.0000   1.0000   1.0000   1.0000   1.0000
     1.0000   1.0000   1.0000   1.0000   1.0000   1.0000   1.0000   1.0000
     1.0000   1.0000   1.0000   1.0000   1.0000   1.0000   1.0000   1.0000
     1.0000   1.0000   1.0000   1.0000   1.0000   1.0000   1.0000   1.0000
     1.0000   1.0000   1.0000   1.0000   1.0000   1.0000   1.0000   1.0000
     1.0000   1.0000   1.0000   1.0000   1.0000   1.0000   1.0000   1.0000
     1.0000   1.0000   1.0000   1.0000   1.0000   1.0000   1.0000   1.0000
     1.0000   1.0000   1.0000   1.0000   1.0000   1.0000  -0.0000  -0.0000
    -0.0000  -0.0000  -0.0000  -0.0000  -0.0000  -0.0000  -0.0000  -0.0000
    -0.0000  -0.0000  -0.0000  -0.0000  -0.0000  -0.0000

          k = 0.0000 0.0000 0.1250 (  9667 PWs)   bands (ev):

   -56.5155 -56.5155 -56.4858 -56.4858 -56.4815 -56.4815 -56.4791 -56.4791
   -28.5884 -28.5811 -28.5782 -28.5776 -28.5677 -28.5646 -28.4880 -28.4879
   -27.6310 -27.6246 -27.6081 -27.6017 -27.5492 -27.5461 -27.5401 -27.5352
   -27.5337 -27.5203 -27.4585 -27.4571 -27.4544 -27.4494 -27.4486 -27.4440
     2.8071   2.8071   6.7954   6.7987   7.5181   7.5195   7.9727   7.9815
    10.0748  10.0800  10.6132  10.6148  11.0390  11.0408  11.3207  11.3208
    11.6507  11.6545  12.5297  12.5363  12.5613  12.5796  12.7794  12.7866
    12.9231  12.9244  13.1127  13.1148  13.1772  13.1776  13.2082  13.2087
    13.5211  13.5287  13.6525  13.6540  13.8989  13.8991  15.3973  15.4155
    15.4441  15.4537  15.7207  15.7242  15.7389  15.7515  15.7642  15.7698
    16.4739  16.4909  16.6339  16.6387  16.8960  16.9166

     occupation numbers 
     1.0000   1.0000   1.0000   1.0000   1.0000   1.0000   1.0000   1.0000
     1.0000   1.0000   1.0000   1.0000   1.0000   1.0000   1.0000   1.0000
     1.0000   1.0000   1.0000   1.0000   1.0000   1.0000   1.0000   1.0000
     1.0000   1.0000   1.0000   1.0000   1.0000   1.0000   1.0000   1.0000
     1.0000   1.0000   1.0000   1.0000   1.0000   1.0000   1.0000   1.0000
     1.0000   1.0000   1.0000   1.0000   1.0000   1.0000   1.0000   1.0000
     1.0000   1.0000   1.0000   1.0000   1.0000   1.0000   1.0000   1.0000
     1.0000   1.0000   1.0000   1.0000   1.0000   1.0000   1.0000   1.0000
     1.0000   1.0000   1.0000   1.0000   1.0000   1.0000  -0.0004  -0.0002
    -0.0001  -0.0001  -0.0000  -0.0000  -0.0000  -0.0000  -0.0000  -0.0000
    -0.0000  -0.0000  -0.0000  -0.0000  -0.0000  -0.0000

          k = 0.0000 0.0000 0.2500 (  9618 PWs)   bands (ev):

   -56.5126 -56.5126 -56.4909 -56.4909 -56.4806 -56.4806 -56.4778 -56.4778
   -28.5919 -28.5847 -28.5816 -28.5790 -28.5551 -28.5520 -28.4962 -28.4959
   -27.6395 -27.6306 -27.5951 -27.5877 -27.5586 -27.5479 -27.5378 -27.5356
   -27.5304 -27.5060 -27.4698 -27.4622 -27.4602 -27.4504 -27.4478 -27.4410
     3.1273   3.1273   5.9921   5.9935   7.6896   7.6926   8.3701   8.3802
     9.7438   9.7452  10.7560  10.7612  10.8663  10.8750  11.1953  11.2027
    11.5681  11.5687  12.2654  12.2803  12.8662  12.8728  12.9121  12.9339
    13.1194  13.1235  13.1283  13.1336  13.2503  13.2509  13.2814  13.2853
    13.5434  13.5468  13.6973  13.7049  14.0459  14.0465  15.0726  15.1012
    15.3793  15.3798  15.6150  15.6302  15.7374  15.7617  15.8508  15.8748
    16.2852  16.2999  16.4934  16.5049  17.1872  17.2077

     occupation numbers 
     1.0000   1.0000   1.0000   1.0000   1.0000   1.0000   1.0000   1.0000
     1.0000   1.0000   1.0000   1.0000   1.0000   1.0000   1.0000   1.0000
     1.0000   1.0000   1.0000   1.0000   1.0000   1.0000   1.0000   1.0000
     1.0000   1.0000   1.0000   1.0000   1.0000   1.0000   1.0000   1.0000
     1.0000   1.0000   1.0000   1.0000   1.0000   1.0000   1.0000   1.0000
     1.0000   1.0000   1.0000   1.0000   1.0000   1.0000   1.0000   1.0000
     1.0000   1.0000   1.0000   1.0000   1.0000   1.0000   1.0000   1.0000
     1.0000   1.0000   1.0000   1.0000   1.0000   1.0000   1.0000   1.0000
     1.0000   1.0000   1.0000   1.0000   1.0000   1.0000   0.0297  -0.0125
    -0.0007  -0.0007  -0.0000  -0.0000  -0.0000  -0.0000  -0.0000  -0.0000
    -0.0000  -0.0000  -0.0000  -0.0000  -0.0000  -0.0000

          k = 0.0000 0.0000 0.3750 (  9662 PWs)   bands (ev):

   -56.5082 -56.5082 -56.4967 -56.4967 -56.4794 -56.4794 -56.4776 -56.4776
   -28.5923 -28.5861 -28.5854 -28.5815 -28.5399 -28.5376 -28.5087 -28.5079
   -27.6427 -27.6365 -27.5815 -27.5767 -27.5672 -27.5447 -27.5445 -27.5322
   -27.5244 -27.4917 -27.4859 -27.4683 -27.4617 -27.4534 -27.4463 -27.4413
     3.6439   3.6439   5.1359   5.1364   7.9592   7.9638   8.5100   8.5189
     9.6770   9.6798  10.5125  10.5131  10.7726  10.7858  11.0296  11.0314
    12.0046  12.0069  12.1207  12.1353  12.7679  12.7833  12.9432  12.9561
    13.0783  13.0858  13.1844  13.1884  13.2452  13.2483  13.3245  13.3280
    13.5400  13.5403  13.9309  13.9353  14.2200  14.2334  14.8124  14.8473
    15.3559  15.3675  15.4950  15.5140  15.7520  15.7815  15.8455  15.8707
    16.1646  16.1804  16.3079  16.3218  17.3504  17.3612

     occupation numbers 
     1.0000   1.0000   1.0000   1.0000   1.0000   1.0000   1.0000   1.0000
     1.0000   1.0000   1.0000   1.0000   1.0000   1.0000   1.0000   1.0000
     1.0000   1.0000   1.0000   1.0000   1.0000   1.0000   1.0000   1.0000
     1.0000   1.0000   1.0000   1.0000   1.0000   1.0000   1.0000   1.0000
     1.0000   1.0000   1.0000   1.0000   1.0000   1.0000   1.0000   1.0000
     1.0000   1.0000   1.0000   1.0000   1.0000   1.0000   1.0000   1.0000
     1.0000   1.0000   1.0000   1.0000   1.0000   1.0000   1.0000   1.0000
     1.0000   1.0000   1.0000   1.0000   1.0000   1.0000   1.0000   1.0000
     1.0000   1.0000   1.0000   1.0000   1.0000   1.0000   1.0043   0.9406
    -0.0013  -0.0010  -0.0000  -0.0000  -0.0000  -0.0000  -0.0000  -0.0000
    -0.0000  -0.0000  -0.0000  -0.0000  -0.0000  -0.0000

          k = 0.0000 0.0000-0.5000 (  9658 PWs)   bands (ev):

   -56.5027 -56.5027 -56.5027 -56.5027 -56.4783 -56.4783 -56.4783 -56.4783
   -28.5900 -28.5900 -28.5840 -28.5840 -28.5238 -28.5238 -28.5224 -28.5224
   -27.6412 -27.6412 -27.5744 -27.5744 -27.5602 -27.5602 -27.5380 -27.5380
   -27.5052 -27.5052 -27.4789 -27.4789 -27.4578 -27.4578 -27.4437 -27.4437
     4.3288   4.3288   4.3290   4.3290   8.2825   8.2825   8.2889   8.2889
    10.0172  10.0172  10.0212  10.0212  10.8981  10.8981  10.9093  10.9093
    12.2471  12.2471  12.2537  12.2537  12.6846  12.6846  12.6970  12.6970
    13.1414  13.1414  13.1418  13.1418  13.2361  13.2361  13.2398  13.2398
    13.7823  13.7823  13.7854  13.7854  14.5654  14.5654  14.5939  14.5939
    15.3996  15.3996  15.4174  15.4174  15.8047  15.8047  15.8344  15.8344
    16.1655  16.1655  16.1792  16.1792  17.5422  17.5459

     occupation numbers 
     1.0000   1.0000   1.0000   1.0000   1.0000   1.0000   1.0000   1.0000
     1.0000   1.0000   1.0000   1.0000   1.0000   1.0000   1.0000   1.0000
     1.0000   1.0000   1.0000   1.0000   1.0000   1.0000   1.0000   1.0000
     1.0000   1.0000   1.0000   1.0000   1.0000   1.0000   1.0000   1.0000
     1.0000   1.0000   1.0000   1.0000   1.0000   1.0000   1.0000   1.0000
     1.0000   1.0000   1.0000   1.0000   1.0000   1.0000   1.0000   1.0000
     1.0000   1.0000   1.0000   1.0000   1.0000   1.0000   1.0000   1.0000
     1.0000   1.0000   1.0000   1.0000   1.0000   1.0000   1.0000   1.0000
     1.0000   1.0000   1.0000   1.0000   1.0020   1.0020   1.0040   1.0040
    -0.0004  -0.0004  -0.0002  -0.0002  -0.0000  -0.0000  -0.0000  -0.0000
    -0.0000  -0.0000  -0.0000  -0.0000  -0.0000  -0.0000

          k = 0.0000 0.1250 0.1250 (  9657 PWs)   bands (ev):

   -56.5145 -56.5145 -56.4873 -56.4873 -56.4818 -56.4818 -56.4783 -56.4783
   -28.5904 -28.5839 -28.5769 -28.5762 -28.5650 -28.5609 -28.4907 -28.4907
   -27.6328 -27.6291 -27.6010 -27.5972 -27.5518 -27.5474 -27.5426 -27.5395
   -27.5272 -27.5138 -27.4637 -27.4621 -27.4559 -27.4504 -27.4456 -27.4415
     2.9147   2.9147   6.6455   6.6504   7.3154   7.3193   8.2193   8.2251
     9.9473   9.9522  10.6665  10.6725  10.8545  10.8591  11.2388  11.2420
    11.8050  11.8061  12.4437  12.4548  12.5944  12.6023  12.9026  12.9087
    13.0100  13.0193  13.1594  13.1604  13.1646  13.1695  13.2662  13.2680
    13.4636  13.4700  13.6772  13.6887  13.9940  13.9994  15.3444  15.3567
    15.3924  15.4017  15.6229  15.6322  15.7221  15.7384  15.7924  15.8139
    16.3737  16.3919  16.6464  16.6537  16.9383  16.9676

     occupation numbers 
     1.0000   1.0000   1.0000   1.0000   1.0000   1.0000   1.0000   1.0000
     1.0000   1.0000   1.0000   1.0000   1.0000   1.0000   1.0000   1.0000
     1.0000   1.0000   1.0000   1.0000   1.0000   1.0000   1.0000   1.0000
     1.0000   1.0000   1.0000   1.0000   1.0000   1.0000   1.0000   1.0000
     1.0000   1.0000   1.0000   1.0000   1.0000   1.0000   1.0000   1.0000
     1.0000   1.0000   1.0000   1.0000   1.0000   1.0000   1.0000   1.0000
     1.0000   1.0000   1.0000   1.0000   1.0000   1.0000   1.0000   1.0000
     1.0000   1.0000   1.0000   1.0000   1.0000   1.0000   1.0000   1.0000
     1.0000   1.0000   1.0000   1.0000   1.0000   1.0000  -0.0018  -0.0013
    -0.0005  -0.0004  -0.0000  -0.0000  -0.0000  -0.0000  -0.0000  -0.0000
    -0.0000  -0.0000  -0.0000  -0.0000  -0.0000  -0.0000

          k = 0.0000 0.1250 0.2500 (  9633 PWs)   bands (ev):

   -56.5117 -56.5117 -56.4913 -56.4913 -56.4813 -56.4813 -56.4776 -56.4776
   -28.5922 -28.5860 -28.5788 -28.5774 -28.5547 -28.5513 -28.4987 -28.4985
   -27.6382 -27.6317 -27.5914 -27.5860 -27.5582 -27.5500 -27.5420 -27.5390
   -27.5249 -27.5016 -27.4758 -27.4671 -27.4601 -27.4527 -27.4430 -27.4383
     3.2325   3.2326   6.0268   6.0293   7.3762   7.3789   8.4794   8.4845
     9.7444   9.7459  10.4126  10.4164  10.8568  10.8577  11.4947  11.4999
    11.5882  11.5898  12.3107  12.3205  12.6386  12.6412  13.0340  13.0415
    13.0730  13.0844  13.2023  13.2084  13.2805  13.2818  13.3799  13.3841
    13.5198  13.5263  13.8042  13.8195  14.1004  14.1075  15.0886  15.1156
    15.2971  15.3120  15.5059  15.5206  15.6877  15.7097  15.8382  15.8638
    16.2234  16.2386  16.5272  16.5395  17.1518  17.1855

     occupation numbers 
     1.0000   1.0000   1.0000   1.0000   1.0000   1.0000   1.0000   1.0000
     1.0000   1.0000   1.0000   1.0000   1.0000   1.0000   1.0000   1.0000
     1.0000   1.0000   1.0000   1.0000   1.0000   1.0000   1.0000   1.0000
     1.0000   1.0000   1.0000   1.0000   1.0000   1.0000   1.0000   1.0000
     1.0000   1.0000   1.0000   1.0000   1.0000   1.0000   1.0000   1.0000
     1.0000   1.0000   1.0000   1.0000   1.0000   1.0000   1.0000   1.0000
     1.0000   1.0000   1.0000   1.0000   1.0000   1.0000   1.0000   1.0000
     1.0000   1.0000   1.0000   1.0000   1.0000   1.0000   1.0000   1.0000
     1.0000   1.0000   1.0000   1.0000   1.0000   1.0000   0.0029  -0.0245
    -0.0056  -0.0040  -0.0000  -0.0000  -0.0000  -0.0000  -0.0000  -0.0000
    -0.0000  -0.0000  -0.0000  -0.0000  -0.0000  -0.0000

          k = 0.0000 0.1250 0.3750 (  9657 PWs)   bands (ev):

   -56.5075 -56.5075 -56.4966 -56.4966 -56.4800 -56.4800 -56.4778 -56.4778
   -28.5915 -28.5863 -28.5828 -28.5800 -28.5406 -28.5384 -28.5107 -28.5101
   -27.6404 -27.6352 -27.5812 -27.5751 -27.5666 -27.5495 -27.5439 -27.5312
   -27.5261 -27.4929 -27.4876 -27.4704 -27.4632 -27.4568 -27.4409 -27.4376
     3.7447   3.7449   5.2138   5.2148   7.6679   7.6698   8.4241   8.4278
     9.7361   9.7393  10.2161  10.2201  11.0143  11.0203  11.1800  11.1940
    11.8663  11.8717  12.1811  12.1908  12.6387  12.6453  12.8662  12.8761
    13.0651  13.0714  13.2700  13.2748  13.3338  13.3358  13.4467  13.4496
    13.6020  13.6089  13.9673  13.9741  14.2906  14.3078  14.8247  14.8583
    15.2784  15.2942  15.3783  15.3907  15.6919  15.7181  15.8251  15.8545
    16.1468  16.1554  16.3586  16.3721  17.3036  17.3273

     occupation numbers 
     1.0000   1.0000   1.0000   1.0000   1.0000   1.0000   1.0000   1.0000
     1.0000   1.0000   1.0000   1.0000   1.0000   1.0000   1.0000   1.0000
     1.0000   1.0000   1.0000   1.0000   1.0000   1.0000   1.0000   1.0000
     1.0000   1.0000   1.0000   1.0000   1.0000   1.0000   1.0000   1.0000
     1.0000   1.0000   1.0000   1.0000   1.0000   1.0000   1.0000   1.0000
     1.0000   1.0000   1.0000   1.0000   1.0000   1.0000   1.0000   1.0000
     1.0000   1.0000   1.0000   1.0000   1.0000   1.0000   1.0000   1.0000
     1.0000   1.0000   1.0000   1.0000   1.0000   1.0000   1.0000   1.0000
     1.0000   1.0000   1.0000   1.0000   1.0000   1.0000   0.9867   0.9115
    -0.0082  -0.0059  -0.0007  -0.0005  -0.0000  -0.0000  -0.0000  -0.0000
    -0.0000  -0.0000  -0.0000  -0.0000  -0.0000  -0.0000

          k = 0.0000 0.1250-0.5000 (  9664 PWs)   bands (ev):

   -56.5022 -56.5022 -56.5022 -56.5022 -56.4787 -56.4787 -56.4787 -56.4787
   -28.5887 -28.5887 -28.5828 -28.5828 -28.5258 -28.5258 -28.5235 -28.5235
   -27.6388 -27.6388 -27.5743 -27.5743 -27.5609 -27.5609 -27.5375 -27.5375
   -27.5099 -27.5099 -27.4776 -27.4776 -27.4611 -27.4611 -27.4389 -27.4389
     4.4220   4.4220   4.4226   4.4226   8.0586   8.0586   8.0655   8.0655
     9.9961   9.9961  10.0004  10.0004  11.0366  11.0366  11.0507  11.0507
    12.1470  12.1470  12.1525  12.1525  12.5972  12.5972  12.6135  12.6135
    13.2263  13.2263  13.2289  13.2289  13.3317  13.3317  13.3329  13.3329
    13.8293  13.8293  13.8329  13.8329  14.5987  14.5987  14.6291  14.6291
    15.3011  15.3011  15.3169  15.3169  15.7558  15.7558  15.7856  15.7856
    16.2048  16.2048  16.2158  16.2158  17.5189  17.5263

     occupation numbers 
     1.0000   1.0000   1.0000   1.0000   1.0000   1.0000   1.0000   1.0000
     1.0000   1.0000   1.0000   1.0000   1.0000   1.0000   1.0000   1.0000
     1.0000   1.0000   1.0000   1.0000   1.0000   1.0000   1.0000   1.0000
     1.0000   1.0000   1.0000   1.0000   1.0000   1.0000   1.0000   1.0000
     1.0000   1.0000   1.0000   1.0000   1.0000   1.0000   1.0000   1.0000
     1.0000   1.0000   1.0000   1.0000   1.0000   1.0000   1.0000   1.0000
     1.0000   1.0000   1.0000   1.0000   1.0000   1.0000   1.0000   1.0000
     1.0000   1.0000   1.0000   1.0000   1.0000   1.0000   1.0000   1.0000
     1.0000   1.0000   1.0000   1.0000   1.0044   1.0044   1.0084   1.0084
    -0.0051  -0.0051  -0.0036  -0.0036  -0.0000  -0.0000  -0.0000  -0.0000
    -0.0000  -0.0000  -0.0000  -0.0000  -0.0000  -0.0000

          k = 0.0000 0.2500 0.2500 (  9661 PWs)   bands (ev):

   -56.5093 -56.5093 -56.4931 -56.4931 -56.4818 -56.4818 -56.4777 -56.4777
   -28.5915 -28.5862 -28.5765 -28.5758 -28.5512 -28.5477 -28.5060 -28.5055
   -27.6356 -27.6325 -27.5844 -27.5820 -27.5584 -27.5547 -27.5430 -27.5414
   -27.5215 -27.4959 -27.4855 -27.4756 -27.4653 -27.4490 -27.4389 -27.4350
     3.5428   3.5430   5.9654   5.9686   6.9413   6.9453   8.4362   8.4413
     9.7517   9.7549  10.1865  10.1916  10.9257  10.9282  11.3505  11.3516
    11.8598  11.8636  12.2862  12.2897  12.5057  12.5150  12.9034  12.9110
    13.1470  13.1564  13.2695  13.2790  13.4410  13.4425  13.5194  13.5287
    13.5703  13.5809  13.9839  13.9962  14.2198  14.2254  15.0457  15.0661
    15.1392  15.1638  15.2929  15.3043  15.6138  15.6389  15.7619  15.7908
    16.1591  16.1701  16.5119  16.5226  17.1850  17.2279

     occupation numbers 
     1.0000   1.0000   1.0000   1.0000   1.0000   1.0000   1.0000   1.0000
     1.0000   1.0000   1.0000   1.0000   1.0000   1.0000   1.0000   1.0000
     1.0000   1.0000   1.0000   1.0000   1.0000   1.0000   1.0000   1.0000
     1.0000   1.0000   1.0000   1.0000   1.0000   1.0000   1.0000   1.0000
     1.0000   1.0000   1.0000   1.0000   1.0000   1.0000   1.0000   1.0000
     1.0000   1.0000   1.0000   1.0000   1.0000   1.0000   1.0000   1.0000
     1.0000   1.0000   1.0000   1.0000   1.0000   1.0000   1.0000   1.0000
     1.0000   1.0000   1.0000   1.0000   1.0000   1.0000   1.0000   1.0000
     1.0000   1.0000   1.0000   1.0000   1.0000   1.0000   0.0957   0.0432
    -0.0342  -0.0349  -0.0061  -0.0048  -0.0000  -0.0000  -0.0000  -0.0000
    -0.0000  -0.0000  -0.0000  -0.0000  -0.0000  -0.0000

          k = 0.0000 0.2500 0.3750 (  9639 PWs)   bands (ev):

   -56.5055 -56.5055 -56.4966 -56.4966 -56.4812 -56.4812 -56.4786 -56.4786
   -28.5889 -28.5845 -28.5787 -28.5768 -28.5419 -28.5397 -28.5166 -28.5161
   -27.6339 -27.6311 -27.5831 -27.5760 -27.5632 -27.5526 -27.5428 -27.5334
   -27.5255 -27.5008 -27.4923 -27.4822 -27.4617 -27.4494 -27.4360 -27.4334
     4.0409   4.0414   5.4174   5.4192   7.0449   7.0480   8.0210   8.0243
     9.9169   9.9202  10.1870  10.1903  11.0281  11.0320  11.3805  11.3881
    11.8895  11.8914  12.0246  12.0289  12.4327  12.4437  12.6521  12.6620
    13.2338  13.2432  13.3290  13.3343  13.4381  13.4418  13.6531  13.6560
    13.7896  13.7931  14.0661  14.0756  14.4536  14.4790  14.8300  14.8568
    15.0708  15.0921  15.1464  15.1518  15.5751  15.5996  15.6788  15.7109
    16.1998  16.2068  16.4538  16.4643  17.1901  17.2190

     occupation numbers 
     1.0000   1.0000   1.0000   1.0000   1.0000   1.0000   1.0000   1.0000
     1.0000   1.0000   1.0000   1.0000   1.0000   1.0000   1.0000   1.0000
     1.0000   1.0000   1.0000   1.0000   1.0000   1.0000   1.0000   1.0000
     1.0000   1.0000   1.0000   1.0000   1.0000   1.0000   1.0000   1.0000
     1.0000   1.0000   1.0000   1.0000   1.0000   1.0000   1.0000   1.0000
     1.0000   1.0000   1.0000   1.0000   1.0000   1.0000   1.0000   1.0000
     1.0000   1.0000   1.0000   1.0000   1.0000   1.0000   1.0000   1.0000
     1.0000   1.0000   1.0000   1.0000   1.0000   1.0000   1.0000   1.0000
     1.0000   1.0000   1.0000   1.0000   1.0001   1.0002   0.9776   0.9157
     0.0332  -0.0019  -0.0352  -0.0354  -0.0000  -0.0000  -0.0000  -0.0000
    -0.0000  -0.0000  -0.0000  -0.0000  -0.0000  -0.0000

          k = 0.0000 0.2500-0.5000 (  9686 PWs)   bands (ev):

   -56.5010 -56.5010 -56.5010 -56.5010 -56.4799 -56.4799 -56.4799 -56.4799
   -28.5850 -28.5850 -28.5796 -28.5796 -28.5304 -28.5304 -28.5272 -28.5272
   -27.6317 -27.6317 -27.5797 -27.5797 -27.5575 -27.5575 -27.5359 -27.5359
   -27.5171 -27.5171 -27.4881 -27.4881 -27.4543 -27.4543 -27.4339 -27.4339
     4.6918   4.6918   4.6928   4.6928   7.4837   7.4837   7.4898   7.4898
    10.1293  10.1293  10.1324  10.1324  11.2000  11.2000  11.2117  11.2117
    11.9549  11.9549  11.9569  11.9569  12.4182  12.4182  12.4307  12.4307
    13.3460  13.3460  13.3524  13.3524  13.5153  13.5153  13.5214  13.5214
    13.9870  13.9870  13.9926  13.9926  14.6539  14.6539  14.6844  14.6844
    15.0839  15.0839  15.0956  15.0956  15.6020  15.6020  15.6309  15.6309
    16.3322  16.3322  16.3432  16.3432  17.3579  17.3611

     occupation numbers 
     1.0000   1.0000   1.0000   1.0000   1.0000   1.0000   1.0000   1.0000
     1.0000   1.0000   1.0000   1.0000   1.0000   1.0000   1.0000   1.0000
     1.0000   1.0000   1.0000   1.0000   1.0000   1.0000   1.0000   1.0000
     1.0000   1.0000   1.0000   1.0000   1.0000   1.0000   1.0000   1.0000
     1.0000   1.0000   1.0000   1.0000   1.0000   1.0000   1.0000   1.0000
     1.0000   1.0000   1.0000   1.0000   1.0000   1.0000   1.0000   1.0000
     1.0000   1.0000   1.0000   1.0000   1.0000   1.0000   1.0000   1.0000
     1.0000   1.0000   1.0000   1.0000   1.0000   1.0000   1.0000   1.0000
     1.0000   1.0000   1.0000   1.0000   1.0132   1.0132   1.0209   1.0209
     0.0098   0.0098  -0.0063  -0.0063  -0.0000  -0.0000  -0.0000  -0.0000
    -0.0000  -0.0000  -0.0000  -0.0000  -0.0000  -0.0000

          k = 0.0000 0.3750 0.3750 (  9632 PWs)   bands (ev):

   -56.5027 -56.5027 -56.4974 -56.4974 -56.4819 -56.4819 -56.4799 -56.4799
   -28.5846 -28.5812 -28.5763 -28.5754 -28.5405 -28.5386 -28.5252 -28.5243
   -27.6255 -27.6250 -27.5889 -27.5849 -27.5549 -27.5494 -27.5387 -27.5335
   -27.5269 -27.5069 -27.5046 -27.4951 -27.4523 -27.4428 -27.4346 -27.4319
     4.5099   4.5105   5.5235   5.5251   6.5729   6.5750   7.4027   7.4057
    10.2462  10.2475  10.4517  10.4529  10.9113  10.9122  11.2394  11.2425
    11.7862  11.7891  12.0555  12.0595  12.2633  12.2658  12.4684  12.4761
    13.2324  13.2400  13.3888  13.3903  13.6719  13.6724  13.8195  13.8245
    14.0547  14.0669  14.1494  14.1603  14.5565  14.5766  14.7399  14.7518
    14.8525  14.8716  14.9547  14.9780  15.4759  15.4954  15.5162  15.5434
    16.3211  16.3316  16.5102  16.5157  17.0891  17.1115

     occupation numbers 
     1.0000   1.0000   1.0000   1.0000   1.0000   1.0000   1.0000   1.0000
     1.0000   1.0000   1.0000   1.0000   1.0000   1.0000   1.0000   1.0000
     1.0000   1.0000   1.0000   1.0000   1.0000   1.0000   1.0000   1.0000
     1.0000   1.0000   1.0000   1.0000   1.0000   1.0000   1.0000   1.0000
     1.0000   1.0000   1.0000   1.0000   1.0000   1.0000   1.0000   1.0000
     1.0000   1.0000   1.0000   1.0000   1.0000   1.0000   1.0000   1.0000
     1.0000   1.0000   1.0000   1.0000   1.0000   1.0000   1.0000   1.0000
     1.0000   1.0000   1.0000   1.0000   1.0000   1.0000   1.0000   1.0000
     1.0000   1.0000   1.0000   1.0000   1.0016   1.0026   1.0345   1.0354
     0.9275   0.8701   0.4925   0.3734  -0.0000  -0.0000  -0.0000  -0.0000
    -0.0000  -0.0000  -0.0000  -0.0000  -0.0000  -0.0000

          k = 0.0000 0.3750-0.5000 (  9642 PWs)   bands (ev):

   -56.4997 -56.4997 -56.4997 -56.4997 -56.4813 -56.4813 -56.4813 -56.4813
   -28.5801 -28.5801 -28.5765 -28.5765 -28.5348 -28.5348 -28.5322 -28.5322
   -27.6208 -27.6208 -27.5922 -27.5922 -27.5483 -27.5483 -27.5347 -27.5347
   -27.5208 -27.5208 -27.5036 -27.5036 -27.4443 -27.4443 -27.4330 -27.4330
     5.0900   5.0900   5.0914   5.0914   6.8116   6.8116   6.8157   6.8157
    10.4497  10.4497  10.4511  10.4511  11.2416  11.2416  11.2496  11.2496
    11.6402  11.6402  11.6481  11.6481  12.3096  12.3096  12.3146  12.3146
    13.3641  13.3641  13.3699  13.3699  13.7679  13.7679  13.7770  13.7770
    14.2717  14.2717  14.2745  14.2745  14.5431  14.5431  14.5538  14.5538
    14.8846  14.8846  14.9036  14.9036  15.4568  15.4568  15.4765  15.4765
    16.4916  16.4916  16.5017  16.5017  17.1133  17.1164

     occupation numbers 
     1.0000   1.0000   1.0000   1.0000   1.0000   1.0000   1.0000   1.0000
     1.0000   1.0000   1.0000   1.0000   1.0000   1.0000   1.0000   1.0000
     1.0000   1.0000   1.0000   1.0000   1.0000   1.0000   1.0000   1.0000
     1.0000   1.0000   1.0000   1.0000   1.0000   1.0000   1.0000   1.0000
     1.0000   1.0000   1.0000   1.0000   1.0000   1.0000   1.0000   1.0000
     1.0000   1.0000   1.0000   1.0000   1.0000   1.0000   1.0000   1.0000
     1.0000   1.0000   1.0000   1.0000   1.0000   1.0000   1.0000   1.0000
     1.0000   1.0000   1.0000   1.0000   1.0000   1.0000   1.0000   1.0000
     1.0000   1.0000   1.0000   1.0000   1.0011   1.0011   1.0015   1.0015
     0.8233   0.8233   0.7445   0.7445  -0.0001  -0.0001  -0.0000  -0.0000
    -0.0000  -0.0000  -0.0000  -0.0000  -0.0000  -0.0000

          k = 0.0000-0.5000-0.5000 (  9580 PWs)   bands (ev):

   -56.4991 -56.4991 -56.4991 -56.4991 -56.4819 -56.4819 -56.4819 -56.4819
   -28.5764 -28.5764 -28.5764 -28.5764 -28.5357 -28.5357 -28.5357 -28.5357
   -27.6070 -27.6070 -27.6070 -27.6070 -27.5387 -27.5387 -27.5387 -27.5387
   -27.5163 -27.5163 -27.5163 -27.5163 -27.4367 -27.4367 -27.4367 -27.4367
     5.3717   5.3717   5.3717   5.3717   6.4279   6.4279   6.4279   6.4279
    10.7055  10.7055  10.7055  10.7055  11.2421  11.2421  11.2421  11.2421
    11.3850  11.3850  11.3850  11.3850  12.2843  12.2843  12.2843  12.2843
    13.3609  13.3609  13.3609  13.3609  14.0064  14.0064  14.0064  14.0064
    14.2919  14.2919  14.2919  14.2919  14.5250  14.5250  14.5250  14.5250
    14.7575  14.7575  14.7575  14.7575  15.4152  15.4152  15.4152  15.4152
    16.5868  16.5868  16.5868  16.5869  16.9827  16.9827

     occupation numbers 
     1.0000   1.0000   1.0000   1.0000   1.0000   1.0000   1.0000   1.0000
     1.0000   1.0000   1.0000   1.0000   1.0000   1.0000   1.0000   1.0000
     1.0000   1.0000   1.0000   1.0000   1.0000   1.0000   1.0000   1.0000
     1.0000   1.0000   1.0000   1.0000   1.0000   1.0000   1.0000   1.0000
     1.0000   1.0000   1.0000   1.0000   1.0000   1.0000   1.0000   1.0000
     1.0000   1.0000   1.0000   1.0000   1.0000   1.0000   1.0000   1.0000
     1.0000   1.0000   1.0000   1.0000   1.0000   1.0000   1.0000   1.0000
     1.0000   1.0000   1.0000   1.0000   1.0000   1.0000   1.0000   1.0000
     1.0000   1.0000   1.0000   1.0000   1.0007   1.0007   1.0007   1.0007
     1.0353   1.0353   1.0353   1.0353  -0.0002  -0.0002  -0.0002  -0.0002
    -0.0000  -0.0000  -0.0000  -0.0000  -0.0000  -0.0000

          k = 0.1250 0.1250 0.1250 (  9633 PWs)   bands (ev):

   -56.5136 -56.5136 -56.4883 -56.4883 -56.4822 -56.4822 -56.4778 -56.4778
   -28.5914 -28.5853 -28.5758 -28.5750 -28.5630 -28.5586 -28.4935 -28.4933
   -27.6331 -27.6316 -27.5975 -27.5924 -27.5533 -27.5467 -27.5449 -27.5437
   -27.5231 -27.5088 -27.4712 -27.4614 -27.4559 -27.4551 -27.4422 -27.4399
     3.0215   3.0216   6.5637   6.5703   7.1839   7.1912   8.2854   8.2895
     9.9222   9.9270  10.6110  10.6112  10.6517  10.6518  11.2991  11.3046
    11.9444  11.9455  12.3496  12.3609  12.7366  12.7385  12.8156  12.8246
    13.0610  13.0645  13.1629  13.1634  13.2412  13.2470  13.3407  13.3495
    13.4546  13.4627  13.7030  13.7075  14.0629  14.0704  15.3196  15.3238
    15.3549  15.3561  15.5733  15.5742  15.6357  15.6502  15.8110  15.8232
    16.3131  16.3327  16.6476  16.6560  16.9610  16.9962

     occupation numbers 
     1.0000   1.0000   1.0000   1.0000   1.0000   1.0000   1.0000   1.0000
     1.0000   1.0000   1.0000   1.0000   1.0000   1.0000   1.0000   1.0000
     1.0000   1.0000   1.0000   1.0000   1.0000   1.0000   1.0000   1.0000
     1.0000   1.0000   1.0000   1.0000   1.0000   1.0000   1.0000   1.0000
     1.0000   1.0000   1.0000   1.0000   1.0000   1.0000   1.0000   1.0000
     1.0000   1.0000   1.0000   1.0000   1.0000   1.0000   1.0000   1.0000
     1.0000   1.0000   1.0000   1.0000   1.0000   1.0000   1.0000   1.0000
     1.0000   1.0000   1.0000   1.0000   1.0000   1.0000   1.0000   1.0000
     1.0000   1.0000   1.0000   1.0000   1.0000   1.0000  -0.0034  -0.0030
    -0.0014  -0.0013  -0.0000  -0.0000  -0.0000  -0.0000  -0.0000  -0.0000
    -0.0000  -0.0000  -0.0000  -0.0000  -0.0000  -0.0000

          k = 0.1250 0.1250 0.2500 (  9648 PWs)   bands (ev):

   -56.5109 -56.5109 -56.4916 -56.4916 -56.4818 -56.4818 -56.4775 -56.4775
   -28.5921 -28.5864 -28.5768 -28.5759 -28.5545 -28.5509 -28.5012 -28.5008
   -27.6369 -27.6320 -27.5899 -27.5829 -27.5574 -27.5507 -27.5458 -27.5424
   -27.5207 -27.4993 -27.4808 -27.4663 -27.4621 -27.4558 -27.4393 -27.4372
     3.3369   3.3370   6.0627   6.0659   7.2203   7.2247   8.4041   8.4082
     9.6715   9.6736  10.4342  10.4381  10.6890  10.6929  11.4162  11.4202
    11.8414  11.8464  12.2990  12.3025  12.7368  12.7420  13.0063  13.0114
    13.0812  13.0880  13.1136  13.1213  13.2798  13.2845  13.4376  13.4470
    13.6235  13.6320  13.8377  13.8464  14.1514  14.1574  15.0809  15.1061
    15.2820  15.2971  15.4435  15.4571  15.5868  15.6041  15.8089  15.8280
    16.2005  16.2162  16.5423  16.5561  17.1165  17.1523

     occupation numbers 
     1.0000   1.0000   1.0000   1.0000   1.0000   1.0000   1.0000   1.0000
     1.0000   1.0000   1.0000   1.0000   1.0000   1.0000   1.0000   1.0000
     1.0000   1.0000   1.0000   1.0000   1.0000   1.0000   1.0000   1.0000
     1.0000   1.0000   1.0000   1.0000   1.0000   1.0000   1.0000   1.0000
     1.0000   1.0000   1.0000   1.0000   1.0000   1.0000   1.0000   1.0000
     1.0000   1.0000   1.0000   1.0000   1.0000   1.0000   1.0000   1.0000
     1.0000   1.0000   1.0000   1.0000   1.0000   1.0000   1.0000   1.0000
     1.0000   1.0000   1.0000   1.0000   1.0000   1.0000   1.0000   1.0000
     1.0000   1.0000   1.0000   1.0000   1.0000   1.0000   0.0146  -0.0173
    -0.0076  -0.0056  -0.0001  -0.0001  -0.0000  -0.0000  -0.0000  -0.0000
    -0.0000  -0.0000  -0.0000  -0.0000  -0.0000  -0.0000

          k = 0.1250 0.1250 0.3750 (  9660 PWs)   bands (ev):

   -56.5068 -56.5068 -56.4964 -56.4964 -56.4806 -56.4806 -56.4780 -56.4780
   -28.5906 -28.5859 -28.5809 -28.5785 -28.5416 -28.5391 -28.5129 -28.5121
   -27.6382 -27.6337 -27.5803 -27.5746 -27.5657 -27.5526 -27.5446 -27.5335
   -27.5240 -27.5000 -27.4824 -27.4701 -27.4659 -27.4590 -27.4376 -27.4360
     3.8447   3.8449   5.2905   5.2916   7.5134   7.5157   8.3089   8.3132
     9.5583   9.5593  10.2041  10.2074  10.9208  10.9252  11.4068  11.4128
    11.7848  11.7881  12.2115  12.2152  12.7415  12.7473  12.9482  12.9558
    13.0576  13.0658  13.2272  13.2344  13.3246  13.3282  13.4299  13.4363
    13.6938  13.6967  13.9766  13.9840  14.3495  14.3694  14.8298  14.8625
    15.2438  15.2600  15.3158  15.3291  15.6079  15.6279  15.7663  15.7896
    16.1529  16.1623  16.3766  16.3911  17.3091  17.3326

     occupation numbers 
     1.0000   1.0000   1.0000   1.0000   1.0000   1.0000   1.0000   1.0000
     1.0000   1.0000   1.0000   1.0000   1.0000   1.0000   1.0000   1.0000
     1.0000   1.0000   1.0000   1.0000   1.0000   1.0000   1.0000   1.0000
     1.0000   1.0000   1.0000   1.0000   1.0000   1.0000   1.0000   1.0000
     1.0000   1.0000   1.0000   1.0000   1.0000   1.0000   1.0000   1.0000
     1.0000   1.0000   1.0000   1.0000   1.0000   1.0000   1.0000   1.0000
     1.0000   1.0000   1.0000   1.0000   1.0000   1.0000   1.0000   1.0000
     1.0000   1.0000   1.0000   1.0000   1.0000   1.0000   1.0000   1.0000
     1.0000   1.0000   1.0000   1.0000   1.0000   1.0000   0.9778   0.8989
    -0.0152  -0.0116  -0.0037  -0.0027  -0.0000  -0.0000  -0.0000  -0.0000
    -0.0000  -0.0000  -0.0000  -0.0000  -0.0000  -0.0000

          k = 0.1250 0.1250-0.5000 (  9650 PWs)   bands (ev):

   -56.5017 -56.5017 -56.5017 -56.5017 -56.4792 -56.4792 -56.4792 -56.4792
   -28.5874 -28.5874 -28.5815 -28.5815 -28.5277 -28.5277 -28.5248 -28.5248
   -27.6365 -27.6365 -27.5731 -27.5731 -27.5631 -27.5631 -27.5365 -27.5365
   -27.5142 -27.5142 -27.4753 -27.4753 -27.4636 -27.4636 -27.4364 -27.4364
     4.5142   4.5142   4.5148   4.5148   7.9202   7.9202   7.9265   7.9265
     9.8404   9.8404   9.8417   9.8417  11.1809  11.1809  11.1906  11.1906
    12.0264  12.0264  12.0301  12.0301  12.7775  12.7775  12.7902  12.7902
    13.1752  13.1752  13.1834  13.1834  13.3647  13.3647  13.3677  13.3677
    13.8480  13.8480  13.8541  13.8541  14.6282  14.6282  14.6602  14.6602
    15.2446  15.2446  15.2638  15.2638  15.6828  15.6828  15.7088  15.7088
    16.2231  16.2231  16.2333  16.2333  17.6139  17.6153

     occupation numbers 
     1.0000   1.0000   1.0000   1.0000   1.0000   1.0000   1.0000   1.0000
     1.0000   1.0000   1.0000   1.0000   1.0000   1.0000   1.0000   1.0000
     1.0000   1.0000   1.0000   1.0000   1.0000   1.0000   1.0000   1.0000
     1.0000   1.0000   1.0000   1.0000   1.0000   1.0000   1.0000   1.0000
     1.0000   1.0000   1.0000   1.0000   1.0000   1.0000   1.0000   1.0000
     1.0000   1.0000   1.0000   1.0000   1.0000   1.0000   1.0000   1.0000
     1.0000   1.0000   1.0000   1.0000   1.0000   1.0000   1.0000   1.0000
     1.0000   1.0000   1.0000   1.0000   1.0000   1.0000   1.0000   1.0000
     1.0000   1.0000   1.0000   1.0000   1.0082   1.0082   1.0146   1.0146
    -0.0150  -0.0150  -0.0108  -0.0108  -0.0000  -0.0000  -0.0000  -0.0000
    -0.0000  -0.0000  -0.0000  -0.0000  -0.0000  -0.0000

          k = 0.1250 0.2500 0.2500 (  9649 PWs)   bands (ev):

   -56.5085 -56.5085 -56.4931 -56.4931 -56.4824 -56.4824 -56.4779 -56.4779
   -28.5909 -28.5858 -28.5749 -28.5743 -28.5516 -28.5481 -28.5083 -28.5077
   -27.6344 -27.6312 -27.5859 -27.5778 -27.5586 -27.5538 -27.5471 -27.5440
   -27.5173 -27.5014 -27.4831 -27.4705 -27.4687 -27.4533 -27.4366 -27.4344
     3.6447   3.6448   6.0135   6.0179   6.9145   6.9209   8.2970   8.3007
     9.4085   9.4113  10.4281  10.4298  10.6903  10.6928  11.4592  11.4641
    11.9038  11.9064  12.3018  12.3037  12.6211  12.6276  12.9556  12.9620
    13.1169  13.1218  13.1929  13.2036  13.2821  13.2876  13.5786  13.5854
    13.7491  13.7567  13.9704  13.9795  14.2866  14.2936  15.0245  15.0417
    15.1581  15.1786  15.2838  15.2964  15.4976  15.5096  15.7194  15.7400
    16.1680  16.1790  16.5168  16.5293  17.1459  17.1865

     occupation numbers 
     1.0000   1.0000   1.0000   1.0000   1.0000   1.0000   1.0000   1.0000
     1.0000   1.0000   1.0000   1.0000   1.0000   1.0000   1.0000   1.0000
     1.0000   1.0000   1.0000   1.0000   1.0000   1.0000   1.0000   1.0000
     1.0000   1.0000   1.0000   1.0000   1.0000   1.0000   1.0000   1.0000
     1.0000   1.0000   1.0000   1.0000   1.0000   1.0000   1.0000   1.0000
     1.0000   1.0000   1.0000   1.0000   1.0000   1.0000   1.0000   1.0000
     1.0000   1.0000   1.0000   1.0000   1.0000   1.0000   1.0000   1.0000
     1.0000   1.0000   1.0000   1.0000   1.0000   1.0000   1.0000   1.0000
     1.0000   1.0000   1.0000   1.0000   1.0000   1.0000   0.1668   0.1076
    -0.0353  -0.0325  -0.0074  -0.0057  -0.0000  -0.0000  -0.0000  -0.0000
    -0.0000  -0.0000  -0.0000  -0.0000  -0.0000  -0.0000

          k = 0.1250 0.2500 0.3750 (  9647 PWs)   bands (ev):

   -56.5048 -56.5048 -56.4963 -56.4963 -56.4819 -56.4819 -56.4789 -56.4789
   -28.5879 -28.5836 -28.5772 -28.5754 -28.5430 -28.5407 -28.5188 -28.5179
   -27.6321 -27.6292 -27.5824 -27.5746 -27.5652 -27.5551 -27.5427 -27.5365
   -27.5215 -27.5094 -27.4847 -27.4782 -27.4643 -27.4529 -27.4350 -27.4329
     4.1381   4.1385   5.4909   5.4930   7.0392   7.0431   7.9715   7.9747
     9.4102   9.4126  10.1453  10.1477  11.0640  11.0672  11.5737  11.5797
    11.8038  11.8113  12.0652  12.0669  12.5151  12.5252  12.7877  12.7954
    13.2078  13.2131  13.2898  13.3021  13.3523  13.3579  13.5987  13.6080
    13.8625  13.8740  14.0964  14.1079  14.5022  14.5303  14.8369  14.8637
    15.0695  15.0791  15.1458  15.1594  15.5068  15.5196  15.6321  15.6549
    16.2017  16.2086  16.4434  16.4542  17.1761  17.2027

     occupation numbers 
     1.0000   1.0000   1.0000   1.0000   1.0000   1.0000   1.0000   1.0000
     1.0000   1.0000   1.0000   1.0000   1.0000   1.0000   1.0000   1.0000
     1.0000   1.0000   1.0000   1.0000   1.0000   1.0000   1.0000   1.0000
     1.0000   1.0000   1.0000   1.0000   1.0000   1.0000   1.0000   1.0000
     1.0000   1.0000   1.0000   1.0000   1.0000   1.0000   1.0000   1.0000
     1.0000   1.0000   1.0000   1.0000   1.0000   1.0000   1.0000   1.0000
     1.0000   1.0000   1.0000   1.0000   1.0000   1.0000   1.0000   1.0000
     1.0000   1.0000   1.0000   1.0000   1.0000   1.0000   1.0000   1.0000
     1.0000   1.0000   1.0000   1.0000   1.0003   1.0008   0.9641   0.8955
     0.0360   0.0178  -0.0351  -0.0352  -0.0000  -0.0000  -0.0000  -0.0000
    -0.0000  -0.0000  -0.0000  -0.0000  -0.0000  -0.0000

          k = 0.1250 0.2500-0.5000 (  9646 PWs)   bands (ev):

   -56.5005 -56.5005 -56.5005 -56.5005 -56.4804 -56.4804 -56.4804 -56.4804
   -28.5837 -28.5837 -28.5783 -28.5783 -28.5321 -28.5321 -28.5287 -28.5287
   -27.6297 -27.6297 -27.5784 -27.5784 -27.5614 -27.5614 -27.5341 -27.5341
   -27.5206 -27.5206 -27.4834 -27.4834 -27.4571 -27.4571 -27.4334 -27.4334
     4.7807   4.7807   4.7818   4.7818   7.4687   7.4687   7.4750   7.4750
     9.7441   9.7441   9.7465   9.7465  11.5278  11.5278  11.5354  11.5354
    11.7436  11.7436  11.7474  11.7474  12.5996  12.5996  12.6111  12.6111
    13.2916  13.2916  13.2980  13.2980  13.4698  13.4698  13.4813  13.4813
    14.0236  14.0236  14.0316  14.0316  14.6931  14.6931  14.7256  14.7256
    15.0657  15.0657  15.0820  15.0820  15.5550  15.5550  15.5786  15.5786
    16.3192  16.3192  16.3281  16.3281  17.3782  17.3818

     occupation numbers 
     1.0000   1.0000   1.0000   1.0000   1.0000   1.0000   1.0000   1.0000
     1.0000   1.0000   1.0000   1.0000   1.0000   1.0000   1.0000   1.0000
     1.0000   1.0000   1.0000   1.0000   1.0000   1.0000   1.0000   1.0000
     1.0000   1.0000   1.0000   1.0000   1.0000   1.0000   1.0000   1.0000
     1.0000   1.0000   1.0000   1.0000   1.0000   1.0000   1.0000   1.0000
     1.0000   1.0000   1.0000   1.0000   1.0000   1.0000   1.0000   1.0000
     1.0000   1.0000   1.0000   1.0000   1.0000   1.0000   1.0000   1.0000
     1.0000   1.0000   1.0000   1.0000   1.0000   1.0000   1.0000   1.0000
     1.0000   1.0000   1.0000   1.0000   1.0234   1.0234   1.0320   1.0320
     0.0441   0.0441   0.0128   0.0128  -0.0000  -0.0000  -0.0000  -0.0000
    -0.0000  -0.0000  -0.0000  -0.0000  -0.0000  -0.0000

          k = 0.1250 0.3750 0.3750 (  9632 PWs)   bands (ev):

   -56.5020 -56.5020 -56.4969 -56.4969 -56.4825 -56.4825 -56.4804 -56.4804
   -28.5834 -28.5801 -28.5749 -28.5740 -28.5419 -28.5400 -28.5271 -28.5260
   -27.6243 -27.6227 -27.5878 -27.5835 -27.5604 -27.5530 -27.5396 -27.5331
   -27.5239 -27.5158 -27.4939 -27.4892 -27.4547 -27.4463 -27.4349 -27.4320
     4.6019   4.6025   5.5961   5.5983   6.6179   6.6213   7.4191   7.4222
     9.5842   9.5867  10.2019  10.2053  10.9490  10.9510  11.5402  11.5426
    11.7636  11.7681  12.1094  12.1113  12.3539  12.3583  12.6178  12.6244
    13.1911  13.1967  13.3128  13.3180  13.5599  13.5687  13.7642  13.7803
    14.0181  14.0316  14.2993  14.3083  14.5617  14.5803  14.7906  14.8054
    14.8764  14.8813  14.9908  15.0207  15.4316  15.4323  15.5021  15.5140
    16.3015  16.3109  16.4770  16.4834  17.0637  17.0849

     occupation numbers 
     1.0000   1.0000   1.0000   1.0000   1.0000   1.0000   1.0000   1.0000
     1.0000   1.0000   1.0000   1.0000   1.0000   1.0000   1.0000   1.0000
     1.0000   1.0000   1.0000   1.0000   1.0000   1.0000   1.0000   1.0000
     1.0000   1.0000   1.0000   1.0000   1.0000   1.0000   1.0000   1.0000
     1.0000   1.0000   1.0000   1.0000   1.0000   1.0000   1.0000   1.0000
     1.0000   1.0000   1.0000   1.0000   1.0000   1.0000   1.0000   1.0000
     1.0000   1.0000   1.0000   1.0000   1.0000   1.0000   1.0000   1.0000
     1.0000   1.0000   1.0000   1.0000   1.0000   1.0000   1.0000   1.0000
     1.0000   1.0000   1.0000   1.0000   1.0018   1.0029   1.0247   1.0123
     0.8536   0.8357   0.3108   0.1811  -0.0001  -0.0001  -0.0000  -0.0000
    -0.0000  -0.0000  -0.0000  -0.0000  -0.0000  -0.0000

          k = 0.1250 0.3750-0.5000 (  9656 PWs)   bands (ev):

   -56.4991 -56.4991 -56.4991 -56.4991 -56.4819 -56.4819 -56.4819 -56.4819
   -28.5788 -28.5788 -28.5752 -28.5752 -28.5365 -28.5365 -28.5338 -28.5338
   -27.6191 -27.6191 -27.5908 -27.5908 -27.5549 -27.5549 -27.5334 -27.5334
   -27.5223 -27.5223 -27.4961 -27.4961 -27.4471 -27.4471 -27.4337 -27.4337
     5.1732   5.1732   5.1747   5.1747   6.8551   6.8551   6.8596   6.8596
     9.9259   9.9259   9.9290   9.9290  11.2677  11.2677  11.2697  11.2697
    11.8654  11.8654  11.8729  11.8729  12.4200  12.4200  12.4278  12.4278
    13.2914  13.2914  13.2952  13.2952  13.6806  13.6806  13.6947  13.6947
    14.2858  14.2858  14.2925  14.2925  14.6328  14.6328  14.6452  14.6452
    14.9014  14.9014  14.9204  14.9204  15.4292  15.4292  15.4450  15.4450
    16.4455  16.4455  16.4532  16.4532  17.0929  17.0963

     occupation numbers 
     1.0000   1.0000   1.0000   1.0000   1.0000   1.0000   1.0000   1.0000
     1.0000   1.0000   1.0000   1.0000   1.0000   1.0000   1.0000   1.0000
     1.0000   1.0000   1.0000   1.0000   1.0000   1.0000   1.0000   1.0000
     1.0000   1.0000   1.0000   1.0000   1.0000   1.0000   1.0000   1.0000
     1.0000   1.0000   1.0000   1.0000   1.0000   1.0000   1.0000   1.0000
     1.0000   1.0000   1.0000   1.0000   1.0000   1.0000   1.0000   1.0000
     1.0000   1.0000   1.0000   1.0000   1.0000   1.0000   1.0000   1.0000
     1.0000   1.0000   1.0000   1.0000   1.0000   1.0000   1.0000   1.0000
     1.0000   1.0000   1.0000   1.0000   1.0090   1.0090   1.0113   1.0113
     0.7542   0.7542   0.6663   0.6663  -0.0001  -0.0001  -0.0001  -0.0001
    -0.0000  -0.0000  -0.0000  -0.0000  -0.0000  -0.0000

          k = 0.1250-0.5000-0.5000 (  9632 PWs)   bands (ev):

   -56.4984 -56.4984 -56.4984 -56.4984 -56.4825 -56.4825 -56.4825 -56.4825
   -28.5751 -28.5751 -28.5750 -28.5750 -28.5375 -28.5375 -28.5372 -28.5372
   -27.6082 -27.6082 -27.6027 -27.6027 -27.5509 -27.5509 -27.5351 -27.5351
   -27.5196 -27.5196 -27.5034 -27.5034 -27.4410 -27.4410 -27.4362 -27.4362
     5.4488   5.4488   5.4499   5.4499   6.4886   6.4886   6.4905   6.4905
    10.0927  10.0927  10.0962  10.0962  11.0428  11.0428  11.0445  11.0445
    11.9593  11.9593  11.9617  11.9617  12.3351  12.3351  12.3376  12.3376
    13.2737  13.2737  13.2745  13.2745  13.8458  13.8458  13.8592  13.8592
    14.3438  14.3438  14.3493  14.3493  14.6306  14.6306  14.6472  14.6472
    14.8009  14.8009  14.8029  14.8029  15.3834  15.3834  15.3836  15.3836
    16.5199  16.5200  16.5215  16.5215  16.9688  16.9703

     occupation numbers 
     1.0000   1.0000   1.0000   1.0000   1.0000   1.0000   1.0000   1.0000
     1.0000   1.0000   1.0000   1.0000   1.0000   1.0000   1.0000   1.0000
     1.0000   1.0000   1.0000   1.0000   1.0000   1.0000   1.0000   1.0000
     1.0000   1.0000   1.0000   1.0000   1.0000   1.0000   1.0000   1.0000
     1.0000   1.0000   1.0000   1.0000   1.0000   1.0000   1.0000   1.0000
     1.0000   1.0000   1.0000   1.0000   1.0000   1.0000   1.0000   1.0000
     1.0000   1.0000   1.0000   1.0000   1.0000   1.0000   1.0000   1.0000
     1.0000   1.0000   1.0000   1.0000   1.0000   1.0000   1.0000   1.0000
     1.0000   1.0000   1.0000   1.0000   1.0086   1.0086   1.0117   1.0117
     1.0167   1.0167   1.0148   1.0148  -0.0006  -0.0006  -0.0006  -0.0006
    -0.0000  -0.0000  -0.0000  -0.0000  -0.0000  -0.0000

          k = 0.2500 0.2500 0.2500 (  9651 PWs)   bands (ev):

   -56.5062 -56.5062 -56.4936 -56.4936 -56.4834 -56.4834 -56.4787 -56.4787
   -28.5887 -28.5840 -28.5722 -28.5721 -28.5510 -28.5476 -28.5150 -28.5140
   -27.6312 -27.6277 -27.5848 -27.5736 -27.5612 -27.5586 -27.5456 -27.5453
   -27.5124 -27.5119 -27.4767 -27.4752 -27.4638 -27.4605 -27.4352 -27.4328
     3.9445   3.9447   6.0544   6.0611   6.7951   6.8054   8.0512   8.0521
     9.0666   9.0694  10.0621  10.0656  11.1543  11.1586  11.1985  11.1989
    11.9198  11.9212  12.3550  12.3566  12.8100  12.8166  12.8815  12.8823
    13.1329  13.1398  13.1417  13.1525  13.1840  13.1889  13.7571  13.7659
    13.7731  13.7854  14.0635  14.0709  14.4487  14.4659  14.9855  15.0016
    15.1275  15.1309  15.2647  15.2653  15.3045  15.3103  15.6128  15.6319
    16.1812  16.1894  16.4811  16.4924  17.1246  17.1543

     occupation numbers 
     1.0000   1.0000   1.0000   1.0000   1.0000   1.0000   1.0000   1.0000
     1.0000   1.0000   1.0000   1.0000   1.0000   1.0000   1.0000   1.0000
     1.0000   1.0000   1.0000   1.0000   1.0000   1.0000   1.0000   1.0000
     1.0000   1.0000   1.0000   1.0000   1.0000   1.0000   1.0000   1.0000
     1.0000   1.0000   1.0000   1.0000   1.0000   1.0000   1.0000   1.0000
     1.0000   1.0000   1.0000   1.0000   1.0000   1.0000   1.0000   1.0000
     1.0000   1.0000   1.0000   1.0000   1.0000   1.0000   1.0000   1.0000
     1.0000   1.0000   1.0000   1.0000   1.0000   1.0000   1.0000   1.0000
     1.0000   1.0000   1.0000   1.0000   1.0001   1.0001   0.3362   0.2609
    -0.0308  -0.0320  -0.0106  -0.0105  -0.0048  -0.0042  -0.0000  -0.0000
    -0.0000  -0.0000  -0.0000  -0.0000  -0.0000  -0.0000

          k = 0.2500 0.2500 0.3750 (  9650 PWs)   bands (ev):

   -56.5029 -56.5029 -56.4956 -56.4956 -56.4832 -56.4832 -56.4801 -56.4801
   -28.5847 -28.5809 -28.5735 -28.5722 -28.5455 -28.5430 -28.5245 -28.5232
   -27.6271 -27.6240 -27.5814 -27.5737 -27.5681 -27.5635 -27.5425 -27.5349
   -27.5232 -27.5126 -27.4810 -27.4715 -27.4664 -27.4578 -27.4350 -27.4324
     4.4228   4.4231   5.6840   5.6870   6.9125   6.9185   7.7716   7.7743
     8.9807   8.9846   9.7544   9.7583  11.0332  11.0362  11.5966  11.5994
    11.6770  11.6803  12.2574  12.2621  12.7410  12.7507  12.8765  12.8837
    13.1093  13.1212  13.2122  13.2235  13.2926  13.2966  13.6210  13.6288
    13.9369  13.9469  14.2611  14.2724  14.6146  14.6470  14.8439  14.8631
    15.0189  15.0292  15.1802  15.2065  15.3253  15.3403  15.5243  15.5412
    16.2210  16.2277  16.4116  16.4197  17.1188  17.1338

     occupation numbers 
     1.0000   1.0000   1.0000   1.0000   1.0000   1.0000   1.0000   1.0000
     1.0000   1.0000   1.0000   1.0000   1.0000   1.0000   1.0000   1.0000
     1.0000   1.0000   1.0000   1.0000   1.0000   1.0000   1.0000   1.0000
     1.0000   1.0000   1.0000   1.0000   1.0000   1.0000   1.0000   1.0000
     1.0000   1.0000   1.0000   1.0000   1.0000   1.0000   1.0000   1.0000
     1.0000   1.0000   1.0000   1.0000   1.0000   1.0000   1.0000   1.0000
     1.0000   1.0000   1.0000   1.0000   1.0000   1.0000   1.0000   1.0000
     1.0000   1.0000   1.0000   1.0000   1.0000   1.0000   1.0000   1.0000
     1.0000   1.0000   1.0000   1.0000   1.0062   1.0117   0.9489   0.8972
     0.1882   0.1495  -0.0321  -0.0253  -0.0029  -0.0020  -0.0000  -0.0000
    -0.0000  -0.0000  -0.0000  -0.0000  -0.0000  -0.0000

          k = 0.2500 0.2500-0.5000 (  9666 PWs)   bands (ev):

   -56.4991 -56.4991 -56.4991 -56.4991 -56.4819 -56.4819 -56.4819 -56.4819
   -28.5800 -28.5800 -28.5750 -28.5750 -28.5366 -28.5366 -28.5327 -28.5327
   -27.6237 -27.6237 -27.5774 -27.5774 -27.5682 -27.5682 -27.5348 -27.5348
   -27.5212 -27.5212 -27.4785 -27.4785 -27.4597 -27.4597 -27.4338 -27.4338
     5.0370   5.0370   5.0382   5.0382   7.3196   7.3196   7.3257   7.3257
     9.3110   9.3110   9.3152   9.3152  11.2765  11.2765  11.2788  11.2788
    11.9763  11.9763  11.9845  11.9845  12.8028  12.8028  12.8130  12.8130
    13.1733  13.1733  13.1859  13.1859  13.4379  13.4379  13.4451  13.4451
    14.1671  14.1671  14.1768  14.1768  14.7498  14.7498  14.7771  14.7771
    15.0544  15.0544  15.0733  15.0733  15.4307  15.4307  15.4470  15.4470
    16.3105  16.3105  16.3201  16.3201  17.2554  17.2566

     occupation numbers 
     1.0000   1.0000   1.0000   1.0000   1.0000   1.0000   1.0000   1.0000
     1.0000   1.0000   1.0000   1.0000   1.0000   1.0000   1.0000   1.0000
     1.0000   1.0000   1.0000   1.0000   1.0000   1.0000   1.0000   1.0000
     1.0000   1.0000   1.0000   1.0000   1.0000   1.0000   1.0000   1.0000
     1.0000   1.0000   1.0000   1.0000   1.0000   1.0000   1.0000   1.0000
     1.0000   1.0000   1.0000   1.0000   1.0000   1.0000   1.0000   1.0000
     1.0000   1.0000   1.0000   1.0000   1.0000   1.0000   1.0000   1.0000
     1.0000   1.0000   1.0000   1.0000   1.0000   1.0000   1.0000   1.0000
     1.0000   1.0000   1.0000   1.0000   1.0354   1.0354   1.0315   1.0315
     0.0714   0.0714   0.0284   0.0284  -0.0001  -0.0001  -0.0001  -0.0001
    -0.0000  -0.0000  -0.0000  -0.0000  -0.0000  -0.0000

          k = 0.2500 0.3750 0.3750 (  9650 PWs)   bands (ev):

   -56.5002 -56.5002 -56.4957 -56.4957 -56.4842 -56.4842 -56.4819 -56.4819
   -28.5799 -28.5767 -28.5710 -28.5702 -28.5456 -28.5437 -28.5324 -28.5309
   -27.6198 -27.6171 -27.5850 -27.5803 -27.5692 -27.5649 -27.5435 -27.5325
   -27.5250 -27.5099 -27.4853 -27.4763 -27.4597 -27.4545 -27.4368 -27.4339
     4.8700   4.8706   5.7969   5.8009   6.6825   6.6893   7.3948   7.3980
     8.9589   8.9633   9.5729   9.5783  10.6884  10.6922  11.2069  11.2086
    12.0018  12.0047  12.4199  12.4240  12.6319  12.6374  12.8194  12.8251
    13.1276  13.1359  13.1818  13.1903  13.3819  13.3913  13.5833  13.5952
    14.1410  14.1496  14.4963  14.5135  14.6830  14.7066  14.8366  14.8557
    14.9335  14.9375  15.1301  15.1625  15.2737  15.2855  15.4295  15.4430
    16.2765  16.2841  16.4040  16.4084  16.9726  16.9828

     occupation numbers 
     1.0000   1.0000   1.0000   1.0000   1.0000   1.0000   1.0000   1.0000
     1.0000   1.0000   1.0000   1.0000   1.0000   1.0000   1.0000   1.0000
     1.0000   1.0000   1.0000   1.0000   1.0000   1.0000   1.0000   1.0000
     1.0000   1.0000   1.0000   1.0000   1.0000   1.0000   1.0000   1.0000
     1.0000   1.0000   1.0000   1.0000   1.0000   1.0000   1.0000   1.0000
     1.0000   1.0000   1.0000   1.0000   1.0000   1.0000   1.0000   1.0000
     1.0000   1.0000   1.0000   1.0000   1.0000   1.0000   1.0000   1.0000
     1.0000   1.0000   1.0000   1.0000   1.0000   1.0000   1.0000   1.0000
     1.0000   1.0000   1.0003   1.0005   1.0206   1.0272   0.9648   0.9186
     0.6012   0.5809  -0.0318  -0.0350  -0.0090  -0.0071  -0.0001  -0.0001
    -0.0000  -0.0000  -0.0000  -0.0000  -0.0000  -0.0000

          k = 0.2500 0.3750-0.5000 (  9644 PWs)   bands (ev):

   -56.4974 -56.4974 -56.4974 -56.4974 -56.4835 -56.4835 -56.4835 -56.4835
   -28.5750 -28.5750 -28.5714 -28.5714 -28.5412 -28.5412 -28.5382 -28.5382
   -27.6143 -27.6143 -27.5873 -27.5873 -27.5663 -27.5663 -27.5398 -27.5398
   -27.5149 -27.5149 -27.4838 -27.4838 -27.4536 -27.4536 -27.4367 -27.4367
     5.4125   5.4125   5.4143   5.4143   6.9220   6.9220   6.9274   6.9274
     9.2726   9.2726   9.2777   9.2777  10.7881  10.7881  10.7907  10.7907
    12.2807  12.2807  12.2893  12.2893  12.6857  12.6857  12.6931  12.6931
    13.1714  13.1714  13.1792  13.1792  13.4755  13.4755  13.4885  13.4885
    14.4051  14.4051  14.4139  14.4139  14.7919  14.7919  14.8094  14.8094
    14.9881  14.9881  15.0101  15.0101  15.3471  15.3471  15.3576  15.3576
    16.3655  16.3655  16.3726  16.3726  16.9844  16.9884

     occupation numbers 
     1.0000   1.0000   1.0000   1.0000   1.0000   1.0000   1.0000   1.0000
     1.0000   1.0000   1.0000   1.0000   1.0000   1.0000   1.0000   1.0000
     1.0000   1.0000   1.0000   1.0000   1.0000   1.0000   1.0000   1.0000
     1.0000   1.0000   1.0000   1.0000   1.0000   1.0000   1.0000   1.0000
     1.0000   1.0000   1.0000   1.0000   1.0000   1.0000   1.0000   1.0000
     1.0000   1.0000   1.0000   1.0000   1.0000   1.0000   1.0000   1.0000
     1.0000   1.0000   1.0000   1.0000   1.0000   1.0000   1.0000   1.0000
     1.0000   1.0000   1.0000   1.0000   1.0000   1.0000   1.0000   1.0000
     1.0000   1.0000   1.0000   1.0000   1.0238   1.0238   1.0080   1.0080
     0.3234   0.3234   0.2240   0.2240  -0.0017  -0.0017  -0.0013  -0.0013
    -0.0000  -0.0000  -0.0000  -0.0000  -0.0000  -0.0000

          k = 0.2500-0.5000-0.5000 (  9644 PWs)   bands (ev):

   -56.4965 -56.4965 -56.4965 -56.4965 -56.4844 -56.4844 -56.4844 -56.4844
   -28.5712 -28.5712 -28.5708 -28.5708 -28.5424 -28.5424 -28.5420 -28.5420
   -27.6056 -27.6056 -27.5969 -27.5969 -27.5643 -27.5643 -27.5422 -27.5422
   -27.5106 -27.5106 -27.4885 -27.4885 -27.4481 -27.4481 -27.4401 -27.4401
     5.6736   5.6736   5.6757   5.6757   6.6212   6.6212   6.6254   6.6254
     9.3817   9.3817   9.3871   9.3871  10.5091  10.5091  10.5123  10.5123
    12.4774  12.4774  12.4806  12.4806  12.5635  12.5635  12.5656  12.5656
    13.1147  13.1147  13.1150  13.1150  13.5543  13.5543  13.5671  13.5671
    14.5073  14.5073  14.5160  14.5160  14.8355  14.8355  14.8502  14.8502
    14.9374  14.9374  14.9385  14.9385  15.3089  15.3089  15.3118  15.3118
    16.4144  16.4144  16.4151  16.4151  16.8612  16.8640

     occupation numbers 
     1.0000   1.0000   1.0000   1.0000   1.0000   1.0000   1.0000   1.0000
     1.0000   1.0000   1.0000   1.0000   1.0000   1.0000   1.0000   1.0000
     1.0000   1.0000   1.0000   1.0000   1.0000   1.0000   1.0000   1.0000
     1.0000   1.0000   1.0000   1.0000   1.0000   1.0000   1.0000   1.0000
     1.0000   1.0000   1.0000   1.0000   1.0000   1.0000   1.0000   1.0000
     1.0000   1.0000   1.0000   1.0000   1.0000   1.0000   1.0000   1.0000
     1.0000   1.0000   1.0000   1.0000   1.0000   1.0000   1.0000   1.0000
     1.0000   1.0000   1.0000   1.0000   1.0000   1.0000   1.0000   1.0000
     1.0004   1.0004   1.0005   1.0005   0.9669   0.9669   0.9333   0.9333
     0.5816   0.5816   0.5761   0.5761  -0.0043  -0.0043  -0.0040  -0.0040
    -0.0000  -0.0000  -0.0000  -0.0000  -0.0000  -0.0000

          k = 0.3750 0.3750 0.3750 (  9682 PWs)   bands (ev):

   -56.4976 -56.4976 -56.4944 -56.4944 -56.4859 -56.4859 -56.4839 -56.4839
   -28.5746 -28.5719 -28.5669 -28.5665 -28.5489 -28.5471 -28.5396 -28.5378
   -27.6125 -27.6099 -27.5840 -27.5784 -27.5771 -27.5752 -27.5467 -27.5407
   -27.5148 -27.5040 -27.4796 -27.4665 -27.4629 -27.4609 -27.4406 -27.4382
     5.2850   5.2858   6.0003   6.0065   6.6317   6.6416   7.1893   7.1928
     8.7559   8.7617   9.2624   9.2698  10.1955  10.2005  10.6462  10.6486
    12.3231  12.3262  12.5907  12.5950  12.7692  12.7726  12.8665  12.8683
    13.1088  13.1192  13.1688  13.1740  13.2703  13.2706  13.3947  13.3994
    14.3603  14.3630  14.7223  14.7435  14.7817  14.7905  14.9224  14.9572
    15.0670  15.0733  15.0963  15.1019  15.2534  15.2839  15.3067  15.3283
    16.2843  16.2919  16.3584  16.3602  16.8094  16.8137

     occupation numbers 
     1.0000   1.0000   1.0000   1.0000   1.0000   1.0000   1.0000   1.0000
     1.0000   1.0000   1.0000   1.0000   1.0000   1.0000   1.0000   1.0000
     1.0000   1.0000   1.0000   1.0000   1.0000   1.0000   1.0000   1.0000
[...]
    11.8724  11.8724  11.8757  11.8757  12.3352  12.3352  12.3430  12.3430
    13.3010  13.3010  13.3064  13.3064  13.9486  13.9486  13.9552  13.9552
    14.0778  14.0778  14.0856  14.0856  14.6215  14.6215  14.6534  14.6534
    14.8214  14.8214  14.8616  14.8616  15.4447  15.4447  15.4639  15.4639
    16.4433  16.4434  16.4556  16.4556  17.1877  17.1881

     occupation numbers 
     1.0000   1.0000   1.0000   1.0000   1.0000   1.0000   1.0000   1.0000
     1.0000   1.0000   1.0000   1.0000   1.0000   1.0000   1.0000   1.0000
     1.0000   1.0000   1.0000   1.0000   1.0000   1.0000   1.0000   1.0000
     1.0000   1.0000   1.0000   1.0000   1.0000   1.0000   1.0000   1.0000
     1.0000   1.0000   1.0000   1.0000   1.0000   1.0000   1.0000   1.0000
     1.0000   1.0000   1.0000   1.0000   1.0000   1.0000   1.0000   1.0000
     1.0000   1.0000   1.0000   1.0000   1.0000   1.0000   1.0000   1.0000
     1.0000   1.0000   1.0000   1.0000   1.0000   1.0000   1.0000   1.0000
     1.0000   1.0000   1.0000   1.0000   1.0072   1.0072   1.0131   1.0131
     0.9919   0.9919   0.9017   0.9017  -0.0001  -0.0001  -0.0000  -0.0000
    -0.0000  -0.0000  -0.0000  -0.0000  -0.0000  -0.0000

          k =-0.1250 0.3750 0.2500 (  9647 PWs)   bands (ev):

   -56.5048 -56.5048 -56.4963 -56.4963 -56.4819 -56.4819 -56.4789 -56.4789
   -28.5878 -28.5837 -28.5771 -28.5755 -28.5432 -28.5406 -28.5189 -28.5178
   -27.6322 -27.6294 -27.5813 -27.5757 -27.5640 -27.5562 -27.5427 -27.5367
   -27.5210 -27.5100 -27.4842 -27.4784 -27.4644 -27.4527 -27.4351 -27.4329
     4.1381   4.1383   5.4905   5.4920   7.0413   7.0440   7.9715   7.9757
     9.4174   9.4199  10.2013  10.2027  10.9146  10.9161  11.5448  11.5484
    11.7462  11.7484  12.1888  12.1925  12.6582  12.6627  12.8599  12.8654
    13.0824  13.0870  13.2581  13.2700  13.4124  13.4156  13.6449  13.6562
    13.7946  13.8035  14.0768  14.0857  14.4877  14.5147  14.8188  14.8467
    15.0836  15.1027  15.1627  15.1804  15.4826  15.4947  15.6225  15.6410
    16.1948  16.2030  16.4159  16.4275  17.2533  17.2829

     occupation numbers 
     1.0000   1.0000   1.0000   1.0000   1.0000   1.0000   1.0000   1.0000
     1.0000   1.0000   1.0000   1.0000   1.0000   1.0000   1.0000   1.0000
     1.0000   1.0000   1.0000   1.0000   1.0000   1.0000   1.0000   1.0000
     1.0000   1.0000   1.0000   1.0000   1.0000   1.0000   1.0000   1.0000
     1.0000   1.0000   1.0000   1.0000   1.0000   1.0000   1.0000   1.0000
     1.0000   1.0000   1.0000   1.0000   1.0000   1.0000   1.0000   1.0000
     1.0000   1.0000   1.0000   1.0000   1.0000   1.0000   1.0000   1.0000
     1.0000   1.0000   1.0000   1.0000   1.0000   1.0000   1.0000   1.0000
     1.0000   1.0000   1.0000   1.0000   1.0002   1.0005   0.9957   0.9421
     0.0104  -0.0140  -0.0350  -0.0321  -0.0000  -0.0000  -0.0000  -0.0000
    -0.0000  -0.0000  -0.0000  -0.0000  -0.0000  -0.0000

          k =-0.1250-0.5000 0.2500 (  9646 PWs)   bands (ev):

   -56.5005 -56.5005 -56.5005 -56.5005 -56.4804 -56.4804 -56.4804 -56.4804
   -28.5837 -28.5837 -28.5783 -28.5783 -28.5322 -28.5322 -28.5286 -28.5286
   -27.6299 -27.6299 -27.5774 -27.5774 -27.5623 -27.5623 -27.5337 -27.5337
   -27.5210 -27.5210 -27.4833 -27.4833 -27.4570 -27.4570 -27.4335 -27.4335
     4.7804   4.7804   4.7812   4.7812   7.4711   7.4711   7.4756   7.4756
     9.7731   9.7731   9.7741   9.7741  11.2719  11.2719  11.2770  11.2770
    11.9365  11.9365  11.9416  11.9416  12.7536  12.7536  12.7636  12.7636
    13.1575  13.1575  13.1662  13.1662  13.5588  13.5588  13.5670  13.5670
    13.9622  13.9622  13.9716  13.9716  14.6791  14.6791  14.7127  14.7127
    15.0775  15.0775  15.1025  15.1025  15.5300  15.5300  15.5519  15.5519
    16.2883  16.2883  16.2989  16.2989  17.4674  17.4683

     occupation numbers 
     1.0000   1.0000   1.0000   1.0000   1.0000   1.0000   1.0000   1.0000
     1.0000   1.0000   1.0000   1.0000   1.0000   1.0000   1.0000   1.0000
     1.0000   1.0000   1.0000   1.0000   1.0000   1.0000   1.0000   1.0000
     1.0000   1.0000   1.0000   1.0000   1.0000   1.0000   1.0000   1.0000
     1.0000   1.0000   1.0000   1.0000   1.0000   1.0000   1.0000   1.0000
     1.0000   1.0000   1.0000   1.0000   1.0000   1.0000   1.0000   1.0000
     1.0000   1.0000   1.0000   1.0000   1.0000   1.0000   1.0000   1.0000
     1.0000   1.0000   1.0000   1.0000   1.0000   1.0000   1.0000   1.0000
     1.0000   1.0000   1.0000   1.0000   1.0195   1.0195   1.0288   1.0288
     0.0206   0.0206  -0.0138  -0.0138  -0.0000  -0.0000  -0.0000  -0.0000
    -0.0000  -0.0000  -0.0000  -0.0000  -0.0000  -0.0000

          k =-0.1250-0.5000 0.3750 (  9656 PWs)   bands (ev):

   -56.4991 -56.4991 -56.4991 -56.4991 -56.4819 -56.4819 -56.4819 -56.4819
   -28.5788 -28.5788 -28.5751 -28.5751 -28.5366 -28.5366 -28.5337 -28.5337
   -27.6193 -27.6193 -27.5903 -27.5903 -27.5552 -27.5552 -27.5328 -27.5328
   -27.5229 -27.5229 -27.4960 -27.4960 -27.4470 -27.4470 -27.4337 -27.4337
     5.1729   5.1729   5.1740   5.1740   6.8571   6.8571   6.8599   6.8599
     9.9473   9.9473   9.9498   9.9498  11.1545  11.1545  11.1577  11.1577
    11.9545  11.9545  11.9600  11.9600  12.4570  12.4570  12.4663  12.4663
    13.2313  13.2313  13.2373  13.2373  13.7790  13.7790  13.7920  13.7920
    14.1903  14.1903  14.1987  14.1987  14.6772  14.6772  14.7040  14.7040
    14.8663  14.8663  14.9050  14.9050  15.4156  15.4156  15.4319  15.4319
    16.4120  16.4120  16.4233  16.4233  17.1482  17.1489

     occupation numbers 
     1.0000   1.0000   1.0000   1.0000   1.0000   1.0000   1.0000   1.0000
     1.0000   1.0000   1.0000   1.0000   1.0000   1.0000   1.0000   1.0000
     1.0000   1.0000   1.0000   1.0000   1.0000   1.0000   1.0000   1.0000
     1.0000   1.0000   1.0000   1.0000   1.0000   1.0000   1.0000   1.0000
     1.0000   1.0000   1.0000   1.0000   1.0000   1.0000   1.0000   1.0000
     1.0000   1.0000   1.0000   1.0000   1.0000   1.0000   1.0000   1.0000
     1.0000   1.0000   1.0000   1.0000   1.0000   1.0000   1.0000   1.0000
     1.0000   1.0000   1.0000   1.0000   1.0000   1.0000   1.0000   1.0000
     1.0000   1.0000   1.0000   1.0000   1.0190   1.0190   1.0265   1.0265
     0.8874   0.8874   0.7380   0.7380  -0.0002  -0.0002  -0.0001  -0.0001
    -0.0000  -0.0000  -0.0000  -0.0000  -0.0000  -0.0000

          k =-0.2500-0.5000 0.3750 (  9644 PWs)   bands (ev):

   -56.4974 -56.4974 -56.4974 -56.4974 -56.4835 -56.4835 -56.4835 -56.4835
   -28.5750 -28.5750 -28.5714 -28.5714 -28.5413 -28.5413 -28.5382 -28.5382
   -27.6143 -27.6143 -27.5871 -27.5871 -27.5664 -27.5664 -27.5397 -27.5397
   -27.5150 -27.5150 -27.4837 -27.4837 -27.4536 -27.4536 -27.4367 -27.4367
     5.4124   5.4124   5.4140   5.4140   6.9228   6.9228   6.9275   6.9275
     9.2750   9.2750   9.2798   9.2798  10.7782  10.7782  10.7809  10.7809
    12.2797  12.2797  12.2880  12.2880  12.7218  12.7218  12.7317  12.7317
    13.1090  13.1090  13.1180  13.1180  13.5271  13.5271  13.5388  13.5388
    14.3797  14.3797  14.3869  14.3869  14.7980  14.7980  14.8164  14.8164
    14.9943  14.9943  15.0260  15.0260  15.3328  15.3328  15.3469  15.3469
    16.3545  16.3546  16.3644  16.3644  17.0021  17.0027

     occupation numbers 
     1.0000   1.0000   1.0000   1.0000   1.0000   1.0000   1.0000   1.0000
     1.0000   1.0000   1.0000   1.0000   1.0000   1.0000   1.0000   1.0000
     1.0000   1.0000   1.0000   1.0000   1.0000   1.0000   1.0000   1.0000
     1.0000   1.0000   1.0000   1.0000   1.0000   1.0000   1.0000   1.0000
     1.0000   1.0000   1.0000   1.0000   1.0000   1.0000   1.0000   1.0000
     1.0000   1.0000   1.0000   1.0000   1.0000   1.0000   1.0000   1.0000
     1.0000   1.0000   1.0000   1.0000   1.0000   1.0000   1.0000   1.0000
     1.0000   1.0000   1.0000   1.0000   1.0000   1.0000   1.0000   1.0000
     1.0000   1.0000   1.0000   1.0000   1.0192   1.0192   0.9992   0.9992
     0.2942   0.2942   0.1612   0.1612  -0.0024  -0.0024  -0.0017  -0.0017
    -0.0000  -0.0000  -0.0000  -0.0000  -0.0000  -0.0000

     the Fermi energy is    14.9532 ev

!    total energy              =   -1180.35058236 Ry

     total all-electron energy =    -10727.811419 Ry
     estimated scf accuracy    <       0.00000014 Ry
     smearing contrib. (-TS)   =       0.00024628 Ry
     internal energy E=F+TS    =   -1180.35082864 Ry

     The total energy is F=E-TS. E is the sum of the following terms:
     one-electron contribution =    -336.79113613 Ry
     hartree contribution      =     207.03425616 Ry
     xc contribution           =    -114.36118574 Ry
     ewald contribution        =    -496.51183961 Ry
     one-center paw contrib.   =    -439.72092332 Ry
      -> PAW hartree energy AE =     126.71207761 Ry
      -> PAW hartree energy PS =    -125.74473740 Ry
      -> PAW xc energy AE      =     -96.23949994 Ry
      -> PAW xc energy PS      =      20.93213704 Ry
      -> total E_H with PAW    =     208.00159636 Ry
      -> total E_XC with PAW   =    -189.66854864 Ry

     convergence has been achieved in   8 iterations

     Forces acting on atoms (cartesian axes, Ry/au):

     atom    1 type  1   force =    -0.00275825   -0.00275825    0.00275825
     atom    2 type  1   force =    -0.00275825    0.00275825   -0.00275825
     atom    3 type  1   force =     0.00275825   -0.00275825   -0.00275825
     atom    4 type  1   force =     0.00275825    0.00275825    0.00275825
     atom    5 type  2   force =    -0.00432677   -0.00432677    0.00432677
     atom    6 type  2   force =    -0.00432677    0.00432677   -0.00432677
     atom    7 type  2   force =     0.00432677   -0.00432677   -0.00432677
     atom    8 type  2   force =     0.00432677    0.00432677    0.00432677
     The non-local contrib.  to forces
     atom    1 type  1   force =     0.05117359    0.05117359   -0.05117359
     atom    2 type  1   force =     0.05117359   -0.05117359    0.05117359
     atom    3 type  1   force =    -0.05117359    0.05117359    0.05117359
     atom    4 type  1   force =    -0.05117359   -0.05117359   -0.05117359
     atom    5 type  2   force =    -0.00801453   -0.00801453    0.00801453
     atom    6 type  2   force =    -0.00801453    0.00801453   -0.00801453
     atom    7 type  2   force =     0.00801453   -0.00801453   -0.00801453
     atom    8 type  2   force =     0.00801453    0.00801453    0.00801453
     The ionic contribution  to forces
     atom    1 type  1   force =    -0.85044630   -0.85044630    0.85044630
     atom    2 type  1   force =    -0.85044630    0.85044630   -0.85044630
     atom    3 type  1   force =     0.85044630   -0.85044630   -0.85044630
     atom    4 type  1   force =     0.85044630    0.85044630    0.85044630
     atom    5 type  2   force =    -0.24524978   -0.24524978    0.24524978
     atom    6 type  2   force =    -0.24524978    0.24524978   -0.24524978
     atom    7 type  2   force =     0.24524978   -0.24524978   -0.24524978
     atom    8 type  2   force =     0.24524978    0.24524978    0.24524978
     The local contribution  to forces
     atom    1 type  1   force =     0.79749864    0.79749864   -0.79749864
     atom    2 type  1   force =     0.79749864   -0.79749864    0.79749864
     atom    3 type  1   force =    -0.79749864    0.79749864    0.79749864
     atom    4 type  1   force =    -0.79749864   -0.79749864   -0.79749864
     atom    5 type  2   force =     0.24815599    0.24815599   -0.24815599
     atom    6 type  2   force =     0.24815599   -0.24815599    0.24815599
     atom    7 type  2   force =    -0.24815599    0.24815599    0.24815599
     atom    8 type  2   force =    -0.24815599   -0.24815599   -0.24815599
     The core correction contribution to forces
     atom    1 type  1   force =    -0.00103026   -0.00103026    0.00103026
     atom    2 type  1   force =    -0.00103026    0.00103026   -0.00103026
     atom    3 type  1   force =     0.00103026   -0.00103026   -0.00103026
     atom    4 type  1   force =     0.00103026    0.00103026    0.00103026
     atom    5 type  2   force =     0.00078943    0.00078943   -0.00078943
     atom    6 type  2   force =     0.00078943   -0.00078943    0.00078943
     atom    7 type  2   force =    -0.00078943    0.00078943    0.00078943
     atom    8 type  2   force =    -0.00078943   -0.00078943   -0.00078943
     The Hubbard contrib.    to forces
     atom    1 type  1   force =     0.00000000    0.00000000    0.00000000
     atom    2 type  1   force =     0.00000000    0.00000000    0.00000000
     atom    3 type  1   force =     0.00000000    0.00000000    0.00000000
     atom    4 type  1   force =     0.00000000    0.00000000    0.00000000
     atom    5 type  2   force =     0.00000000    0.00000000    0.00000000
     atom    6 type  2   force =     0.00000000    0.00000000    0.00000000
     atom    7 type  2   force =     0.00000000    0.00000000    0.00000000
     atom    8 type  2   force =     0.00000000    0.00000000    0.00000000
     The SCF correction term to forces
     atom    1 type  1   force =     0.00004607    0.00004607   -0.00004607
     atom    2 type  1   force =     0.00004607   -0.00004607    0.00004607
     atom    3 type  1   force =    -0.00004607    0.00004607    0.00004607
     atom    4 type  1   force =    -0.00004607   -0.00004607   -0.00004607
     atom    5 type  2   force =    -0.00000788   -0.00000788    0.00000788
     atom    6 type  2   force =    -0.00000788    0.00000788   -0.00000788
     atom    7 type  2   force =     0.00000788   -0.00000788   -0.00000788
     atom    8 type  2   force =     0.00000788    0.00000788    0.00000788

     Total force =     0.017775     Total SCF correction =     0.000162


     Computing stress (Cartesian axis) and pressure

          total   stress  (Ry/bohr**3)                   (kbar)     P=      -42.60
  -0.00028956   0.00000000   0.00000000          -42.60        0.00        0.00
   0.00000000  -0.00028956   0.00000000            0.00      -42.60        0.00
   0.00000000   0.00000000  -0.00028956            0.00        0.00      -42.60

     kinetic stress (kbar)  35759.56      0.00      0.00
                                0.00  35759.56      0.00
                                0.00      0.00  35759.56

     local   stress (kbar) -10012.20     -0.00     -0.00
                               -0.00 -10012.20     -0.00
                               -0.00     -0.00 -10012.20

     nonloc. stress (kbar)   2427.17      0.00      0.00
                                0.00   2427.17      0.00
                                0.00      0.00   2427.17

     hartree stress (kbar)  15166.68     -0.00      0.00
                               -0.00  15166.68     -0.00
                                0.00     -0.00  15166.68

     exc-cor stress (kbar)  -1706.54     -0.00     -0.00
                               -0.00  -1706.54     -0.00
                               -0.00     -0.00  -1706.54

     corecor stress (kbar)  -5304.37      0.00      0.00
                                0.00  -5304.37     -0.00
                                0.00     -0.00  -5304.37

     ewald   stress (kbar) -36372.90      0.00      0.00
                                0.00 -36372.90      0.00
                                0.00      0.00 -36372.90

     hubbard stress (kbar)      0.00      0.00      0.00
                                0.00      0.00      0.00
                                0.00      0.00      0.00

     DFT-D   stress (kbar)      0.00      0.00      0.00
                                0.00      0.00      0.00
                                0.00      0.00      0.00

     XDM     stress (kbar)      0.00      0.00      0.00
                                0.00      0.00      0.00
                                0.00      0.00      0.00

     dft-nl  stress (kbar)      0.00      0.00      0.00
                                0.00      0.00      0.00
                                0.00      0.00      0.00

     TS-vdW  stress (kbar)      0.00      0.00      0.00
                                0.00      0.00      0.00
                                0.00      0.00      0.00



     Writing output data file /zfs_data/vergnior/martin/Scratch/OAL/CrSi/convergence/smearing/8x8x8/0.012/tmp/CrSi.save/
 
     init_run     :      8.82s CPU      9.20s WALL (       1 calls)
     electrons    :    253.29s CPU    258.62s WALL (       1 calls)
     forces       :      8.41s CPU      8.52s WALL (       1 calls)
     stress       :     21.33s CPU     21.58s WALL (       1 calls)

     Called by init_run:
     wfcinit      :      7.53s CPU      7.74s WALL (       1 calls)
     wfcinit:atom :      0.06s CPU      0.06s WALL (      45 calls)
     wfcinit:wfcr :      7.20s CPU      7.40s WALL (      45 calls)
     potinit      :      0.22s CPU      0.29s WALL (       1 calls)
     hinit0       :      0.19s CPU      0.20s WALL (       1 calls)

     Called by electrons:
     c_bands      :    202.76s CPU    205.98s WALL (       9 calls)
     sum_band     :     44.78s CPU     46.22s WALL (       9 calls)
     v_of_rho     :      0.24s CPU      0.25s WALL (       9 calls)
     v_h          :      0.02s CPU      0.02s WALL (       9 calls)
     v_xc         :      0.27s CPU      0.28s WALL (      11 calls)
     newd         :      4.65s CPU      5.33s WALL (       9 calls)
     PAW_pot      :      1.26s CPU      1.29s WALL (       9 calls)
     mix_rho      :      0.15s CPU      0.15s WALL (       9 calls)

     Called by c_bands:
     init_us_2    :      1.05s CPU      1.07s WALL (     945 calls)
     cegterg      :    185.94s CPU    189.02s WALL (     405 calls)

     Called by sum_band:
     sum_band:wei :      0.06s CPU      0.06s WALL (       9 calls)
     sum_band:loo :     41.15s CPU     41.75s WALL (       9 calls)
     sum_band:buf :      0.29s CPU      0.32s WALL (     405 calls)
     sum_band:ini :      0.47s CPU      0.48s WALL (     405 calls)
     sum_band:cal :      2.53s CPU      2.54s WALL (     405 calls)
     sum_band:bec :      5.67s CPU      5.69s WALL (     405 calls)
     addusdens    :      3.36s CPU      4.19s WALL (       9 calls)
     addusd:skk   :      0.01s CPU      0.01s WALL (      18 calls)
     addusd:dgemm :      1.28s CPU      2.08s WALL (      18 calls)
     addusd:qvan2 :      2.03s CPU      2.04s WALL (      18 calls)

     Called by *egterg:
     cdiaghg      :     16.58s CPU     16.65s WALL (    2181 calls)
     cegterg:over :     10.25s CPU     10.30s WALL (    1821 calls)
     cegterg:upda :      4.89s CPU      4.91s WALL (    1821 calls)
     cegterg:last :      8.74s CPU      8.77s WALL (    1056 calls)
     h_psi        :    130.31s CPU    133.33s WALL (    2271 calls)
     s_psi        :     17.22s CPU     17.28s WALL (    2271 calls)
     g_psi        :      0.29s CPU      0.30s WALL (    1821 calls)

     Called by h_psi:
     h_psi:calbec :      8.66s CPU      8.72s WALL (    2271 calls)
     vloc_psi     :    105.33s CPU    108.17s WALL (    2271 calls)
     add_vuspsi   :     15.67s CPU     15.77s WALL (    2271 calls)

     General routines
     calbec       :     12.58s CPU     12.67s WALL (    2901 calls)
     fft          :      0.27s CPU      0.28s WALL (     216 calls)
     ffts         :      0.04s CPU      0.10s WALL (      72 calls)
     fftw         :     88.74s CPU     91.07s WALL (  529308 calls)
     interpolate  :      0.08s CPU      0.14s WALL (      36 calls)
 
     Parallel routines
     fft_scatt_xy :      9.10s CPU      9.35s WALL (  529596 calls)
     fft_scatt_yz :     33.62s CPU     34.46s WALL (  529596 calls)

     PAW routines
     PAW_pot      :      1.26s CPU      1.29s WALL (       9 calls)
     PAW_symme    :      0.02s CPU      0.02s WALL (      18 calls)
 
     PWSCF        :   4m55.33s CPU   5m 3.26s WALL

 
   This run was terminated on:  12:50:25   1Aug2021            

=------------------------------------------------------------------------------=
   JOB DONE.
=------------------------------------------------------------------------------=
