
     Program PWSCF v.6.7MaX starts on 18May2022 at 15:54: 5 

     This program is part of the open-source Quantum ESPRESSO suite
     for quantum simulation of materials; please cite
         "P. Giannozzi et al., J. Phys.:Condens. Matter 21 395502 (2009);
         "P. Giannozzi et al., J. Phys.:Condens. Matter 29 465901 (2017);
          URL http://www.quantum-espresso.org", 
     in publications or presentations arising from this work. More details at
     http://www.quantum-espresso.org/quote

     Parallel version (MPI), running on    48 processors

     MPI processes distributed on     1 nodes
     R & G space division:  proc/nbgrp/npool/nimage =      48
     Waiting for input...
     Reading input from standard input

     Current dimensions of program PWSCF are:
     Max number of different atomic species (ntypx) = 10
     Max number of k-points (npk) =  40000
     Max angular momentum in pseudopotentials (lmaxx) =  3
     file O.pbe-nl-kjpaw_psl.1.0.0.UPF: wavefunction(s)  2S 2P renormalized
     file Cl.pbe-nl-kjpaw_psl.1.0.0.UPF: wavefunction(s)  3S renormalized
     file Nb.pbe-spn-kjpaw_psl.1.0.0.UPF: wavefunction(s)  4S 4P 4D renormalized

     Subspace diagonalization in iterative solution of the eigenvalue problem:
     a serial algorithm will be used

     Message from routine setup:
     using ibrav=0 with symmetry is DISCOURAGED, use correct ibrav instead
 
     Parallelization info
     --------------------
     sticks:   dense  smooth     PW     G-vecs:    dense   smooth      PW
     Min         131      52     17                 3567      901     174
     Max         132      53     18                 3570      904     176
     Sum        6335    2527    847               171331    43317    8415
 


     bravais-lattice index     =            0
     lattice parameter (alat)  =      12.6717  a.u.
     unit-cell volume          =     547.9313 (a.u.)^3
     number of atoms/cell      =            4
     number of atomic types    =            3
     number of electrons       =        33.00
     number of Kohn-Sham states=           21
     kinetic-energy cutoff     =      70.0000  Ry
     charge density cutoff     =     700.0000  Ry
     scf convergence threshold =      1.0E-10
     mixing beta               =       0.7000
     number of iterations used =            8  plain     mixing
     Exchange-correlation= SLA  PW   PBX  PBC
                           (   1   4   3   4   0   0   0)

     celldm(1)=  12.671676  celldm(2)=   0.000000  celldm(3)=   0.000000
     celldm(4)=   0.000000  celldm(5)=   0.000000  celldm(6)=   0.000000

     crystal axes: (cart. coord. in units of alat)
               a(1) = (  -0.250426   0.291161   0.923316 )  
               a(2) = (   0.250426  -0.291161   0.923316 )  
               a(3) = (   0.250426   0.291161  -0.923316 )  

     reciprocal axes: (cart. coord. in units 2 pi/alat)
               b(1) = (  0.000000  1.717261  0.541527 )  
               b(2) = (  1.996594  0.000000  0.541527 )  
               b(3) = (  1.996594  1.717261  0.000000 )  


     PseudoPot. # 1 for O  read from file:
     /zfs_data/gutierre/Scratch/Cl2NbO/convergence/cutoff/8x8x8/70/pseudo/O.pbe-nl-kjpaw_psl.1.0.0.UPF
     MD5 check sum: df3ddea38124b4e5de5e1084591730e4
     Pseudo is Projector augmented-wave + core cor, Zval =  6.0
     Generated using 'atomic' code by A. Dal Corso  v.6.7MaX
     Shape of augmentation charge: PSQ
     Using radial grid of 1095 points,  4 beta functions with: 
                l(1) =   0
                l(2) =   0
                l(3) =   1
                l(4) =   1
     Q(r) pseudized with 0 coefficients 


     PseudoPot. # 2 for Cl read from file:
     /zfs_data/gutierre/Scratch/Cl2NbO/convergence/cutoff/8x8x8/70/pseudo/Cl.pbe-nl-kjpaw_psl.1.0.0.UPF
     MD5 check sum: 8cf6bde52c08f6236e0f72a8870677af
     Pseudo is Projector augmented-wave + core cor, Zval =  7.0
     Generated using 'atomic' code by A. Dal Corso  v.6.7MaX
     Shape of augmentation charge: PSQ
     Using radial grid of 1157 points,  4 beta functions with: 
                l(1) =   0
                l(2) =   0
                l(3) =   1
                l(4) =   1
     Q(r) pseudized with 0 coefficients 


     PseudoPot. # 3 for Nb read from file:
     /zfs_data/gutierre/Scratch/Cl2NbO/convergence/cutoff/8x8x8/70/pseudo/Nb.pbe-spn-kjpaw_psl.1.0.0.UPF
     MD5 check sum: 1ec1a3aa7bf3cbf7f7e0d720422bce7a
     Pseudo is Projector augmented-wave + core cor, Zval = 13.0
     Generated using 'atomic' code by A. Dal Corso  v.6.7MaX
     Shape of augmentation charge: PSQ
     Using radial grid of 1227 points,  6 beta functions with: 
                l(1) =   0
                l(2) =   0
                l(3) =   1
                l(4) =   1
                l(5) =   2
                l(6) =   2
     Q(r) pseudized with 0 coefficients 


     atomic species   valence    mass     pseudopotential
        O              6.00    15.99940     O ( 1.00)
        Cl             7.00    35.45150     Cl( 1.00)
        Nb            13.00    92.90637     Nb( 1.00)

      8 Sym. Ops., with inversion, found


                                    s                        frac. trans.

      isym =  1     identity                                     

 cryst.   s( 1) = (     1          0          0      )
                  (     0          1          0      )
                  (     0          0          1      )

 cart.    s( 1) = (  1.0000000  0.0000000  0.0000000 )
                  (  0.0000000  1.0000000  0.0000000 )
                  (  0.0000000  0.0000000  1.0000000 )


      isym =  2     180 deg rotation - cart. axis [0,0,1]        

 cryst.   s( 2) = (     0          1          0      )
                  (     1          0          0      )
                  (    -1         -1         -1      )

 cart.    s( 2) = ( -1.0000000  0.0000000  0.0000000 )
                  (  0.0000000 -1.0000000  0.0000000 )
                  (  0.0000000  0.0000000  1.0000000 )


      isym =  3     180 deg rotation - cart. axis [0,1,0]        

 cryst.   s( 3) = (     0          0          1      )
                  (    -1         -1         -1      )
                  (     1          0          0      )

 cart.    s( 3) = ( -1.0000000  0.0000000  0.0000000 )
                  (  0.0000000  1.0000000  0.0000000 )
                  (  0.0000000  0.0000000 -1.0000000 )


      isym =  4     180 deg rotation - cart. axis [1,0,0]        

 cryst.   s( 4) = (    -1         -1         -1      )
                  (     0          0          1      )
                  (     0          1          0      )

 cart.    s( 4) = (  1.0000000  0.0000000  0.0000000 )
                  (  0.0000000 -1.0000000  0.0000000 )
                  (  0.0000000  0.0000000 -1.0000000 )


      isym =  5     inversion                                    

 cryst.   s( 5) = (    -1          0          0      )
                  (     0         -1          0      )
                  (     0          0         -1      )

 cart.    s( 5) = ( -1.0000000  0.0000000  0.0000000 )
                  (  0.0000000 -1.0000000  0.0000000 )
                  (  0.0000000  0.0000000 -1.0000000 )


      isym =  6     inv. 180 deg rotation - cart. axis [0,0,1]   

 cryst.   s( 6) = (     0         -1          0      )
                  (    -1          0          0      )
                  (     1          1          1      )

 cart.    s( 6) = (  1.0000000  0.0000000  0.0000000 )
                  (  0.0000000  1.0000000  0.0000000 )
                  (  0.0000000  0.0000000 -1.0000000 )


      isym =  7     inv. 180 deg rotation - cart. axis [0,1,0]   

 cryst.   s( 7) = (     0          0         -1      )
                  (     1          1          1      )
                  (    -1          0          0      )

 cart.    s( 7) = (  1.0000000  0.0000000  0.0000000 )
                  (  0.0000000 -1.0000000  0.0000000 )
                  (  0.0000000  0.0000000  1.0000000 )


      isym =  8     inv. 180 deg rotation - cart. axis [1,0,0]   

 cryst.   s( 8) = (     1          1          1      )
                  (     0          0         -1      )
                  (     0         -1          0      )

 cart.    s( 8) = ( -1.0000000  0.0000000  0.0000000 )
                  (  0.0000000  1.0000000  0.0000000 )
                  (  0.0000000  0.0000000  1.0000000 )


   Cartesian axes

     site n.     atom                  positions (alat units)
         1           O   tau(   1) = (   0.0000000   0.2911613   0.0000000  )
         2           Cl  tau(   2) = (  -0.0000000   0.2911613   0.6365338  )
         3           Cl  tau(   3) = (   0.2504264  -0.0000000   0.2867819  )
         4           Nb  tau(   4) = (   0.0000000   0.0000000   0.0000000  )

   Crystallographic axes

     site n.     atom                  positions (cryst. coord.)
         1           O   tau(   1) = (  0.5000000  0.0000000  0.5000000  )
         2           Cl  tau(   2) = (  0.8447000  0.3447000  0.5000000  )
         3           Cl  tau(   3) = (  0.1553000  0.6553000  0.5000000  )
         4           Nb  tau(   4) = (  0.0000000  0.0000000  0.0000000  )

     number of k points=    95  Methfessel-Paxton smearing, width (Ry)=  0.0120
                       cart. coord. in units 2pi/alat
        k(    1) = (   0.0000000   0.0000000   0.0000000), wk =   0.0039062
        k(    2) = (   0.2495743   0.2146577   0.0000000), wk =   0.0156250
        k(    3) = (   0.4991486   0.4293153   0.0000000), wk =   0.0156250
        k(    4) = (   0.7487229   0.6439730   0.0000000), wk =   0.0156250
        k(    5) = (  -0.9982971  -0.8586307   0.0000000), wk =   0.0078125
        k(    6) = (   0.2495743   0.0000000   0.0676908), wk =   0.0156250
        k(    7) = (   0.4991486   0.2146577   0.0676908), wk =   0.0312500
        k(    8) = (   0.7487229   0.4293153   0.0676908), wk =   0.0312500
        k(    9) = (   0.9982971   0.6439730   0.0676908), wk =   0.0312500
        k(   10) = (  -0.7487229  -0.8586307   0.0676908), wk =   0.0312500
        k(   11) = (  -0.4991486  -0.6439730   0.0676908), wk =   0.0312500
        k(   12) = (  -0.2495743  -0.4293153   0.0676908), wk =   0.0312500
        k(   13) = (   0.0000000  -0.2146577   0.0676908), wk =   0.0156250
        k(   14) = (   0.4991486   0.0000000   0.1353817), wk =   0.0156250
        k(   15) = (   0.7487229   0.2146577   0.1353817), wk =   0.0312500
        k(   16) = (   0.9982971   0.4293153   0.1353817), wk =   0.0312500
        k(   17) = (   1.2478714   0.6439730   0.1353817), wk =   0.0312500
        k(   18) = (  -0.4991486  -0.8586307   0.1353817), wk =   0.0312500
        k(   19) = (  -0.2495743  -0.6439730   0.1353817), wk =   0.0312500
        k(   20) = (   0.0000000  -0.4293153   0.1353817), wk =   0.0156250
        k(   21) = (   0.2495743  -0.2146577   0.1353817), wk =   0.0312500
        k(   22) = (   0.7487229   0.0000000   0.2030725), wk =   0.0156250
        k(   23) = (   0.9982971   0.2146577   0.2030725), wk =   0.0312500
        k(   24) = (   1.2478714   0.4293153   0.2030725), wk =   0.0312500
        k(   25) = (   1.4974457   0.6439730   0.2030725), wk =   0.0312500
        k(   26) = (  -0.2495743  -0.8586307   0.2030725), wk =   0.0312500
        k(   27) = (   0.0000000  -0.6439730   0.2030725), wk =   0.0156250
        k(   28) = (   0.2495743  -0.4293153   0.2030725), wk =   0.0312500
        k(   29) = (   0.4991486  -0.2146577   0.2030725), wk =   0.0312500
        k(   30) = (  -0.9982971   0.0000000  -0.2707633), wk =   0.0078125
        k(   31) = (  -0.7487229   0.2146577  -0.2707633), wk =   0.0312500
        k(   32) = (  -0.4991486   0.4293153  -0.2707633), wk =   0.0312500
        k(   33) = (  -0.2495743   0.6439730  -0.2707633), wk =   0.0312500
        k(   34) = (  -1.9965943  -0.8586307  -0.2707633), wk =   0.0078125
        k(   35) = (   0.4991486   0.4293153   0.1353817), wk =   0.0312500
        k(   36) = (   0.7487229   0.6439730   0.1353817), wk =   0.0312500
        k(   37) = (   0.9982971   0.8586307   0.1353817), wk =   0.0156250
        k(   38) = (   0.0000000   0.0000000   0.1353817), wk =   0.0078125
        k(   39) = (   0.7487229   0.4293153   0.2030725), wk =   0.0312500
        k(   40) = (   0.9982971   0.6439730   0.2030725), wk =   0.0312500
        k(   41) = (   1.2478714   0.8586307   0.2030725), wk =   0.0312500
        k(   42) = (  -0.4991486  -0.6439730   0.2030725), wk =   0.0312500
        k(   43) = (   0.0000000  -0.2146577   0.2030725), wk =   0.0156250
        k(   44) = (   0.2495743   0.0000000   0.2030725), wk =   0.0156250
        k(   45) = (   0.9982971   0.4293153   0.2707633), wk =   0.0156250
        k(   46) = (   1.2478714   0.6439730   0.2707633), wk =   0.0312500
        k(   47) = (   1.4974457   0.8586307   0.2707633), wk =   0.0156250
        k(   48) = (   0.0000000  -0.4293153   0.2707633), wk =   0.0156250
        k(   49) = (   0.2495743  -0.2146577   0.2707633), wk =   0.0312500
        k(   50) = (   0.4991486   0.0000000   0.2707633), wk =   0.0156250
        k(   51) = (  -1.9965943  -0.6439730  -0.2030725), wk =   0.0156250
        k(   52) = (  -1.7470200  -0.4293153  -0.2030725), wk =   0.0312500
        k(   53) = (  -1.4974457  -0.2146577  -0.2030725), wk =   0.0312500
        k(   54) = (  -1.2478714   0.0000000  -0.2030725), wk =   0.0156250
        k(   55) = (   0.0000000   0.8586307  -0.1353817), wk =   0.0156250
        k(   56) = (  -1.7470200  -0.6439730  -0.1353817), wk =   0.0312500
        k(   57) = (  -1.4974457  -0.4293153  -0.1353817), wk =   0.0312500
        k(   58) = (  -1.2478714  -0.2146577  -0.1353817), wk =   0.0312500
        k(   59) = (  -0.9982971   0.0000000  -0.1353817), wk =   0.0156250
        k(   60) = (   0.0000000   0.6439730  -0.0676908), wk =   0.0156250
        k(   61) = (   0.2495743   0.8586307  -0.0676908), wk =   0.0312500
        k(   62) = (  -1.4974457  -0.6439730  -0.0676908), wk =   0.0312500
        k(   63) = (  -1.2478714  -0.4293153  -0.0676908), wk =   0.0312500
        k(   64) = (  -0.9982971  -0.2146577  -0.0676908), wk =   0.0312500
        k(   65) = (  -0.7487229   0.0000000  -0.0676908), wk =   0.0156250
        k(   66) = (   0.0000000   0.4293153   0.0000000), wk =   0.0078125
        k(   67) = (   0.2495743   0.6439730   0.0000000), wk =   0.0156250
        k(   68) = (   0.4991486   0.8586307   0.0000000), wk =   0.0156250
        k(   69) = (  -1.2478714  -0.6439730   0.0000000), wk =   0.0156250
        k(   70) = (  -0.9982971  -0.4293153   0.0000000), wk =   0.0156250
        k(   71) = (  -0.7487229  -0.2146577   0.0000000), wk =   0.0156250
        k(   72) = (  -0.4991486   0.0000000   0.0000000), wk =   0.0078125
        k(   73) = (   0.9982971   0.8586307   0.2707633), wk =   0.0078125
        k(   74) = (   0.0000000   0.0000000   0.2707633), wk =   0.0078125
        k(   75) = (   0.0000000  -0.2146577   0.3384542), wk =   0.0156250
        k(   76) = (   0.2495743   0.0000000   0.3384542), wk =   0.0156250
        k(   77) = (  -1.9965943  -0.4293153  -0.1353817), wk =   0.0156250
        k(   78) = (  -1.7470200  -0.2146577  -0.1353817), wk =   0.0312500
        k(   79) = (  -1.4974457   0.0000000  -0.1353817), wk =   0.0156250
        k(   80) = (   0.0000000   1.0732883  -0.0676908), wk =   0.0156250
        k(   81) = (  -1.7470200  -0.4293153  -0.0676908), wk =   0.0312500
        k(   82) = (  -1.4974457  -0.2146577  -0.0676908), wk =   0.0312500
        k(   83) = (  -1.2478714   0.0000000  -0.0676908), wk =   0.0156250
        k(   84) = (   0.0000000   0.8586307   0.0000000), wk =   0.0078125
        k(   85) = (   0.2495743   1.0732883   0.0000000), wk =   0.0156250
        k(   86) = (  -1.4974457  -0.4293153   0.0000000), wk =   0.0156250
        k(   87) = (  -1.2478714  -0.2146577   0.0000000), wk =   0.0156250
        k(   88) = (  -0.9982971   0.0000000   0.0000000), wk =   0.0078125
        k(   89) = (   0.0000000   0.0000000   0.4061450), wk =   0.0078125
        k(   90) = (  -1.9965943  -0.2146577  -0.0676908), wk =   0.0156250
        k(   91) = (  -1.7470200   0.0000000  -0.0676908), wk =   0.0156250
        k(   92) = (   0.0000000   1.2879460   0.0000000), wk =   0.0078125
        k(   93) = (  -1.7470200  -0.2146577   0.0000000), wk =   0.0156250
        k(   94) = (  -1.4974457   0.0000000   0.0000000), wk =   0.0078125
        k(   95) = (  -1.9965943  -1.7172613  -0.5415266), wk =   0.0039062

                       cryst. coord.
        k(    1) = (   0.0000000   0.0000000   0.0000000), wk =   0.0039062
        k(    2) = (   0.0000000   0.0000000   0.1250000), wk =   0.0156250
        k(    3) = (   0.0000000   0.0000000   0.2500000), wk =   0.0156250
        k(    4) = (  -0.0000000   0.0000000   0.3750000), wk =   0.0156250
        k(    5) = (   0.0000000   0.0000000  -0.5000000), wk =   0.0078125
        k(    6) = (   0.0000000   0.1250000   0.0000000), wk =   0.0156250
        k(    7) = (   0.0000000   0.1250000   0.1250000), wk =   0.0312500
        k(    8) = (   0.0000000   0.1250000   0.2500000), wk =   0.0312500
        k(    9) = (  -0.0000000   0.1250000   0.3750000), wk =   0.0312500
        k(   10) = (   0.0000000   0.1250000  -0.5000000), wk =   0.0312500
        k(   11) = (   0.0000000   0.1250000  -0.3750000), wk =   0.0312500
        k(   12) = (   0.0000000   0.1250000  -0.2500000), wk =   0.0312500
        k(   13) = (   0.0000000   0.1250000  -0.1250000), wk =   0.0156250
        k(   14) = (   0.0000000   0.2500000   0.0000000), wk =   0.0156250
        k(   15) = (   0.0000000   0.2500000   0.1250000), wk =   0.0312500
        k(   16) = (   0.0000000   0.2500000   0.2500000), wk =   0.0312500
        k(   17) = (  -0.0000000   0.2500000   0.3750000), wk =   0.0312500
        k(   18) = (   0.0000000   0.2500000  -0.5000000), wk =   0.0312500
        k(   19) = (   0.0000000   0.2500000  -0.3750000), wk =   0.0312500
        k(   20) = (   0.0000000   0.2500000  -0.2500000), wk =   0.0156250
        k(   21) = (   0.0000000   0.2500000  -0.1250000), wk =   0.0312500
        k(   22) = (   0.0000000   0.3750000   0.0000000), wk =   0.0156250
        k(   23) = (   0.0000000   0.3750000   0.1250000), wk =   0.0312500
        k(   24) = (  -0.0000000   0.3750000   0.2500000), wk =   0.0312500
        k(   25) = (  -0.0000000   0.3750000   0.3750000), wk =   0.0312500
        k(   26) = (   0.0000000   0.3750000  -0.5000000), wk =   0.0312500
        k(   27) = (   0.0000000   0.3750000  -0.3750000), wk =   0.0156250
        k(   28) = (   0.0000000   0.3750000  -0.2500000), wk =   0.0312500
        k(   29) = (   0.0000000   0.3750000  -0.1250000), wk =   0.0312500
        k(   30) = (   0.0000000  -0.5000000   0.0000000), wk =   0.0078125
        k(   31) = (   0.0000000  -0.5000000   0.1250000), wk =   0.0312500
        k(   32) = (   0.0000000  -0.5000000   0.2500000), wk =   0.0312500
        k(   33) = (   0.0000000  -0.5000000   0.3750000), wk =   0.0312500
        k(   34) = (   0.0000000  -0.5000000  -0.5000000), wk =   0.0078125
        k(   35) = (   0.1250000   0.1250000   0.1250000), wk =   0.0312500
        k(   36) = (   0.1250000   0.1250000   0.2500000), wk =   0.0312500
        k(   37) = (   0.1250000   0.1250000   0.3750000), wk =   0.0156250
        k(   38) = (   0.1250000   0.1250000  -0.1250000), wk =   0.0078125
        k(   39) = (   0.1250000   0.2500000   0.1250000), wk =   0.0312500
        k(   40) = (   0.1250000   0.2500000   0.2500000), wk =   0.0312500
        k(   41) = (   0.1250000   0.2500000   0.3750000), wk =   0.0312500
        k(   42) = (   0.1250000   0.2500000  -0.5000000), wk =   0.0312500
        k(   43) = (   0.1250000   0.2500000  -0.2500000), wk =   0.0156250
        k(   44) = (   0.1250000   0.2500000  -0.1250000), wk =   0.0156250
        k(   45) = (   0.1250000   0.3750000   0.1250000), wk =   0.0156250
        k(   46) = (   0.1250000   0.3750000   0.2500000), wk =   0.0312500
        k(   47) = (   0.1250000   0.3750000   0.3750000), wk =   0.0156250
        k(   48) = (   0.1250000   0.3750000  -0.3750000), wk =   0.0156250
        k(   49) = (   0.1250000   0.3750000  -0.2500000), wk =   0.0312500
        k(   50) = (   0.1250000   0.3750000  -0.1250000), wk =   0.0156250
        k(   51) = (   0.1250000  -0.5000000  -0.5000000), wk =   0.0156250
        k(   52) = (   0.1250000  -0.5000000  -0.3750000), wk =   0.0312500
        k(   53) = (   0.1250000  -0.5000000  -0.2500000), wk =   0.0312500
        k(   54) = (   0.1250000  -0.5000000  -0.1250000), wk =   0.0156250
        k(   55) = (   0.1250000  -0.3750000   0.3750000), wk =   0.0156250
        k(   56) = (   0.1250000  -0.3750000  -0.5000000), wk =   0.0312500
        k(   57) = (   0.1250000  -0.3750000  -0.3750000), wk =   0.0312500
        k(   58) = (   0.1250000  -0.3750000  -0.2500000), wk =   0.0312500
        k(   59) = (   0.1250000  -0.3750000  -0.1250000), wk =   0.0156250
        k(   60) = (   0.1250000  -0.2500000   0.2500000), wk =   0.0156250
        k(   61) = (   0.1250000  -0.2500000   0.3750000), wk =   0.0312500
        k(   62) = (   0.1250000  -0.2500000  -0.5000000), wk =   0.0312500
        k(   63) = (   0.1250000  -0.2500000  -0.3750000), wk =   0.0312500
        k(   64) = (   0.1250000  -0.2500000  -0.2500000), wk =   0.0312500
        k(   65) = (   0.1250000  -0.2500000  -0.1250000), wk =   0.0156250
        k(   66) = (   0.1250000  -0.1250000   0.1250000), wk =   0.0078125
        k(   67) = (   0.1250000  -0.1250000   0.2500000), wk =   0.0156250
        k(   68) = (   0.1250000  -0.1250000   0.3750000), wk =   0.0156250
        k(   69) = (   0.1250000  -0.1250000  -0.5000000), wk =   0.0156250
        k(   70) = (   0.1250000  -0.1250000  -0.3750000), wk =   0.0156250
        k(   71) = (   0.1250000  -0.1250000  -0.2500000), wk =   0.0156250
        k(   72) = (   0.1250000  -0.1250000  -0.1250000), wk =   0.0078125
        k(   73) = (   0.2500000   0.2500000   0.2500000), wk =   0.0078125
        k(   74) = (   0.2500000   0.2500000  -0.2500000), wk =   0.0078125
        k(   75) = (   0.2500000   0.3750000  -0.3750000), wk =   0.0156250
        k(   76) = (   0.2500000   0.3750000  -0.2500000), wk =   0.0156250
        k(   77) = (   0.2500000  -0.5000000  -0.5000000), wk =   0.0156250
        k(   78) = (   0.2500000  -0.5000000  -0.3750000), wk =   0.0312500
        k(   79) = (   0.2500000  -0.5000000  -0.2500000), wk =   0.0156250
        k(   80) = (   0.2500000  -0.3750000   0.3750000), wk =   0.0156250
        k(   81) = (   0.2500000  -0.3750000  -0.5000000), wk =   0.0312500
        k(   82) = (   0.2500000  -0.3750000  -0.3750000), wk =   0.0312500
        k(   83) = (   0.2500000  -0.3750000  -0.2500000), wk =   0.0156250
        k(   84) = (   0.2500000  -0.2500000   0.2500000), wk =   0.0078125
        k(   85) = (   0.2500000  -0.2500000   0.3750000), wk =   0.0156250
        k(   86) = (   0.2500000  -0.2500000  -0.5000000), wk =   0.0156250
        k(   87) = (   0.2500000  -0.2500000  -0.3750000), wk =   0.0156250
        k(   88) = (   0.2500000  -0.2500000  -0.2500000), wk =   0.0078125
        k(   89) = (   0.3750000   0.3750000  -0.3750000), wk =   0.0078125
        k(   90) = (   0.3750000  -0.5000000  -0.5000000), wk =   0.0156250
        k(   91) = (   0.3750000  -0.5000000  -0.3750000), wk =   0.0156250
        k(   92) = (   0.3750000  -0.3750000   0.3750000), wk =   0.0078125
        k(   93) = (   0.3750000  -0.3750000  -0.5000000), wk =   0.0156250
        k(   94) = (   0.3750000  -0.3750000  -0.3750000), wk =   0.0078125
        k(   95) = (  -0.5000000  -0.5000000  -0.5000000), wk =   0.0039062

     Dense  grid:   171331 G-vectors     FFT dimensions: ( 108, 108, 108)

     Smooth grid:    43317 G-vectors     FFT dimensions: (  72,  72,  72)

     Dynamical RAM for                 wfc:       0.04 MB

     Dynamical RAM for     wfc (w. buffer):       3.45 MB

     Dynamical RAM for           str. fact:       0.16 MB

     Dynamical RAM for           local pot:       0.00 MB

     Dynamical RAM for          nlocal pot:       0.07 MB

     Dynamical RAM for                qrad:       6.37 MB

     Dynamical RAM for          rho,v,vnew:       0.96 MB

     Dynamical RAM for               rhoin:       0.32 MB

     Dynamical RAM for            rho*nmix:       0.87 MB

     Dynamical RAM for           G-vectors:       0.21 MB

     Dynamical RAM for          h,s,v(r/c):       0.08 MB

     Dynamical RAM for          <psi|beta>:       0.01 MB

     Dynamical RAM for                 psi:       0.07 MB

     Dynamical RAM for                hpsi:       0.07 MB

     Dynamical RAM for                spsi:       0.07 MB

     Dynamical RAM for      wfcinit/wfcrot:       0.10 MB

     Dynamical RAM for           addusdens:      10.24 MB

     Dynamical RAM for          addusforce:      10.39 MB

     Dynamical RAM for         addusstress:      10.95 MB

     Estimated static dynamical RAM per process >      13.97 MB

     Estimated max dynamical RAM per process >      24.92 MB

     Estimated total dynamical RAM >       1.17 GB

     Initial potential from superposition of free atoms

     starting charge   32.99867, renormalised to   33.00000
     Starting wfcs are   25 randomized atomic wfcs
     Checking if some PAW data can be deallocated... 
       PAW data deallocated on   36 nodes for type:  1
       PAW data deallocated on   24 nodes for type:  2
       PAW data deallocated on   36 nodes for type:  3

     total cpu time spent up to now is        2.0 secs

     Self-consistent Calculation

     iteration #  1     ecut=    70.00 Ry     beta= 0.70
     Davidson diagonalization with overlap
     ethr =  1.00E-02,  avg # of iterations =  2.2

     total cpu time spent up to now is        4.9 secs

     total energy              =    -534.52291560 Ry
     estimated scf accuracy    <       0.76464854 Ry

     iteration #  2     ecut=    70.00 Ry     beta= 0.70
     Davidson diagonalization with overlap
     ethr =  2.32E-03,  avg # of iterations =  3.6

     total cpu time spent up to now is        8.4 secs

     total energy              =    -533.64394263 Ry
     estimated scf accuracy    <       8.31039815 Ry

     iteration #  3     ecut=    70.00 Ry     beta= 0.70
     Davidson diagonalization with overlap
     ethr =  2.32E-03,  avg # of iterations =  3.5

     total cpu time spent up to now is       11.7 secs

     total energy              =    -534.97214145 Ry
     estimated scf accuracy    <       0.12332921 Ry

     iteration #  4     ecut=    70.00 Ry     beta= 0.70
     Davidson diagonalization with overlap
     ethr =  3.74E-04,  avg # of iterations =  1.4

     total cpu time spent up to now is       14.2 secs

     total energy              =    -534.96634555 Ry
     estimated scf accuracy    <       0.05860136 Ry

     iteration #  5     ecut=    70.00 Ry     beta= 0.70
     Davidson diagonalization with overlap
     ethr =  1.78E-04,  avg # of iterations =  1.5

     total cpu time spent up to now is       16.8 secs

     total energy              =    -534.96208847 Ry
     estimated scf accuracy    <       0.02413788 Ry

     iteration #  6     ecut=    70.00 Ry     beta= 0.70
     Davidson diagonalization with overlap
     ethr =  7.31E-05,  avg # of iterations =  2.0

     total cpu time spent up to now is       19.5 secs

     total energy              =    -534.96483713 Ry
     estimated scf accuracy    <       0.00058173 Ry

     iteration #  7     ecut=    70.00 Ry     beta= 0.70
     Davidson diagonalization with overlap
     ethr =  1.76E-06,  avg # of iterations =  3.5

     total cpu time spent up to now is       23.0 secs

     total energy              =    -534.96502664 Ry
     estimated scf accuracy    <       0.00016822 Ry

     iteration #  8     ecut=    70.00 Ry     beta= 0.70
     Davidson diagonalization with overlap
     ethr =  5.10E-07,  avg # of iterations =  1.3

     total cpu time spent up to now is       25.6 secs

     total energy              =    -534.96502782 Ry
     estimated scf accuracy    <       0.00002762 Ry

     iteration #  9     ecut=    70.00 Ry     beta= 0.70
     Davidson diagonalization with overlap
     ethr =  8.37E-08,  avg # of iterations =  2.4

     total cpu time spent up to now is       28.5 secs

     total energy              =    -534.96503430 Ry
     estimated scf accuracy    <       0.00000060 Ry

     iteration # 10     ecut=    70.00 Ry     beta= 0.70
     Davidson diagonalization with overlap
     ethr =  1.81E-09,  avg # of iterations =  3.7

     total cpu time spent up to now is       32.0 secs

     total energy              =    -534.96503455 Ry
     estimated scf accuracy    <          7.4E-09 Ry

     iteration # 11     ecut=    70.00 Ry     beta= 0.70
     Davidson diagonalization with overlap
     ethr =  2.25E-11,  avg # of iterations =  4.7

     total cpu time spent up to now is       36.2 secs

     total energy              =    -534.96503456 Ry
     estimated scf accuracy    <       0.00000002 Ry

     iteration # 12     ecut=    70.00 Ry     beta= 0.70
     Davidson diagonalization with overlap
     ethr =  2.25E-11,  avg # of iterations =  2.3

     total cpu time spent up to now is       39.1 secs

     End of self-consistent calculation

          k = 0.0000 0.0000 0.0000 (  5399 PWs)   bands (ev):

   -49.8374 -26.0572 -25.7921 -25.7146 -12.3811  -9.5180  -8.8286   0.6168
     2.4659   2.7371   2.8734   3.0042   3.4592   3.9426   4.2017   4.2830
     5.5063   7.2157   7.3560   8.6500   9.3887

     occupation numbers 
     1.0000   1.0000   1.0000   1.0000   1.0000   1.0000   1.0000   1.0000
     1.0000   1.0000   1.0000   1.0000   1.0000   1.0000   1.0000   1.0000
     1.0000  -0.0015  -0.0000  -0.0000  -0.0000

          k = 0.2496 0.2147 0.0000 (  5415 PWs)   bands (ev):

   -49.8348 -26.0822 -25.7855 -25.7457 -12.1859  -9.4094  -8.8363   0.8284
     2.1220   2.2559   2.4437   2.9942   3.2925   3.5034   3.8834   4.0353
     5.9400   7.5255   7.6008   8.7541  10.0920

     occupation numbers 
     1.0000   1.0000   1.0000   1.0000   1.0000   1.0000   1.0000   1.0000
     1.0000   1.0000   1.0000   1.0000   1.0000   1.0000   1.0000   1.0000
     1.0000  -0.0000  -0.0000  -0.0000  -0.0000

          k = 0.4991 0.4293 0.0000 (  5408 PWs)   bands (ev):

   -49.8284 -26.1410 -25.8196 -25.7696 -11.6870  -9.1319  -8.8585   1.1103
     1.4014   1.7330   1.8972   2.0070   2.1867   2.9232   3.8457   4.0134
     6.8109   8.1640   8.2746   9.1624  11.1527

     occupation numbers 
     1.0000   1.0000   1.0000   1.0000   1.0000   1.0000   1.0000   1.0000
     1.0000   1.0000   1.0000   1.0000   1.0000   1.0000   1.0000   1.0000
     0.5323  -0.0000  -0.0000  -0.0000  -0.0000

          k = 0.7487 0.6440 0.0000 (  5413 PWs)   bands (ev):

   -49.8221 -26.1975 -25.8921 -25.7537 -11.1374  -8.8856  -8.8274  -0.0715
     0.9780   1.2641   1.6650   1.7790   2.1866   2.3105   3.5231   3.9757
     7.8680   8.8523   9.0600   9.5781  11.3881

     occupation numbers 
     1.0000   1.0000   1.0000   1.0000   1.0000   1.0000   1.0000   1.0000
     1.0000   1.0000   1.0000   1.0000   1.0000   1.0000   1.0000   1.0000
    -0.0000  -0.0000  -0.0000  -0.0000  -0.0000

          k =-0.9983-0.8586 0.0000 (  5392 PWs)   bands (ev):

   -49.8194 -26.2202 -25.9217 -25.7471 -10.8901  -8.8983  -8.6908  -0.5603
     0.6053   0.9557   1.7504   1.8300   1.9834   2.5728   3.2692   3.8801
     8.4671   9.1833   9.3756   9.7688  11.4141

     occupation numbers 
     1.0000   1.0000   1.0000   1.0000   1.0000   1.0000   1.0000   1.0000
     1.0000   1.0000   1.0000   1.0000   1.0000   1.0000   1.0000   1.0000
    -0.0000  -0.0000  -0.0000  -0.0000  -0.0000

          k = 0.2496 0.0000 0.0677 (  5402 PWs)   bands (ev):

   -49.8353 -26.0547 -25.7865 -25.7466 -12.3638  -9.4287  -8.8416   0.8064
     2.2497   2.6632   2.9510   3.0593   3.1024   3.8008   3.9332   4.1207
     5.9244   7.1253   7.2958   8.7342   9.7674

     occupation numbers 
     1.0000   1.0000   1.0000   1.0000   1.0000   1.0000   1.0000   1.0000
     1.0000   1.0000   1.0000   1.0000   1.0000   1.0000   1.0000   1.0000
     1.0000  -0.0113  -0.0001  -0.0000  -0.0000

          k = 0.4991 0.2147 0.0677 (  5400 PWs)   bands (ev):

   -49.8296 -26.0760 -25.8220 -25.7719 -12.1449  -9.1890  -8.8601   1.2355
     1.9031   2.0826   2.2405   2.4853   2.8917   3.0651   3.8697   4.0702
     6.7596   7.3218   7.4399   9.1654  10.5535

     occupation numbers 
     1.0000   1.0000   1.0000   1.0000   1.0000   1.0000   1.0000   1.0000
     1.0000   1.0000   1.0000   1.0000   1.0000   1.0000   1.0000   1.0000
     0.7786  -0.0001  -0.0000  -0.0000  -0.0000

          k = 0.7487 0.4293 0.0677 (  5413 PWs)   bands (ev):

   -49.8232 -26.1343 -25.8947 -25.7560 -11.6476  -8.9106  -8.8638   1.0916
     1.2398   1.4424   1.6811   1.9125   2.2618   2.5428   3.7130   4.1141
     7.7195   8.0650   8.1717   9.6554  11.1310

     occupation numbers 
     1.0000   1.0000   1.0000   1.0000   1.0000   1.0000   1.0000   1.0000
     1.0000   1.0000   1.0000   1.0000   1.0000   1.0000   1.0000   1.0000
    -0.0000  -0.0000  -0.0000  -0.0000  -0.0000

          k = 0.9983 0.6440 0.0677 (  5400 PWs)   bands (ev):

   -49.8199 -26.1945 -25.9228 -25.7480 -11.1219  -8.9104  -8.7041  -0.0587
     0.7502   0.9306   1.5588   1.9415   2.2117   2.6030   3.3441   3.9453
     8.4549   8.7795   9.0191   9.7533  11.2885

     occupation numbers 
     1.0000   1.0000   1.0000   1.0000   1.0000   1.0000   1.0000   1.0000
     1.0000   1.0000   1.0000   1.0000   1.0000   1.0000   1.0000   1.0000
    -0.0000  -0.0000  -0.0000  -0.0000  -0.0000

          k =-0.7487-0.8586 0.0677 (  5403 PWs)   bands (ev):

   -49.8216 -26.2232 -25.8910 -25.7527 -10.9049  -8.9043  -8.7816  -0.5710
     0.7914   1.2451   1.4373   1.8055   2.3303   2.4024   3.4323   3.8231
     7.9195   9.2344   9.4239   9.4888  11.3486

     occupation numbers 
     1.0000   1.0000   1.0000   1.0000   1.0000   1.0000   1.0000   1.0000
     1.0000   1.0000   1.0000   1.0000   1.0000   1.0000   1.0000   1.0000
    -0.0000  -0.0000  -0.0000  -0.0000  -0.0000

          k =-0.4991-0.6440 0.0677 (  5430 PWs)   bands (ev):

   -49.8272 -26.2046 -25.8172 -25.7672 -11.1742  -9.0560  -8.8768  -0.1007
     1.3241   1.4612   1.5712   1.8788   2.1360   2.9313   3.7151   3.8067
     6.8874   8.9673   9.0532   9.2218  11.4279

     occupation numbers 
     1.0000   1.0000   1.0000   1.0000   1.0000   1.0000   1.0000   1.0000
     1.0000   1.0000   1.0000   1.0000   1.0000   1.0000   1.0000   1.0000
     0.1705  -0.0000  -0.0000  -0.0000  -0.0000

          k =-0.2496-0.4293 0.0677 (  5414 PWs)   bands (ev):

   -49.8336 -26.1477 -25.7831 -25.7435 -11.7262  -9.3411  -8.8499   0.9168
     1.1326   1.4949   2.2526   2.5202   3.1833   3.4089   3.7282   3.9160
     6.0046   8.3734   8.4039   8.7888  10.6504

     occupation numbers 
     1.0000   1.0000   1.0000   1.0000   1.0000   1.0000   1.0000   1.0000
     1.0000   1.0000   1.0000   1.0000   1.0000   1.0000   1.0000   1.0000
     1.0000  -0.0000  -0.0000  -0.0000  -0.0000

          k = 0.0000-0.2147 0.0677 (  5424 PWs)   bands (ev):

   -49.8369 -26.0848 -25.7911 -25.7137 -12.2028  -9.4877  -8.8374   0.6694
     2.0627   2.4320   2.4884   3.2941   3.3572   3.7539   3.9565   4.1601
     5.5350   7.6408   7.6658   8.6794   9.7250

     occupation numbers 
     1.0000   1.0000   1.0000   1.0000   1.0000   1.0000   1.0000   1.0000
     1.0000   1.0000   1.0000   1.0000   1.0000   1.0000   1.0000   1.0000
     1.0000  -0.0000  -0.0000  -0.0000  -0.0000

          k = 0.4991 0.0000 0.1354 (  5418 PWs)   bands (ev):

   -49.8301 -26.0486 -25.8230 -25.7729 -12.3222  -9.2059  -8.8678   1.1835
     1.9251   2.0245   2.4802   3.0498   3.3265   3.4626   3.7851   3.9090
     6.7888   6.9382   7.0962   9.1067  10.1150

     occupation numbers 
     1.0000   1.0000   1.0000   1.0000   1.0000   1.0000   1.0000   1.0000
     1.0000   1.0000   1.0000   1.0000   1.0000   1.0000   1.0000   1.0000
     0.6444   0.0265  -0.0181  -0.0000  -0.0000

          k = 0.7487 0.2147 0.1354 (  5411 PWs)   bands (ev):

   -49.8244 -26.0697 -25.8972 -25.7583 -12.1039  -8.9708  -8.8628   1.0787
     1.4582   1.8249   2.0174   2.6177   2.7653   3.1398   3.8330   4.0162
     7.0931   7.2286   7.8524   9.6453  10.4543

     occupation numbers 
     1.0000   1.0000   1.0000   1.0000   1.0000   1.0000   1.0000   1.0000
     1.0000   1.0000   1.0000   1.0000   1.0000   1.0000   1.0000   1.0000
    -0.0190  -0.0011  -0.0000  -0.0000  -0.0000

          k = 0.9983 0.4293 0.1354 (  5415 PWs)   bands (ev):

   -49.8211 -26.1315 -25.9255 -25.7504 -11.6312  -8.9391  -8.7359   0.7675
     1.2167   1.2405   1.4286   1.9516   2.6339   2.8139   3.5537   4.0448
     7.8522   8.1204   8.4575   9.7369  10.9063

     occupation numbers 
     1.0000   1.0000   1.0000   1.0000   1.0000   1.0000   1.0000   1.0000
     1.0000   1.0000   1.0000   1.0000   1.0000   1.0000   1.0000   1.0000
    -0.0000  -0.0000  -0.0000  -0.0000  -0.0000

          k = 1.2479 0.6440 0.1354 (  5408 PWs)   bands (ev):

   -49.8221 -26.1975 -25.8921 -25.7537 -11.1371  -8.9415  -8.7674  -0.0718
     0.9218   1.1570   1.3357   1.9083   2.5121   2.5799   3.5036   3.8063
     7.9362   8.8364   9.0653   9.4152  11.1909

     occupation numbers 
     1.0000   1.0000   1.0000   1.0000   1.0000   1.0000   1.0000   1.0000
     1.0000   1.0000   1.0000   1.0000   1.0000   1.0000   1.0000   1.0000
    -0.0000  -0.0000  -0.0000  -0.0000  -0.0000

          k =-0.4991-0.8586 0.1354 (  5433 PWs)   bands (ev):

   -49.8267 -26.2305 -25.8162 -25.7663 -10.9399  -8.9905  -8.9198  -0.5968
     1.1760   1.2215   1.7234   1.8018   2.1812   2.9629   3.5793   3.7470
     6.9414   8.9626   9.4201   9.5184  11.4733

     occupation numbers 
     1.0000   1.0000   1.0000   1.0000   1.0000   1.0000   1.0000   1.0000
     1.0000   1.0000   1.0000   1.0000   1.0000   1.0000   1.0000   1.0000
     0.0205  -0.0000  -0.0000  -0.0000  -0.0000

          k =-0.2496-0.6440 0.1354 (  5442 PWs)   bands (ev):

   -49.8324 -26.2117 -25.7807 -25.7413 -11.2105  -9.2513  -8.8896  -0.1289
     0.9540   1.2481   2.0110   2.2592   2.9737   3.3196   3.5280   3.9365
     6.0731   8.7685   9.2212   9.2538  11.0524

     occupation numbers 
     1.0000   1.0000   1.0000   1.0000   1.0000   1.0000   1.0000   1.0000
     1.0000   1.0000   1.0000   1.0000   1.0000   1.0000   1.0000   1.0000
     1.0000  -0.0000  -0.0000  -0.0000  -0.0000

          k = 0.0000-0.4293 0.1354 (  5432 PWs)   bands (ev):

   -49.8357 -26.1505 -25.7887 -25.7116 -11.7422  -9.4080  -8.8662   0.7808
     1.1091   1.4389   2.5449   2.9041   3.0142   3.5512   3.9521   4.0104
     5.5902   8.4245   8.5352   8.7512  10.3258

     occupation numbers 
     1.0000   1.0000   1.0000   1.0000   1.0000   1.0000   1.0000   1.0000
     1.0000   1.0000   1.0000   1.0000   1.0000   1.0000   1.0000   1.0000
     1.0000  -0.0000  -0.0000  -0.0000  -0.0000

          k = 0.2496-0.2147 0.1354 (  5417 PWs)   bands (ev):

   -49.8348 -26.0822 -25.7855 -25.7457 -12.1856  -9.3903  -8.8594   0.8845
     2.1375   2.2507   2.4547   2.9580   3.2051   3.4974   3.8607   4.0663
     5.9635   7.5194   7.6184   8.7361  10.1574

     occupation numbers 
     1.0000   1.0000   1.0000   1.0000   1.0000   1.0000   1.0000   1.0000
     1.0000   1.0000   1.0000   1.0000   1.0000   1.0000   1.0000   1.0000
     1.0000  -0.0000  -0.0000  -0.0000  -0.0000

          k = 0.7487 0.0000 0.2031 (  5406 PWs)   bands (ev):

   -49.8249 -26.0425 -25.8983 -25.7593 -12.2807  -9.0089  -8.8474   1.0096
     1.3337   1.9960   2.0965   3.1697   3.4410   3.5789   3.7294   3.7607
     6.7816   6.7963   7.8400   9.5484   9.9821

     occupation numbers 
     1.0000   1.0000   1.0000   1.0000   1.0000   1.0000   1.0000   1.0000
     1.0000   1.0000   1.0000   1.0000   1.0000   1.0000   1.0000   1.0000
     0.6794   0.6072  -0.0000  -0.0000  -0.0000

          k = 0.9983 0.2147 0.2031 (  5417 PWs)   bands (ev):

   -49.8223 -26.0671 -25.9281 -25.7527 -12.0869  -8.9675  -8.7671   0.6970
     1.3339   1.7683   1.9295   2.6867   2.9044   3.4021   3.8042   3.9307
     7.0325   7.1209   8.4340   9.6764  10.3152

     occupation numbers 
     1.0000   1.0000   1.0000   1.0000   1.0000   1.0000   1.0000   1.0000
     1.0000   1.0000   1.0000   1.0000   1.0000   1.0000   1.0000   1.0000
    -0.0343  -0.0122  -0.0000  -0.0000  -0.0000

          k = 1.2479 0.4293 0.2031 (  5413 PWs)   bands (ev):

   -49.8232 -26.1343 -25.8947 -25.7560 -11.6473  -8.9837  -8.7849   1.0044
     1.1821   1.2992   1.3944   2.0973   2.6507   2.8088   3.6921   3.9532
     7.8594   7.9912   8.1763   9.4074  10.8669

     occupation numbers 
     1.0000   1.0000   1.0000   1.0000   1.0000   1.0000   1.0000   1.0000
     1.0000   1.0000   1.0000   1.0000   1.0000   1.0000   1.0000   1.0000
    -0.0000  -0.0000  -0.0000  -0.0000  -0.0000

          k = 1.4974 0.6440 0.2031 (  5435 PWs)   bands (ev):

   -49.8272 -26.2046 -25.8172 -25.7672 -11.1737  -9.0211  -8.9125  -0.1019
     1.2550   1.3213   1.6933   1.8482   2.2865   3.0107   3.5555   3.8701
     6.9459   8.8576   9.1197   9.1550  11.3629

     occupation numbers 
     1.0000   1.0000   1.0000   1.0000   1.0000   1.0000   1.0000   1.0000
     1.0000   1.0000   1.0000   1.0000   1.0000   1.0000   1.0000   1.0000
     0.0129  -0.0000  -0.0000  -0.0000  -0.0000

          k =-0.2496-0.8586 0.2031 (  5435 PWs)   bands (ev):

   -49.8319 -26.2378 -25.7797 -25.7404 -10.9743  -9.1870  -8.9369  -0.6224
     0.8391   1.4202   1.7749   2.1695   2.8874   3.2249   3.4801   3.9640
     6.1100   8.7832   9.5704   9.6004  11.2138

     occupation numbers 
     1.0000   1.0000   1.0000   1.0000   1.0000   1.0000   1.0000   1.0000
     1.0000   1.0000   1.0000   1.0000   1.0000   1.0000   1.0000   1.0000
     1.0000  -0.0000  -0.0000  -0.0000  -0.0000

          k = 0.0000-0.6440 0.2031 (  5448 PWs)   bands (ev):

   -49.8345 -26.2147 -25.7863 -25.7095 -11.2252  -9.3133  -8.9136  -0.1409
     0.7863   1.2389   2.4069   2.5599   2.6079   3.4588   3.9246   3.9854
     5.6440   8.8220   9.2237   9.3609  10.7897

     occupation numbers 
     1.0000   1.0000   1.0000   1.0000   1.0000   1.0000   1.0000   1.0000
     1.0000   1.0000   1.0000   1.0000   1.0000   1.0000   1.0000   1.0000
     1.0000  -0.0000  -0.0000  -0.0000  -0.0000

          k = 0.2496-0.4293 0.2031 (  5419 PWs)   bands (ev):

   -49.8336 -26.1477 -25.7831 -25.7435 -11.7257  -9.3067  -8.8903   0.9620
     1.1573   1.5901   2.1770   2.5419   2.9608   3.4648   3.5776   4.0747
     6.0340   8.3930   8.4021   8.7643  10.7509

     occupation numbers 
     1.0000   1.0000   1.0000   1.0000   1.0000   1.0000   1.0000   1.0000
     1.0000   1.0000   1.0000   1.0000   1.0000   1.0000   1.0000   1.0000
     1.0000  -0.0000  -0.0000  -0.0000  -0.0000

          k = 0.4991-0.2147 0.2031 (  5417 PWs)   bands (ev):

   -49.8296 -26.0760 -25.8220 -25.7720 -12.1446  -9.1749  -8.8748   1.2087
     1.8875   1.9443   2.3079   2.5181   2.9328   3.1629   3.8419   4.0822
     6.8150   7.2875   7.4543   9.0343  10.4967

     occupation numbers 
     1.0000   1.0000   1.0000   1.0000   1.0000   1.0000   1.0000   1.0000
     1.0000   1.0000   1.0000   1.0000   1.0000   1.0000   1.0000   1.0000
     0.5113  -0.0002  -0.0000  -0.0000  -0.0000

          k =-0.9983 0.0000-0.2708 (  5412 PWs)   bands (ev):

   -49.8228 -26.0400 -25.9292 -25.7536 -12.2636  -8.9792  -8.7798   0.6631
     1.3137   1.8907   2.0430   3.3078   3.4081   3.5007   3.7825   3.9221
     6.6049   6.7458   8.4215   9.5391  10.0300

     occupation numbers 
     1.0000   1.0000   1.0000   1.0000   1.0000   1.0000   1.0000   1.0000
     1.0000   1.0000   1.0000   1.0000   1.0000   1.0000   1.0000   1.0000
     1.0347   0.8334  -0.0000  -0.0000  -0.0000

          k =-0.7487 0.2147-0.2708 (  5400 PWs)   bands (ev):

   -49.8244 -26.0697 -25.8972 -25.7583 -12.1038  -9.0117  -8.8180   0.9973
     1.2697   1.8241   2.1579   2.6359   2.8943   3.2511   3.8077   4.0104
     7.0821   7.2226   7.8825   9.4643  10.3218

     occupation numbers 
     1.0000   1.0000   1.0000   1.0000   1.0000   1.0000   1.0000   1.0000
     1.0000   1.0000   1.0000   1.0000   1.0000   1.0000   1.0000   1.0000
    -0.0220  -0.0012  -0.0000  -0.0000  -0.0000

          k =-0.4991 0.4293-0.2708 (  5415 PWs)   bands (ev):

   -49.8284 -26.1410 -25.8196 -25.7696 -11.6865  -9.1052  -8.8861   1.0921
     1.3094   1.6906   1.8859   1.9358   2.4026   3.0822   3.6932   4.0582
     6.8943   8.1349   8.2983   8.9899  11.0579

     occupation numbers 
     1.0000   1.0000   1.0000   1.0000   1.0000   1.0000   1.0000   1.0000
     1.0000   1.0000   1.0000   1.0000   1.0000   1.0000   1.0000   1.0000
     0.1454  -0.0000  -0.0000  -0.0000  -0.0000

          k =-0.2496 0.6440-0.2708 (  5429 PWs)   bands (ev):

   -49.8324 -26.2117 -25.7807 -25.7413 -11.2101  -9.2147  -8.9306  -0.1301
     0.9467   1.4640   1.8441   2.2683   2.8831   3.2751   3.5007   4.0200
     6.0950   8.7738   9.2097   9.2563  11.1204

     occupation numbers 
     1.0000   1.0000   1.0000   1.0000   1.0000   1.0000   1.0000   1.0000
     1.0000   1.0000   1.0000   1.0000   1.0000   1.0000   1.0000   1.0000
     1.0000  -0.0000  -0.0000  -0.0000  -0.0000

          k =-1.9966-0.8586-0.2708 (  5440 PWs)   bands (ev):

   -49.8340 -26.2409 -25.7853 -25.7086 -10.9883  -9.2653  -8.9444  -0.6329
     0.6864   1.3317   2.1200   2.4339   2.6325   3.4174   3.8948   3.9821
     5.6664   8.8520   9.5742   9.6985  10.9603

     occupation numbers 
     1.0000   1.0000   1.0000   1.0000   1.0000   1.0000   1.0000   1.0000
     1.0000   1.0000   1.0000   1.0000   1.0000   1.0000   1.0000   1.0000
     1.0000  -0.0000  -0.0000  -0.0000  -0.0000

          k = 0.4991 0.4293 0.1354 (  5406 PWs)   bands (ev):

   -49.8284 -26.1410 -25.8196 -25.7696 -11.6868  -9.1247  -8.8660   1.1045
     1.3661   1.7507   1.8353   2.0660   2.1922   2.9848   3.7943   4.0337
     6.8344   8.1506   8.2849   9.1125  11.1293

     occupation numbers 
     1.0000   1.0000   1.0000   1.0000   1.0000   1.0000   1.0000   1.0000
     1.0000   1.0000   1.0000   1.0000   1.0000   1.0000   1.0000   1.0000
     0.4110  -0.0000  -0.0000  -0.0000  -0.0000

          k = 0.7487 0.6440 0.1354 (  5400 PWs)   bands (ev):

   -49.8221 -26.1974 -25.8921 -25.7537 -11.1373  -8.9008  -8.8114  -0.0716
     0.9710   1.2298   1.6444   1.7357   2.2834   2.3590   3.5173   3.9485
     7.8802   8.8404   9.0601   9.5592  11.3693

     occupation numbers 
     1.0000   1.0000   1.0000   1.0000   1.0000   1.0000   1.0000   1.0000
     1.0000   1.0000   1.0000   1.0000   1.0000   1.0000   1.0000   1.0000
    -0.0000  -0.0000  -0.0000  -0.0000  -0.0000

          k = 0.9983 0.8586 0.1354 (  5390 PWs)   bands (ev):

   -49.8194 -26.2202 -25.9217 -25.7471 -10.8901  -8.8983  -8.6908  -0.5603
     0.6195   0.9259   1.7736   1.8619   1.9492   2.5845   3.2255   3.9083
     8.4688   9.1850   9.3851   9.7403  11.3952

     occupation numbers 
     1.0000   1.0000   1.0000   1.0000   1.0000   1.0000   1.0000   1.0000
     1.0000   1.0000   1.0000   1.0000   1.0000   1.0000   1.0000   1.0000
    -0.0000  -0.0000  -0.0000  -0.0000  -0.0000

          k = 0.0000 0.0000 0.1354 (  5415 PWs)   bands (ev):

   -49.8374 -26.0572 -25.7921 -25.7146 -12.3808  -9.4952  -8.8577   0.6951
     2.4901   2.7062   2.8461   3.0596   3.4458   3.8231   4.1550   4.2476
     5.5241   7.2159   7.3861   8.7016   9.4809

     occupation numbers 
     1.0000   1.0000   1.0000   1.0000   1.0000   1.0000   1.0000   1.0000
     1.0000   1.0000   1.0000   1.0000   1.0000   1.0000   1.0000   1.0000
     1.0000  -0.0015  -0.0000  -0.0000  -0.0000

          k = 0.7487 0.4293 0.2031 (  5411 PWs)   bands (ev):

   -49.8232 -26.1343 -25.8947 -25.7560 -11.6475  -8.9524  -8.8196   1.0535
     1.2096   1.4133   1.4965   1.9881   2.4688   2.6474   3.7007   4.0553
     7.7728   8.0338   8.1731   9.5552  11.0249

     occupation numbers 
     1.0000   1.0000   1.0000   1.0000   1.0000   1.0000   1.0000   1.0000
     1.0000   1.0000   1.0000   1.0000   1.0000   1.0000   1.0000   1.0000
    -0.0000  -0.0000  -0.0000  -0.0000  -0.0000

          k = 0.9983 0.6440 0.2031 (  5398 PWs)   bands (ev):

   -49.8199 -26.1945 -25.9228 -25.7480 -11.1219  -8.9103  -8.7041  -0.0587
     0.7828   0.8782   1.6400   1.8535   2.2248   2.6420   3.2906   3.9750
     8.4633   8.7752   9.0257   9.7216  11.2793

     occupation numbers 
     1.0000   1.0000   1.0000   1.0000   1.0000   1.0000   1.0000   1.0000
     1.0000   1.0000   1.0000   1.0000   1.0000   1.0000   1.0000   1.0000
    -0.0000  -0.0000  -0.0000  -0.0000  -0.0000

          k = 1.2479 0.8586 0.2031 (  5408 PWs)   bands (ev):

   -49.8216 -26.2232 -25.8910 -25.7527 -10.9049  -8.9042  -8.7816  -0.5710
     0.7948   1.2121   1.5384   1.6989   2.3647   2.4115   3.4288   3.8175
     7.9204   9.1970   9.4291   9.5200  11.3872

     occupation numbers 
     1.0000   1.0000   1.0000   1.0000   1.0000   1.0000   1.0000   1.0000
     1.0000   1.0000   1.0000   1.0000   1.0000   1.0000   1.0000   1.0000
    -0.0000  -0.0000  -0.0000  -0.0000  -0.0000

          k =-0.4991-0.6440 0.2031 (  5428 PWs)   bands (ev):

   -49.8272 -26.2046 -25.8172 -25.7672 -11.1740  -9.0436  -8.8896  -0.1012
     1.2917   1.3909   1.6104   1.9255   2.1588   2.9728   3.6275   3.8538
     6.9109   8.8949   9.1153   9.1873  11.4098

     occupation numbers 
     1.0000   1.0000   1.0000   1.0000   1.0000   1.0000   1.0000   1.0000
     1.0000   1.0000   1.0000   1.0000   1.0000   1.0000   1.0000   1.0000
     0.0920  -0.0000  -0.0000  -0.0000  -0.0000

          k = 0.0000-0.2147 0.2031 (  5419 PWs)   bands (ev):

   -49.8369 -26.0848 -25.7911 -25.7137 -12.2022  -9.4438  -8.8921   0.8134
     2.1027   2.4299   2.5320   3.1518   3.2800   3.5630   4.0588   4.0896
     5.5513   7.6404   7.6888   8.7675   9.9080

     occupation numbers 
     1.0000   1.0000   1.0000   1.0000   1.0000   1.0000   1.0000   1.0000
     1.0000   1.0000   1.0000   1.0000   1.0000   1.0000   1.0000   1.0000
     1.0000  -0.0000  -0.0000  -0.0000  -0.0000

          k = 0.2496 0.0000 0.2031 (  5427 PWs)   bands (ev):

   -49.8353 -26.0547 -25.7865 -25.7466 -12.3633  -9.3905  -8.8878   0.9249
     2.2549   2.5876   2.8861   3.0463   3.1763   3.6989   3.9599   4.0489
     5.9772   7.1054   7.3424   8.7061   9.8648

     occupation numbers 
     1.0000   1.0000   1.0000   1.0000   1.0000   1.0000   1.0000   1.0000
     1.0000   1.0000   1.0000   1.0000   1.0000   1.0000   1.0000   1.0000
     1.0000  -0.0158  -0.0000  -0.0000  -0.0000

          k = 0.9983 0.4293 0.2708 (  5410 PWs)   bands (ev):

   -49.8211 -26.1315 -25.9255 -25.7504 -11.6312  -8.9391  -8.7359   0.7545
     1.2164   1.2390   1.5063   1.8614   2.6213   2.8727   3.5269   4.0531
     7.8609   8.1220   8.4508   9.7141  10.9254

     occupation numbers 
     1.0000   1.0000   1.0000   1.0000   1.0000   1.0000   1.0000   1.0000
     1.0000   1.0000   1.0000   1.0000   1.0000   1.0000   1.0000   1.0000
    -0.0000  -0.0000  -0.0000  -0.0000  -0.0000

          k = 1.2479 0.6440 0.2708 (  5413 PWs)   bands (ev):

   -49.8221 -26.1975 -25.8921 -25.7537 -11.1372  -8.9244  -8.7861  -0.0717
     0.9507   1.1726   1.4837   1.8148   2.4241   2.4738   3.5065   3.8802
     7.9091   8.8255   9.0621   9.4989  11.2968

     occupation numbers 
     1.0000   1.0000   1.0000   1.0000   1.0000   1.0000   1.0000   1.0000
     1.0000   1.0000   1.0000   1.0000   1.0000   1.0000   1.0000   1.0000
    -0.0000  -0.0000  -0.0000  -0.0000  -0.0000

          k = 1.4974 0.8586 0.2708 (  5430 PWs)   bands (ev):

   -49.8267 -26.2305 -25.8162 -25.7663 -10.9399  -8.9905  -8.9197  -0.5968
     1.1917   1.2053   1.7097   1.8100   2.1961   2.9508   3.5710   3.7587
     6.9410   8.9528   9.4402   9.5095  11.4852

     occupation numbers 
     1.0000   1.0000   1.0000   1.0000   1.0000   1.0000   1.0000   1.0000
     1.0000   1.0000   1.0000   1.0000   1.0000   1.0000   1.0000   1.0000
     0.0213  -0.0000  -0.0000  -0.0000  -0.0000

          k = 0.0000-0.4293 0.2708 (  5421 PWs)   bands (ev):

   -49.8357 -26.1505 -25.7887 -25.7116 -11.7415  -9.3499  -8.9356   0.8942
     1.1423   1.5748   2.5926   2.6231   2.8999   3.3865   3.9272   4.1549
     5.6022   8.4155   8.5340   8.8398  10.5430

     occupation numbers 
     1.0000   1.0000   1.0000   1.0000   1.0000   1.0000   1.0000   1.0000
     1.0000   1.0000   1.0000   1.0000   1.0000   1.0000   1.0000   1.0000
     1.0000  -0.0000  -0.0000  -0.0000  -0.0000

          k = 0.2496-0.2147 0.2708 (  5413 PWs)   bands (ev):

   -49.8348 -26.0822 -25.7855 -25.7456 -12.1850  -9.3358  -8.9236   1.0455
     2.1081   2.2755   2.4700   2.8373   3.1157   3.4563   3.7852   4.1149
     6.0185   7.5112   7.6487   8.7264  10.2800

     occupation numbers 
     1.0000   1.0000   1.0000   1.0000   1.0000   1.0000   1.0000   1.0000
     1.0000   1.0000   1.0000   1.0000   1.0000   1.0000   1.0000   1.0000
     1.0000  -0.0000  -0.0000  -0.0000  -0.0000

          k = 0.4991 0.0000 0.2708 (  5420 PWs)   bands (ev):

   -49.8301 -26.0486 -25.8230 -25.7729 -12.3218  -9.1863  -8.8880   1.1663
     1.7852   2.0239   2.5641   2.9851   3.4471   3.5430   3.8487   3.8661
     6.8565   6.8881   7.1103   8.9245  10.0359

     occupation numbers 
     1.0000   1.0000   1.0000   1.0000   1.0000   1.0000   1.0000   1.0000
     1.0000   1.0000   1.0000   1.0000   1.0000   1.0000   1.0000   1.0000
     0.3024   0.1677  -0.0146  -0.0000  -0.0000

          k =-1.9966-0.6440-0.2031 (  5425 PWs)   bands (ev):

   -49.8345 -26.2147 -25.7863 -25.7095 -11.2247  -9.2630  -8.9710  -0.1424
     0.8488   1.3890   2.2004   2.5594   2.6379   3.2638   3.8723   4.1460
     5.6502   8.8739   9.2148   9.3602  10.9086

     occupation numbers 
     1.0000   1.0000   1.0000   1.0000   1.0000   1.0000   1.0000   1.0000
     1.0000   1.0000   1.0000   1.0000   1.0000   1.0000   1.0000   1.0000
     1.0000  -0.0000  -0.0000  -0.0000  -0.0000

          k =-1.7470-0.4293-0.2031 (  5424 PWs)   bands (ev):

   -49.8336 -26.1477 -25.7832 -25.7435 -11.7251  -9.2421  -8.9633   1.0115
     1.2513   1.7346   1.9987   2.5340   2.8801   3.3835   3.4237   4.2207
     6.0762   8.3791   8.4096   8.7811  10.8706

     occupation numbers 
     1.0000   1.0000   1.0000   1.0000   1.0000   1.0000   1.0000   1.0000
     1.0000   1.0000   1.0000   1.0000   1.0000   1.0000   1.0000   1.0000
     1.0000  -0.0000  -0.0000  -0.0000  -0.0000

          k =-1.4974-0.2147-0.2031 (  5417 PWs)   bands (ev):

   -49.8296 -26.0760 -25.8220 -25.7720 -12.1442  -9.1521  -8.8983   1.1978
     1.6786   1.9712   2.3806   2.5398   3.0344   3.2506   3.7852   4.1064
     6.9029   7.2542   7.4614   8.8591  10.3971

     occupation numbers 
     1.0000   1.0000   1.0000   1.0000   1.0000   1.0000   1.0000   1.0000
     1.0000   1.0000   1.0000   1.0000   1.0000   1.0000   1.0000   1.0000
     0.1162  -0.0005  -0.0000  -0.0000  -0.0000

          k =-1.2479 0.0000-0.2031 (  5423 PWs)   bands (ev):

   -49.8249 -26.0425 -25.8983 -25.7593 -12.2806  -9.0443  -8.8074   0.9334
     1.1534   2.0144   2.2753   3.1272   3.5570   3.5670   3.7911   3.8484
     6.7415   6.7721   7.8894   9.3446   9.8461

     occupation numbers 
     1.0000   1.0000   1.0000   1.0000   1.0000   1.0000   1.0000   1.0000
     1.0000   1.0000   1.0000   1.0000   1.0000   1.0000   1.0000   1.0000
     0.8491   0.7241  -0.0000  -0.0000  -0.0000

          k = 0.0000 0.8586-0.1354 (  5435 PWs)   bands (ev):

   -49.8340 -26.2409 -25.7853 -25.7086 -10.9883  -9.2653  -8.9444  -0.6329
     0.7406   1.1823   2.3377   2.4340   2.6324   3.1848   3.8949   4.0980
     5.6620   8.8520   9.5840   9.6984  10.9186

     occupation numbers 
     1.0000   1.0000   1.0000   1.0000   1.0000   1.0000   1.0000   1.0000
     1.0000   1.0000   1.0000   1.0000   1.0000   1.0000   1.0000   1.0000
     1.0000  -0.0000  -0.0000  -0.0000  -0.0000

          k =-1.7470-0.6440-0.1354 (  5427 PWs)   bands (ev):

   -49.8324 -26.2117 -25.7807 -25.7413 -11.2097  -9.1624  -8.9874  -0.1312
     1.0342   1.4556   1.8652   2.2196   2.9282   3.1788   3.3439   4.1498
     6.1135   8.7662   9.2273   9.2556  11.1756

     occupation numbers 
     1.0000   1.0000   1.0000   1.0000   1.0000   1.0000   1.0000   1.0000
     1.0000   1.0000   1.0000   1.0000   1.0000   1.0000   1.0000   1.0000
     1.0000  -0.0000  -0.0000  -0.0000  -0.0000

          k =-1.4974-0.4293-0.1354 (  5439 PWs)   bands (ev):

   -49.8284 -26.1410 -25.8196 -25.7696 -11.6861  -9.0811  -8.9107   1.0837
     1.2749   1.6245   1.7945   1.9883   2.6101   3.1230   3.6022   4.0706
     6.9587   8.1432   8.2957   8.8633  10.9676

     occupation numbers 
     1.0000   1.0000   1.0000   1.0000   1.0000   1.0000   1.0000   1.0000
     1.0000   1.0000   1.0000   1.0000   1.0000   1.0000   1.0000   1.0000
    -0.0052  -0.0000  -0.0000  -0.0000  -0.0000

          k =-1.2479-0.2147-0.1354 (  5419 PWs)   bands (ev):

   -49.8244 -26.0697 -25.8972 -25.7583 -12.1036  -9.0388  -8.7869   0.9415
     1.1184   1.7935   2.2955   2.6359   3.0117   3.3676   3.8072   3.9751
     7.0691   7.2179   7.9262   9.2889  10.1752

     occupation numbers 
     1.0000   1.0000   1.0000   1.0000   1.0000   1.0000   1.0000   1.0000
     1.0000   1.0000   1.0000   1.0000   1.0000   1.0000   1.0000   1.0000
    -0.0257  -0.0014  -0.0000  -0.0000  -0.0000

          k =-0.9983 0.0000-0.1354 (  5403 PWs)   bands (ev):

   -49.8228 -26.0400 -25.9292 -25.7536 -12.2636  -8.9791  -8.7798   0.6811
     1.2603   1.9096   2.0706   3.3076   3.4086   3.5152   3.7534   3.9218
     6.6115   6.7392   8.4249   9.6068   9.9538

     occupation numbers 
     1.0000   1.0000   1.0000   1.0000   1.0000   1.0000   1.0000   1.0000
     1.0000   1.0000   1.0000   1.0000   1.0000   1.0000   1.0000   1.0000
     1.0353   0.8575  -0.0000  -0.0000  -0.0000

          k = 0.0000 0.6440-0.0677 (  5446 PWs)   bands (ev):

   -49.8345 -26.2147 -25.7863 -25.7095 -11.2256  -9.3415  -8.8805  -0.1399
     0.8337   1.0140   2.5621   2.5862   2.8036   3.2233   3.9607   4.0279
     5.6348   8.7854   9.2445   9.3611  10.6674

     occupation numbers 
     1.0000   1.0000   1.0000   1.0000   1.0000   1.0000   1.0000   1.0000
     1.0000   1.0000   1.0000   1.0000   1.0000   1.0000   1.0000   1.0000
     1.0000  -0.0000  -0.0000  -0.0000  -0.0000

          k = 0.2496 0.8586-0.0677 (  5443 PWs)   bands (ev):

   -49.8319 -26.2378 -25.7797 -25.7404 -10.9743  -9.1869  -8.9369  -0.6224
     0.9110   1.2222   1.9463   2.1459   2.9893   3.1527   3.3575   4.0374
     6.1063   8.7819   9.5837   9.5966  11.2043

     occupation numbers 
     1.0000   1.0000   1.0000   1.0000   1.0000   1.0000   1.0000   1.0000
     1.0000   1.0000   1.0000   1.0000   1.0000   1.0000   1.0000   1.0000
     1.0000  -0.0000  -0.0000  -0.0000  -0.0000

          k =-1.4974-0.6440-0.0677 (  5423 PWs)   bands (ev):

   -49.8272 -26.2046 -25.8172 -25.7672 -11.1735  -8.9960  -8.9380  -0.1024
     1.2278   1.2948   1.7541   1.7810   2.3715   3.0333   3.5145   3.8698
     6.9720   8.8603   9.0520   9.1735  11.3145

     occupation numbers 
     1.0000   1.0000   1.0000   1.0000   1.0000   1.0000   1.0000   1.0000
     1.0000   1.0000   1.0000   1.0000   1.0000   1.0000   1.0000   1.0000
    -0.0189  -0.0000  -0.0000  -0.0000  -0.0000

          k =-1.2479-0.4293-0.0677 (  5419 PWs)   bands (ev):

   -49.8232 -26.1343 -25.8947 -25.7560 -11.6472  -9.0005  -8.7658   0.9813
     1.1520   1.1951   1.3833   2.1653   2.7656   2.9154   3.7140   3.8452
     7.9301   7.9629   8.1794   9.2962  10.7487

     occupation numbers 
     1.0000   1.0000   1.0000   1.0000   1.0000   1.0000   1.0000   1.0000
     1.0000   1.0000   1.0000   1.0000   1.0000   1.0000   1.0000   1.0000
    -0.0000  -0.0000  -0.0000  -0.0000  -0.0000

          k =-0.9983-0.2147-0.0677 (  5416 PWs)   bands (ev):

   -49.8223 -26.0671 -25.9281 -25.7527 -12.0869  -8.9675  -8.7671   0.7230
     1.2643   1.7156   2.0599   2.6832   2.8954   3.3628   3.8219   3.9295
     7.0288   7.1183   8.4398   9.7468  10.2343

     occupation numbers 
     1.0000   1.0000   1.0000   1.0000   1.0000   1.0000   1.0000   1.0000
     1.0000   1.0000   1.0000   1.0000   1.0000   1.0000   1.0000   1.0000
    -0.0347  -0.0128  -0.0000  -0.0000  -0.0000

          k =-0.7487 0.0000-0.0677 (  5411 PWs)   bands (ev):

   -49.8249 -26.0425 -25.8983 -25.7593 -12.2809  -8.9649  -8.8947   1.0806
     1.5399   1.8248   2.0380   3.2055   3.3557   3.6093   3.6716   3.6851
     6.7981   6.8247   7.8116   9.7140  10.0522

     occupation numbers 
     1.0000   1.0000   1.0000   1.0000   1.0000   1.0000   1.0000   1.0000
     1.0000   1.0000   1.0000   1.0000   1.0000   1.0000   1.0000   1.0000
     0.5981   0.4610  -0.0000  -0.0000  -0.0000

          k = 0.0000 0.4293 0.0000 (  5430 PWs)   bands (ev):

   -49.8357 -26.1505 -25.7887 -25.7116 -11.7425  -9.4281  -8.8414   0.7350
     1.1047   1.3857   2.5268   2.9053   3.3694   3.3982   3.8832   4.0441
     5.5849   8.4343   8.5362   8.7140  10.2301

     occupation numbers 
     1.0000   1.0000   1.0000   1.0000   1.0000   1.0000   1.0000   1.0000
     1.0000   1.0000   1.0000   1.0000   1.0000   1.0000   1.0000   1.0000
     1.0000  -0.0000  -0.0000  -0.0000  -0.0000

          k = 0.2496 0.6440 0.0000 (  5449 PWs)   bands (ev):

   -49.8324 -26.2117 -25.7807 -25.7413 -11.2106  -9.2642  -8.8748  -0.1284
     1.0532   1.0667   2.0961   2.2311   3.1507   3.2042   3.5039   3.9367
     6.0630   8.7624   9.2421   9.2447  11.0200

     occupation numbers 
     1.0000   1.0000   1.0000   1.0000   1.0000   1.0000   1.0000   1.0000
     1.0000   1.0000   1.0000   1.0000   1.0000   1.0000   1.0000   1.0000
     1.0000  -0.0000  -0.0000  -0.0000  -0.0000

          k = 0.4991 0.8586 0.0000 (  5415 PWs)   bands (ev):

   -49.8267 -26.2305 -25.8162 -25.7662 -10.9399  -8.9904  -8.9198  -0.5968
     1.1678   1.2300   1.7481   1.7824   2.1672   2.9744   3.5896   3.7334
     6.9418   8.9730   9.4019   9.5248  11.4616

     occupation numbers 
     1.0000   1.0000   1.0000   1.0000   1.0000   1.0000   1.0000   1.0000
     1.0000   1.0000   1.0000   1.0000   1.0000   1.0000   1.0000   1.0000
     0.0198  -0.0000  -0.0000  -0.0000  -0.0000

          k =-1.2479-0.6440 0.0000 (  5417 PWs)   bands (ev):

   -49.8221 -26.1975 -25.8921 -25.7537 -11.1371  -8.9475  -8.7607  -0.0718
     0.9071   1.1766   1.2607   1.9486   2.5478   2.6121   3.5072   3.7726
     7.9466   8.8522   9.0656   9.3720  11.1381

     occupation numbers 
     1.0000   1.0000   1.0000   1.0000   1.0000   1.0000   1.0000   1.0000
     1.0000   1.0000   1.0000   1.0000   1.0000   1.0000   1.0000   1.0000
    -0.0000  -0.0000  -0.0000  -0.0000  -0.0000

          k =-0.9983-0.4293 0.0000 (  5406 PWs)   bands (ev):

   -49.8211 -26.1315 -25.9255 -25.7504 -11.6312  -8.9391  -8.7359   0.7817
     1.2174   1.2429   1.3661   2.0273   2.6706   2.7298   3.5793   4.0360
     7.8436   8.1189   8.4638   9.7606  10.8860

     occupation numbers 
     1.0000   1.0000   1.0000   1.0000   1.0000   1.0000   1.0000   1.0000
     1.0000   1.0000   1.0000   1.0000   1.0000   1.0000   1.0000   1.0000
    -0.0000  -0.0000  -0.0000  -0.0000  -0.0000

          k =-0.7487-0.2147 0.0000 (  5420 PWs)   bands (ev):

   -49.8244 -26.0697 -25.8972 -25.7583 -12.1040  -8.9335  -8.9018   1.1203
     1.6352   1.6844   2.0116   2.5821   2.7199   3.0975   3.8487   4.0117
     7.0972   7.2314   7.8430   9.7238  10.5042

     occupation numbers 
     1.0000   1.0000   1.0000   1.0000   1.0000   1.0000   1.0000   1.0000
     1.0000   1.0000   1.0000   1.0000   1.0000   1.0000   1.0000   1.0000
    -0.0179  -0.0010  -0.0000  -0.0000  -0.0000

          k =-0.4991 0.0000 0.0000 (  5399 PWs)   bands (ev):

   -49.8301 -26.0486 -25.8230 -25.7729 -12.3223  -9.2133  -8.8601   1.1980
     1.8918   2.1513   2.4058   3.0968   3.2600   3.4295   3.7550   3.9232
     6.7640   6.9639   7.0855   9.1886  10.1412

     occupation numbers 
     1.0000   1.0000   1.0000   1.0000   1.0000   1.0000   1.0000   1.0000
     1.0000   1.0000   1.0000   1.0000   1.0000   1.0000   1.0000   1.0000
     0.7599  -0.0112  -0.0211  -0.0000  -0.0000

          k = 0.9983 0.8586 0.2708 (  5400 PWs)   bands (ev):

   -49.8194 -26.2202 -25.9217 -25.7471 -10.8901  -8.8983  -8.6908  -0.5603
     0.6364   0.8945   1.8105   1.8938   1.9019   2.5956   3.1837   3.9337
     8.4704   9.1868   9.3960   9.7109  11.3767

     occupation numbers 
     1.0000   1.0000   1.0000   1.0000   1.0000   1.0000   1.0000   1.0000
     1.0000   1.0000   1.0000   1.0000   1.0000   1.0000   1.0000   1.0000
    -0.0000  -0.0000  -0.0000  -0.0000  -0.0000

          k = 0.0000 0.0000 0.2708 (  5419 PWs)   bands (ev):

   -49.8374 -26.0572 -25.7922 -25.7146 -12.3800  -9.4295  -8.9383   0.9173
     2.5550   2.5798   2.8104   3.1746   3.4052   3.5773   4.0320   4.1656
     5.5490   7.2162   7.4575   8.8256   9.6885

     occupation numbers 
     1.0000   1.0000   1.0000   1.0000   1.0000   1.0000   1.0000   1.0000
     1.0000   1.0000   1.0000   1.0000   1.0000   1.0000   1.0000   1.0000
     1.0000  -0.0015  -0.0000  -0.0000  -0.0000

          k = 0.0000-0.2147 0.3385 (  5428 PWs)   bands (ev):

   -49.8369 -26.0848 -25.7912 -25.7137 -12.2014  -9.3613  -8.9898   1.0721
     2.1576   2.4256   2.6033   2.7758   3.2518   3.4536   3.9909   4.0859
     5.5684   7.6400   7.7310   8.8916  10.1506

     occupation numbers 
     1.0000   1.0000   1.0000   1.0000   1.0000   1.0000   1.0000   1.0000
     1.0000   1.0000   1.0000   1.0000   1.0000   1.0000   1.0000   1.0000
     1.0000  -0.0000  -0.0000  -0.0000  -0.0000

          k = 0.2496 0.0000 0.3385 (  5434 PWs)   bands (ev):

   -49.8353 -26.0547 -25.7866 -25.7466 -12.3626  -9.3204  -8.9690   1.1475
     2.1121   2.5780   2.8427   2.9609   3.3151   3.6519   3.9093   3.9262
     6.0396   7.0880   7.3970   8.7171   9.9455

     occupation numbers 
     1.0000   1.0000   1.0000   1.0000   1.0000   1.0000   1.0000   1.0000
     1.0000   1.0000   1.0000   1.0000   1.0000   1.0000   1.0000   1.0000
     1.0000  -0.0204  -0.0000  -0.0000  -0.0000

          k =-1.9966-0.4293-0.1354 (  5428 PWs)   bands (ev):

   -49.8357 -26.1505 -25.7888 -25.7116 -11.7408  -9.2606  -9.0361   0.9816
     1.2737   1.6900   2.3297   2.6478   2.8930   3.1215   3.8405   4.3100
     5.6131   8.4231   8.5336   8.9273  10.7420

     occupation numbers 
     1.0000   1.0000   1.0000   1.0000   1.0000   1.0000   1.0000   1.0000
     1.0000   1.0000   1.0000   1.0000   1.0000   1.0000   1.0000   1.0000
     1.0000  -0.0000  -0.0000  -0.0000  -0.0000

          k =-1.7470-0.2147-0.1354 (  5420 PWs)   bands (ev):

   -49.8348 -26.0822 -25.7856 -25.7457 -12.1843  -9.2556  -9.0136   1.2883
     1.9248   2.3505   2.4499   2.7760   3.0854   3.3918   3.6971   4.1387
     6.0698   7.5060   7.6692   8.7557  10.3608

     occupation numbers 
     1.0000   1.0000   1.0000   1.0000   1.0000   1.0000   1.0000   1.0000
     1.0000   1.0000   1.0000   1.0000   1.0000   1.0000   1.0000   1.0000
     1.0000  -0.0000  -0.0000  -0.0000  -0.0000

          k =-1.4974 0.0000-0.1354 (  5419 PWs)   bands (ev):

   -49.8301 -26.0486 -25.8229 -25.7730 -12.3214  -9.1637  -8.9113   1.1793
     1.5884   2.0930   2.6132   2.9417   3.5752   3.6318   3.7943   3.8935
     6.8457   6.9374   7.1167   8.7560   9.9395

     occupation numbers 
     1.0000   1.0000   1.0000   1.0000   1.0000   1.0000   1.0000   1.0000
     1.0000   1.0000   1.0000   1.0000   1.0000   1.0000   1.0000   1.0000
     0.3544   0.0280  -0.0131  -0.0000  -0.0000

          k = 0.0000 1.0733-0.0677 (  5425 PWs)   bands (ev):

   -49.8345 -26.2147 -25.7863 -25.7095 -11.2243  -9.2098  -9.0290  -0.1435
     1.0092   1.2564   2.3748   2.5594   2.6599   2.8993   3.8344   4.2941
     5.6504   8.9108   9.2209   9.3593  10.9478

     occupation numbers 
     1.0000   1.0000   1.0000   1.0000   1.0000   1.0000   1.0000   1.0000
     1.0000   1.0000   1.0000   1.0000   1.0000   1.0000   1.0000   1.0000
     1.0000  -0.0000  -0.0000  -0.0000  -0.0000

          k =-1.7470-0.4293-0.0677 (  5426 PWs)   bands (ev):

   -49.8336 -26.1477 -25.7832 -25.7435 -11.7246  -9.1565  -9.0549   1.0307
     1.4395   1.6986   1.9093   2.4785   2.9700   3.2267   3.3334   4.3023
     6.1062   8.3573   8.4108   8.8212  10.9412

     occupation numbers 
     1.0000   1.0000   1.0000   1.0000   1.0000   1.0000   1.0000   1.0000
     1.0000   1.0000   1.0000   1.0000   1.0000   1.0000   1.0000   1.0000
     1.0000  -0.0000  -0.0000  -0.0000  -0.0000

          k =-1.4974-0.2147-0.0677 (  5421 PWs)   bands (ev):

   -49.8296 -26.0760 -25.8220 -25.7720 -12.1439  -9.1329  -8.9179   1.2179
     1.5291   1.9768   2.4432   2.5419   3.1165   3.3106   3.7196   4.1289
     6.9709   7.2429   7.4582   8.7391  10.3153

     occupation numbers 
     1.0000   1.0000   1.0000   1.0000   1.0000   1.0000   1.0000   1.0000
     1.0000   1.0000   1.0000   1.0000   1.0000   1.0000   1.0000   1.0000
    -0.0180  -0.0007  -0.0000  -0.0000  -0.0000

          k =-1.2479 0.0000-0.0677 (  5426 PWs)   bands (ev):

   -49.8249 -26.0425 -25.8983 -25.7593 -12.2804  -9.0634  -8.7851   0.8988
     1.0390   2.0156   2.3845   3.1012   3.5630   3.6458   3.8263   3.9028
     6.7084   6.7591   7.9332   9.2107   9.7327

     occupation numbers 
     1.0000   1.0000   1.0000   1.0000   1.0000   1.0000   1.0000   1.0000
     1.0000   1.0000   1.0000   1.0000   1.0000   1.0000   1.0000   1.0000
     0.9475   0.7808  -0.0000  -0.0000  -0.0000

          k = 0.0000 0.8586 0.0000 (  5444 PWs)   bands (ev):

   -49.8340 -26.2409 -25.7853 -25.7086 -10.9883  -9.2653  -8.9444  -0.6329
     0.8425   1.0101   2.4341   2.6323   2.7293   2.7873   3.8949   4.1803
     5.6575   8.8520   9.5941   9.6984  10.8781

     occupation numbers 
     1.0000   1.0000   1.0000   1.0000   1.0000   1.0000   1.0000   1.0000
     1.0000   1.0000   1.0000   1.0000   1.0000   1.0000   1.0000   1.0000
     1.0000  -0.0000  -0.0000  -0.0000  -0.0000

          k = 0.2496 1.0733 0.0000 (  5423 PWs)   bands (ev):

   -49.8324 -26.2117 -25.7808 -25.7413 -11.2095  -9.1256  -9.0261  -0.1317
     1.1472   1.3072   2.0031   2.1438   3.0161   3.1077   3.2357   4.2040
     6.1201   8.7600   9.2436   9.2528  11.1951

     occupation numbers 
     1.0000   1.0000   1.0000   1.0000   1.0000   1.0000   1.0000   1.0000
     1.0000   1.0000   1.0000   1.0000   1.0000   1.0000   1.0000   1.0000
     1.0000  -0.0000  -0.0000  -0.0000  -0.0000

          k =-1.4974-0.4293 0.0000 (  5427 PWs)   bands (ev):

   -49.8284 -26.1410 -25.8196 -25.7696 -11.6860  -9.0688  -8.9233   1.0819
     1.2653   1.5913   1.7571   2.0210   2.7055   3.1186   3.5655   4.0744
     6.9867   8.1591   8.2848   8.8095  10.9252

     occupation numbers 
     1.0000   1.0000   1.0000   1.0000   1.0000   1.0000   1.0000   1.0000
     1.0000   1.0000   1.0000   1.0000   1.0000   1.0000   1.0000   1.0000
    -0.0287  -0.0000  -0.0000  -0.0000  -0.0000

          k =-1.2479-0.2147 0.0000 (  5422 PWs)   bands (ev):

   -49.8244 -26.0697 -25.8972 -25.7583 -12.1035  -9.0482  -8.7758   0.9291
     1.0544   1.7827   2.3464   2.6346   3.0589   3.4137   3.8264   3.9413
     7.0630   7.2164   7.9497   9.2163  10.1106

     occupation numbers 
     1.0000   1.0000   1.0000   1.0000   1.0000   1.0000   1.0000   1.0000
     1.0000   1.0000   1.0000   1.0000   1.0000   1.0000   1.0000   1.0000
    -0.0274  -0.0015  -0.0000  -0.0000  -0.0000

          k =-0.9983 0.0000 0.0000 (  5416 PWs)   bands (ev):

   -49.8228 -26.0400 -25.9292 -25.7536 -12.2636  -8.9791  -8.7798   0.7014
     1.2091   1.9212   2.1008   3.3073   3.4091   3.5348   3.7190   3.9214
     6.6188   6.7317   8.4282   9.7660   9.7862

     occupation numbers 
     1.0000   1.0000   1.0000   1.0000   1.0000   1.0000   1.0000   1.0000
     1.0000   1.0000   1.0000   1.0000   1.0000   1.0000   1.0000   1.0000
     1.0354   0.8825  -0.0000  -0.0000  -0.0000

          k = 0.0000 0.0000 0.4061 (  5427 PWs)   bands (ev):

   -49.8374 -26.0572 -25.7922 -25.7146 -12.3792  -9.3305  -9.0522   1.2353
     2.3124   2.6334   2.7884   3.3071   3.3478   3.4006   3.8799   4.0898
     5.5578   7.2166   7.5274   8.9493   9.8698

     occupation numbers 
     1.0000   1.0000   1.0000   1.0000   1.0000   1.0000   1.0000   1.0000
     1.0000   1.0000   1.0000   1.0000   1.0000   1.0000   1.0000   1.0000
     1.0000  -0.0015  -0.0000  -0.0000  -0.0000

          k =-1.9966-0.2147-0.0677 (  5435 PWs)   bands (ev):

   -49.8369 -26.0848 -25.7912 -25.7137 -12.2008  -9.2537  -9.1081   1.3487
     2.1536   2.4061   2.4884   2.6641   3.2220   3.3865   3.9220   4.0879
     5.5765   7.6398   7.7661   8.9792  10.3086

     occupation numbers 
     1.0000   1.0000   1.0000   1.0000   1.0000   1.0000   1.0000   1.0000
     1.0000   1.0000   1.0000   1.0000   1.0000   1.0000   1.0000   1.0000
     1.0000  -0.0000  -0.0000  -0.0000  -0.0000

          k =-1.7470 0.0000-0.0677 (  5433 PWs)   bands (ev):

   -49.8353 -26.0547 -25.7866 -25.7466 -12.3621  -9.2387  -9.0585   1.4426
     1.8091   2.6749   2.8214   2.8631   3.4422   3.6521   3.8016   3.8414
     6.0751   7.0795   7.4314   8.7540   9.9708

     occupation numbers 
     1.0000   1.0000   1.0000   1.0000   1.0000   1.0000   1.0000   1.0000
     1.0000   1.0000   1.0000   1.0000   1.0000   1.0000   1.0000   1.0000
     1.0000  -0.0228  -0.0000  -0.0000  -0.0000

          k = 0.0000 1.2879 0.0000 (  5430 PWs)   bands (ev):

   -49.8357 -26.1505 -25.7888 -25.7116 -11.7405  -9.1607  -9.1406   1.0015
     1.4274   1.6430   2.2656   2.6740   2.8884   2.9766   3.8032   4.3641
     5.6174   8.4304   8.5336   8.9635  10.8188

     occupation numbers 
     1.0000   1.0000   1.0000   1.0000   1.0000   1.0000   1.0000   1.0000
     1.0000   1.0000   1.0000   1.0000   1.0000   1.0000   1.0000   1.0000
     1.0000  -0.0000  -0.0000  -0.0000  -0.0000

          k =-1.7470-0.2147 0.0000 (  5436 PWs)   bands (ev):

   -49.8348 -26.0822 -25.7856 -25.7457 -12.1841  -9.1926  -9.0805   1.5051
     1.7148   2.4007   2.4209   2.7826   3.0767   3.3559   3.6578   4.1444
     6.0896   7.5042   7.6758   8.7775  10.3833

     occupation numbers 
     1.0000   1.0000   1.0000   1.0000   1.0000   1.0000   1.0000   1.0000
     1.0000   1.0000   1.0000   1.0000   1.0000   1.0000   1.0000   1.0000
     1.0000  -0.0000  -0.0000  -0.0000  -0.0000

          k =-1.4974 0.0000 0.0000 (  5412 PWs)   bands (ev):

   -49.8301 -26.0486 -25.8229 -25.7730 -12.3212  -9.1530  -8.9223   1.2014
     1.4987   2.1189   2.6297   2.9268   3.6745   3.6844   3.7053   3.9035
     6.8294   6.9756   7.1182   8.6884   9.8951

     occupation numbers 
     1.0000   1.0000   1.0000   1.0000   1.0000   1.0000   1.0000   1.0000
     1.0000   1.0000   1.0000   1.0000   1.0000   1.0000   1.0000   1.0000
     0.4366  -0.0218  -0.0128  -0.0000  -0.0000

          k =-1.9966-1.7173-0.5415 (  5430 PWs)   bands (ev):

   -49.8374 -26.0572 -25.7922 -25.7146 -12.3789  -9.2444  -9.1445   1.4570
     2.0956   2.6720   2.7812   3.3164   3.3488   3.3828   3.7946   4.0604
     5.5583   7.2167   7.5560   9.0006   9.9358

     occupation numbers 
     1.0000   1.0000   1.0000   1.0000   1.0000   1.0000   1.0000   1.0000
     1.0000   1.0000   1.0000   1.0000   1.0000   1.0000   1.0000   1.0000
     1.0000  -0.0015  -0.0000  -0.0000  -0.0000

     the Fermi energy is     6.8171 ev

!    total energy              =    -534.96503456 Ry

     total all-electron energy =     -9636.855277 Ry
     estimated scf accuracy    <          5.1E-11 Ry
     smearing contrib. (-TS)   =      -0.00022972 Ry
     internal energy E=F+TS    =    -534.96480484 Ry

     The total energy is F=E-TS. E is the sum of the following terms:
     one-electron contribution =     -93.95275567 Ry
     hartree contribution      =      61.22292415 Ry
     xc contribution           =     -39.53497277 Ry
     ewald contribution        =    -135.48921389 Ry
     one-center paw contrib.   =    -327.21078666 Ry
      -> PAW hartree energy AE =      29.07051821 Ry
      -> PAW hartree energy PS =     -29.04045266 Ry
      -> PAW xc energy AE      =     -17.03509147 Ry
      -> PAW xc energy PS      =       7.41090998 Ry
      -> total E_H with PAW    =      61.25298970 Ry
      -> total E_XC with PAW   =     -49.15915427 Ry

     convergence has been achieved in  12 iterations

     Forces acting on atoms (cartesian axes, Ry/au):

     atom    1 type  1   force =     0.00000000    0.00000000    0.00000000
     atom    2 type  2   force =     0.00000000    0.00000000    0.03652014
     atom    3 type  2   force =     0.00000000    0.00000000   -0.03652014
     atom    4 type  3   force =     0.00000000    0.00000000    0.00000000
     The non-local contrib.  to forces
     atom    1 type  1   force =     0.00000000    0.00000000    0.00000000
     atom    2 type  2   force =     0.00000000    0.00000000    0.07500120
     atom    3 type  2   force =     0.00000000    0.00000000   -0.07500120
     atom    4 type  3   force =     0.00000000    0.00000000    0.00000000
     The ionic contribution  to forces
     atom    1 type  1   force =    -0.00000000   -0.00000000    0.00000000
     atom    2 type  2   force =     0.00000001    0.00000000  -10.07462875
     atom    3 type  2   force =    -0.00000001   -0.00000000   10.07462875
     atom    4 type  3   force =    -0.00000000   -0.00000000    0.00000000
     The local contribution  to forces
     atom    1 type  1   force =     0.00000000    0.00000000    0.00000000
     atom    2 type  2   force =     0.00000002   -0.00000003   10.03479180
     atom    3 type  2   force =    -0.00000002    0.00000003  -10.03479180
     atom    4 type  3   force =    -0.00000000    0.00000000    0.00000000
     The core correction contribution to forces
     atom    1 type  1   force =     0.00000000    0.00000000    0.00000000
     atom    2 type  2   force =    -0.00000000    0.00000000    0.00135004
     atom    3 type  2   force =     0.00000000   -0.00000000   -0.00135004
     atom    4 type  3   force =     0.00000000    0.00000000    0.00000000
     The Hubbard contrib.    to forces
     atom    1 type  1   force =     0.00000000    0.00000000    0.00000000
     atom    2 type  2   force =     0.00000000    0.00000000    0.00000000
     atom    3 type  2   force =     0.00000000    0.00000000    0.00000000
     atom    4 type  3   force =     0.00000000    0.00000000    0.00000000
     The SCF correction term to forces
     atom    1 type  1   force =    -0.00000000   -0.00000000   -0.00000000
     atom    2 type  2   force =    -0.00000000    0.00000000    0.00000586
     atom    3 type  2   force =     0.00000000   -0.00000000   -0.00000586
     atom    4 type  3   force =     0.00000000   -0.00000000   -0.00000000

     Total force =     0.051647     Total SCF correction =     0.000008


     Computing stress (Cartesian axis) and pressure

          total   stress  (Ry/bohr**3)                   (kbar)     P=      -39.72
  -0.00026643   0.00000000   0.00000000          -39.19        0.00        0.00
   0.00000000  -0.00026695  -0.00000000            0.00      -39.27       -0.00
  -0.00000000   0.00000000  -0.00027671           -0.00        0.00      -40.71

     kinetic stress (kbar)  14745.47     -0.00     -0.00
                               -0.00  14843.01     -0.00
                               -0.00     -0.00  14759.09

     local   stress (kbar) -18880.85      0.00      0.00
                                0.00 -24245.54      0.00
                                0.00      0.00   4121.43

     nonloc. stress (kbar)   8010.80      0.00      0.00
                                0.00   7931.27      0.00
                                0.00     -0.00   8005.24

     hartree stress (kbar)   8370.86     -0.00     -0.00
                               -0.00  10123.95     -0.00
                               -0.00     -0.00  -2058.08

     exc-cor stress (kbar)  -1131.04     -0.00     -0.00
                               -0.00  -1121.18     -0.00
                               -0.00     -0.00  -1130.54

     corecor stress (kbar)  -2029.30     -0.00      0.00
                               -0.00  -2029.34      0.00
                                0.00      0.00  -2029.16

     ewald   stress (kbar)  -9125.13      0.00     -0.00
                                0.00  -5541.44     -0.00
                               -0.00     -0.00 -21708.70

     hubbard stress (kbar)      0.00      0.00      0.00
                                0.00      0.00      0.00
                                0.00      0.00      0.00

     DFT-D   stress (kbar)      0.00      0.00      0.00
                                0.00      0.00      0.00
                                0.00      0.00      0.00

     XDM     stress (kbar)      0.00      0.00      0.00
                                0.00      0.00      0.00
                                0.00      0.00      0.00

     dft-nl  stress (kbar)      0.00      0.00      0.00
                                0.00      0.00      0.00
                                0.00      0.00      0.00

     TS-vdW  stress (kbar)      0.00      0.00      0.00
                                0.00      0.00      0.00
                                0.00      0.00      0.00



     Writing output data file /zfs_data/gutierre/Scratch/Cl2NbO/convergence/cutoff/8x8x8/70/tmp/Cl2NbO.save/
 
     init_run     :      1.60s CPU      1.70s WALL (       1 calls)
     electrons    :     35.97s CPU     37.18s WALL (       1 calls)
     forces       :      0.36s CPU      0.36s WALL (       1 calls)
     stress       :      0.80s CPU      0.81s WALL (       1 calls)

     Called by init_run:
     wfcinit      :      1.08s CPU      1.14s WALL (       1 calls)
     wfcinit:atom :      0.01s CPU      0.01s WALL (      95 calls)
     wfcinit:wfcr :      1.05s CPU      1.10s WALL (      95 calls)
     potinit      :      0.19s CPU      0.20s WALL (       1 calls)
     hinit0       :      0.22s CPU      0.24s WALL (       1 calls)

     Called by electrons:
     c_bands      :     28.33s CPU     29.30s WALL (      12 calls)
     sum_band     :      6.09s CPU      6.29s WALL (      12 calls)
     v_of_rho     :      0.46s CPU      0.47s WALL (      13 calls)
     v_h          :      0.04s CPU      0.04s WALL (      13 calls)
     v_xc         :      0.49s CPU      0.50s WALL (      15 calls)
     newd         :      0.42s CPU      0.43s WALL (      13 calls)
     PAW_pot      :      0.66s CPU      0.68s WALL (      13 calls)
     mix_rho      :      0.06s CPU      0.06s WALL (      12 calls)

     Called by c_bands:
     init_us_2    :      0.28s CPU      0.29s WALL (    2565 calls)
     cegterg      :     27.58s CPU     28.49s WALL (    1140 calls)

     Called by sum_band:
     sum_band:wei :      0.04s CPU      0.04s WALL (      12 calls)
     sum_band:loo :      5.58s CPU      5.75s WALL (      12 calls)
     sum_band:buf :      0.02s CPU      0.02s WALL (    1140 calls)
     sum_band:ini :      0.12s CPU      0.13s WALL (    1140 calls)
     sum_band:cal :      0.13s CPU      0.13s WALL (    1140 calls)
     sum_band:bec :      0.03s CPU      0.03s WALL (    1140 calls)
     addusdens    :      0.41s CPU      0.42s WALL (      12 calls)
     addusd:skk   :      0.00s CPU      0.00s WALL (      36 calls)
     addusd:dgemm :      0.11s CPU      0.12s WALL (      36 calls)
     addusd:qvan2 :      0.28s CPU      0.28s WALL (      36 calls)

     Called by *egterg:
     cdiaghg      :      2.38s CPU      2.53s WALL (    4188 calls)
     cegterg:over :      0.38s CPU      0.40s WALL (    3048 calls)
     cegterg:upda :      0.12s CPU      0.12s WALL (    3048 calls)
     cegterg:last :      0.18s CPU      0.18s WALL (    2224 calls)
     h_psi        :     24.91s CPU     25.69s WALL (    4283 calls)
     s_psi        :      0.14s CPU      0.15s WALL (    4283 calls)
     g_psi        :      0.03s CPU      0.03s WALL (    3048 calls)

     Called by h_psi:
     h_psi:calbec :      0.44s CPU      0.46s WALL (    4283 calls)
     vloc_psi     :     24.17s CPU     24.92s WALL (    4283 calls)
     add_vuspsi   :      0.21s CPU      0.22s WALL (    4283 calls)

     General routines
     calbec       :      0.58s CPU      0.60s WALL (    5898 calls)
     fft          :      0.33s CPU      0.34s WALL (     192 calls)
     ffts         :      0.01s CPU      0.01s WALL (      25 calls)
     fftw         :     26.88s CPU     27.73s WALL (  146150 calls)
     interpolate  :      0.03s CPU      0.03s WALL (      13 calls)
 
     Parallel routines
     fft_scatt_xy :      3.10s CPU      3.18s WALL (  146367 calls)
     fft_scatt_yz :     13.49s CPU     13.92s WALL (  146367 calls)

     PAW routines
     PAW_pot      :      0.66s CPU      0.68s WALL (      13 calls)
     PAW_symme    :      0.01s CPU      0.01s WALL (      25 calls)
 
     PWSCF        :     39.47s CPU     41.45s WALL

 
   This run was terminated on:  15:54:47  18May2022            

=------------------------------------------------------------------------------=
   JOB DONE.
=------------------------------------------------------------------------------=
