MPI startup(): Warning: I_MPI_PMI_LIBRARY will be ignored since the hydra process manager was found
MPI startup(): Warning: I_MPI_PMI_LIBRARY will be ignored since the hydra process manager was found
MPI startup(): Warning: I_MPI_PMI_LIBRARY will be ignored since the hydra process manager was found
MPI startup(): Warning: I_MPI_PMI_LIBRARY will be ignored since the hydra process manager was found
MPI startup(): Warning: I_MPI_PMI_LIBRARY will be ignored since the hydra process manager was found
MPI startup(): Warning: I_MPI_PMI_LIBRARY will be ignored since the hydra process manager was found
MPI startup(): Warning: I_MPI_PMI_LIBRARY will be ignored since the hydra process manager was found
MPI startup(): Warning: I_MPI_PMI_LIBRARY will be ignored since the hydra process manager was found
MPI startup(): Warning: I_MPI_PMI_LIBRARY will be ignored since the hydra process manager was found
MPI startup(): Warning: I_MPI_PMI_LIBRARY will be ignored since the hydra process manager was found
MPI startup(): Warning: I_MPI_PMI_LIBRARY will be ignored since the hydra process manager was found
MPI startup(): Warning: I_MPI_PMI_LIBRARY will be ignored since the hydra process manager was found
MPI startup(): Warning: I_MPI_PMI_LIBRARY will be ignored since the hydra process manager was found
MPI startup(): Warning: I_MPI_PMI_LIBRARY will be ignored since the hydra process manager was found
MPI startup(): Warning: I_MPI_PMI_LIBRARY will be ignored since the hydra process manager was found
MPI startup(): Warning: I_MPI_PMI_LIBRARY will be ignored since the hydra process manager was found
MPI startup(): Warning: I_MPI_PMI_LIBRARY will be ignored since the hydra process manager was found
MPI startup(): Warning: I_MPI_PMI_LIBRARY will be ignored since the hydra process manager was found
MPI startup(): Warning: I_MPI_PMI_LIBRARY will be ignored since the hydra process manager was found
MPI startup(): Warning: I_MPI_PMI_LIBRARY will be ignored since the hydra process manager was found
MPI startup(): Warning: I_MPI_PMI_LIBRARY will be ignored since the hydra process manager was found
MPI startup(): Warning: I_MPI_PMI_LIBRARY will be ignored since the hydra process manager was found
MPI startup(): Warning: I_MPI_PMI_LIBRARY will be ignored since the hydra process manager was found
MPI startup(): Warning: I_MPI_PMI_LIBRARY will be ignored since the hydra process manager was found

     Program PWSCF v.6.7MaX starts on 30Jul2021 at 19: 0: 9 

     This program is part of the open-source Quantum ESPRESSO suite
     for quantum simulation of materials; please cite
         "P. Giannozzi et al., J. Phys.:Condens. Matter 21 395502 (2009);
         "P. Giannozzi et al., J. Phys.:Condens. Matter 29 465901 (2017);
          URL http://www.quantum-espresso.org", 
     in publications or presentations arising from this work. More details at
     http://www.quantum-espresso.org/quote

     Parallel version (MPI), running on    24 processors

     MPI processes distributed on     1 nodes
     R & G space division:  proc/nbgrp/npool/nimage =      24
     Waiting for input...
     Reading input from standard input

     Current dimensions of program PWSCF are:
     Max number of different atomic species (ntypx) = 10
     Max number of k-points (npk) =  40000
     Max angular momentum in pseudopotentials (lmaxx) =  3
     file Cr.rel-pbe-spn-kjpaw_psl.1.0.0.UPF: wavefunction(s)  3S 3P 3P 3D 3D renormalized
     file Si.rel-pbe-n-kjpaw_psl.1.0.0.UPF: wavefunction(s)  3S 3P 3P renormalized

     Subspace diagonalization in iterative solution of the eigenvalue problem:
     a serial algorithm will be used

     Message from routine setup:
     using ibrav=0 with symmetry is DISCOURAGED, use correct ibrav instead
 
     Parallelization info
     --------------------
     sticks:   dense  smooth     PW     G-vecs:    dense   smooth      PW
     Min         177      70     20                 8717     2202     340
     Max         178      71     21                 8720     2207     345
     Sum        4257    1701    489               209233    52923    8217
 


     bravais-lattice index     =            0
     lattice parameter (alat)  =       8.7475  a.u.
     unit-cell volume          =     669.3575 (a.u.)^3
     number of atoms/cell      =            8
     number of atomic types    =            2
     number of electrons       =        72.00
     number of Kohn-Sham states=           86
     kinetic-energy cutoff     =      70.0000  Ry
     charge density cutoff     =     700.0000  Ry
     scf convergence threshold =      1.0E-06
     mixing beta               =       0.7000
     number of iterations used =            8  plain     mixing
     Exchange-correlation= SLA  PW   PBX  PBC
                           (   1   4   3   4   0   0   0)
     Non magnetic calculation with spin-orbit


     celldm(1)=   8.747542  celldm(2)=   0.000000  celldm(3)=   0.000000
     celldm(4)=   0.000000  celldm(5)=   0.000000  celldm(6)=   0.000000

     crystal axes: (cart. coord. in units of alat)
               a(1) = (   1.000000   0.000000   0.000000 )  
               a(2) = (   0.000000   1.000000   0.000000 )  
               a(3) = (   0.000000   0.000000   1.000000 )  

     reciprocal axes: (cart. coord. in units 2 pi/alat)
               b(1) = (  1.000000  0.000000  0.000000 )  
               b(2) = (  0.000000  1.000000  0.000000 )  
               b(3) = (  0.000000  0.000000  1.000000 )  


     PseudoPot. # 1 for Cr read from file:
     ../../../../pseudo/Cr.rel-pbe-spn-kjpaw_psl.1.0.0.UPF
     MD5 check sum: 1e24e2b5251376a8b945118fca0c7981
     Pseudo is Projector augmented-wave + core cor, Zval = 14.0
     Generated using &quot;atomic&quot; code by A. Dal Corso  v.6.3
     Shape of augmentation charge: PSQ
     Using radial grid of 1183 points, 10 beta functions with: 
                l(1) =   0
                l(2) =   0
                l(3) =   1
                l(4) =   1
                l(5) =   1
                l(6) =   1
                l(7) =   2
                l(8) =   2
                l(9) =   2
               l(10) =   2
     Q(r) pseudized with 0 coefficients 


     PseudoPot. # 2 for Si read from file:
     ../../../../pseudo/Si.rel-pbe-n-kjpaw_psl.1.0.0.UPF
     MD5 check sum: d74f6caf6830ea4c2076867160cab1b0
     Pseudo is Projector augmented-wave + core cor, Zval =  4.0
     Generated using &quot;atomic&quot; code by A. Dal Corso  v.6.3
     Shape of augmentation charge: PSQ
     Using radial grid of 1141 points, 10 beta functions with: 
                l(1) =   0
                l(2) =   0
                l(3) =   1
                l(4) =   1
                l(5) =   1
                l(6) =   1
                l(7) =   2
                l(8) =   2
                l(9) =   2
               l(10) =   2
     Q(r) pseudized with 0 coefficients 


     atomic species   valence    mass     pseudopotential
        Cr            14.00    51.99600     Cr( 1.00)
        Si             4.00    28.08500     Si( 1.00)

     12 Sym. Ops. (no inversion) found ( 9 have fractional translation)


                                    s                        frac. trans.

      isym =  1     identity                                     

 cryst.   s( 1) = (     1          0          0      )
                  (     0          1          0      )
                  (     0          0          1      )

 cart.    s( 1) = (  1.0000000  0.0000000  0.0000000 )
                  (  0.0000000  1.0000000  0.0000000 )
                  (  0.0000000  0.0000000  1.0000000 )


      isym =  2     180 deg rotation - cart. axis [0,0,1]        

 cryst.   s( 2) = (    -1          0          0      )    f =(  0.5000000 )
                  (     0         -1          0      )       (  0.0000000 )
                  (     0          0          1      )       ( -0.5000000 )

 cart.    s( 2) = ( -1.0000000  0.0000000  0.0000000 )    f =(  0.5000000 )
                  (  0.0000000 -1.0000000  0.0000000 )       (  0.0000000 )
                  (  0.0000000  0.0000000  1.0000000 )       ( -0.5000000 )


      isym =  3     180 deg rotation - cart. axis [0,1,0]        

 cryst.   s( 3) = (    -1          0          0      )    f =(  0.0000000 )
                  (     0          1          0      )       ( -0.5000000 )
                  (     0          0         -1      )       (  0.5000000 )

 cart.    s( 3) = ( -1.0000000  0.0000000  0.0000000 )    f =(  0.0000000 )
                  (  0.0000000  1.0000000  0.0000000 )       ( -0.5000000 )
                  (  0.0000000  0.0000000 -1.0000000 )       (  0.5000000 )


      isym =  4     180 deg rotation - cart. axis [1,0,0]        

 cryst.   s( 4) = (     1          0          0      )    f =(  0.5000000 )
                  (     0         -1          0      )       (  0.5000000 )
                  (     0          0         -1      )       (  0.0000000 )

 cart.    s( 4) = (  1.0000000  0.0000000  0.0000000 )    f =(  0.5000000 )
                  (  0.0000000 -1.0000000  0.0000000 )       (  0.5000000 )
                  (  0.0000000  0.0000000 -1.0000000 )       (  0.0000000 )


      isym =  5     120 deg rotation - cart. axis [-1,-1,-1]     

 cryst.   s( 5) = (     0          0          1      )
                  (     1          0          0      )
                  (     0          1          0      )

 cart.    s( 5) = (  0.0000000  1.0000000  0.0000000 )
                  (  0.0000000  0.0000000  1.0000000 )
                  (  1.0000000  0.0000000  0.0000000 )


      isym =  6     120 deg rotation - cart. axis [-1,1,1]       

 cryst.   s( 6) = (     0          0         -1      )    f =(  0.0000000 )
                  (    -1          0          0      )       ( -0.5000000 )
                  (     0          1          0      )       (  0.5000000 )

 cart.    s( 6) = (  0.0000000 -1.0000000  0.0000000 )    f =(  0.0000000 )
                  (  0.0000000  0.0000000  1.0000000 )       ( -0.5000000 )
                  ( -1.0000000  0.0000000  0.0000000 )       (  0.5000000 )


      isym =  7     120 deg rotation - cart. axis [1,1,-1]       

 cryst.   s( 7) = (     0          0         -1      )    f =(  0.5000000 )
                  (     1          0          0      )       (  0.5000000 )
                  (     0         -1          0      )       (  0.0000000 )

 cart.    s( 7) = (  0.0000000  1.0000000  0.0000000 )    f =(  0.5000000 )
                  (  0.0000000  0.0000000 -1.0000000 )       (  0.5000000 )
                  ( -1.0000000  0.0000000  0.0000000 )       (  0.0000000 )


      isym =  8     120 deg rotation - cart. axis [1,-1,1]       

 cryst.   s( 8) = (     0          0          1      )    f =(  0.5000000 )
                  (    -1          0          0      )       (  0.0000000 )
                  (     0         -1          0      )       ( -0.5000000 )

 cart.    s( 8) = (  0.0000000 -1.0000000  0.0000000 )    f =(  0.5000000 )
                  (  0.0000000  0.0000000 -1.0000000 )       (  0.0000000 )
                  (  1.0000000  0.0000000  0.0000000 )       ( -0.5000000 )


      isym =  9     120 deg rotation - cart. axis [1,1,1]        

 cryst.   s( 9) = (     0          1          0      )
                  (     0          0          1      )
                  (     1          0          0      )

 cart.    s( 9) = (  0.0000000  0.0000000  1.0000000 )
                  (  1.0000000  0.0000000  0.0000000 )
                  (  0.0000000  1.0000000  0.0000000 )


      isym = 10     120 deg rotation - cart. axis [-1,1,-1]      

 cryst.   s(10) = (     0         -1          0      )    f =(  0.5000000 )
                  (     0          0         -1      )       (  0.5000000 )
                  (     1          0          0      )       (  0.0000000 )

 cart.    s(10) = (  0.0000000  0.0000000  1.0000000 )    f =(  0.5000000 )
                  ( -1.0000000  0.0000000  0.0000000 )       (  0.5000000 )
                  (  0.0000000 -1.0000000  0.0000000 )       (  0.0000000 )


      isym = 11     120 deg rotation - cart. axis [1,-1,-1]      

 cryst.   s(11) = (     0         -1          0      )    f =(  0.5000000 )
                  (     0          0          1      )       (  0.0000000 )
                  (    -1          0          0      )       ( -0.5000000 )

 cart.    s(11) = (  0.0000000  0.0000000 -1.0000000 )    f =(  0.5000000 )
                  ( -1.0000000  0.0000000  0.0000000 )       (  0.0000000 )
                  (  0.0000000  1.0000000  0.0000000 )       ( -0.5000000 )


      isym = 12     120 deg rotation - cart. axis [-1,-1,1]      

 cryst.   s(12) = (     0          1          0      )    f =(  0.0000000 )
                  (     0          0         -1      )       ( -0.5000000 )
                  (    -1          0          0      )       (  0.5000000 )

 cart.    s(12) = (  0.0000000  0.0000000 -1.0000000 )    f =(  0.0000000 )
                  (  1.0000000  0.0000000  0.0000000 )       ( -0.5000000 )
                  (  0.0000000 -1.0000000  0.0000000 )       (  0.5000000 )


   Cartesian axes

     site n.     atom                  positions (alat units)
         1           Cr  tau(   1) = (   0.8640000   0.3640000   0.1360000  )
         2           Cr  tau(   2) = (   0.3640000   0.1360000   0.8640000  )
         3           Cr  tau(   3) = (   0.1360000   0.8640000   0.3640000  )
         4           Cr  tau(   4) = (   0.6360000   0.6360000   0.6360000  )
         5           Si  tau(   5) = (   0.1540000   0.6540000   0.8460000  )
         6           Si  tau(   6) = (   0.6540000   0.8460000   0.1540000  )
         7           Si  tau(   7) = (   0.8460000   0.1540000   0.6540000  )
         8           Si  tau(   8) = (   0.3460000   0.3460000   0.3460000  )

   Crystallographic axes

     site n.     atom                  positions (cryst. coord.)
         1           Cr  tau(   1) = (  0.8640000  0.3640000  0.1360000  )
         2           Cr  tau(   2) = (  0.3640000  0.1360000  0.8640000  )
         3           Cr  tau(   3) = (  0.1360000  0.8640000  0.3640000  )
         4           Cr  tau(   4) = (  0.6360000  0.6360000  0.6360000  )
         5           Si  tau(   5) = (  0.1540000  0.6540000  0.8460000  )
         6           Si  tau(   6) = (  0.6540000  0.8460000  0.1540000  )
         7           Si  tau(   7) = (  0.8460000  0.1540000  0.6540000  )
         8           Si  tau(   8) = (  0.3460000  0.3460000  0.3460000  )

     number of k points=    45  Methfessel-Paxton smearing, width (Ry)=  0.0200
                       cart. coord. in units 2pi/alat
        k(    1) = (   0.0000000   0.0000000   0.0000000), wk =   0.0019531
        k(    2) = (   0.0000000   0.0000000   0.1250000), wk =   0.0117188
        k(    3) = (   0.0000000   0.0000000   0.2500000), wk =   0.0117188
        k(    4) = (   0.0000000   0.0000000   0.3750000), wk =   0.0117188
        k(    5) = (   0.0000000   0.0000000  -0.5000000), wk =   0.0058594
        k(    6) = (   0.0000000   0.1250000   0.1250000), wk =   0.0234375
        k(    7) = (   0.0000000   0.1250000   0.2500000), wk =   0.0234375
        k(    8) = (   0.0000000   0.1250000   0.3750000), wk =   0.0234375
        k(    9) = (   0.0000000   0.1250000  -0.5000000), wk =   0.0117188
        k(   10) = (   0.0000000   0.2500000   0.2500000), wk =   0.0234375
        k(   11) = (   0.0000000   0.2500000   0.3750000), wk =   0.0234375
        k(   12) = (   0.0000000   0.2500000  -0.5000000), wk =   0.0117188
        k(   13) = (   0.0000000   0.3750000   0.3750000), wk =   0.0234375
        k(   14) = (   0.0000000   0.3750000  -0.5000000), wk =   0.0117188
        k(   15) = (   0.0000000  -0.5000000  -0.5000000), wk =   0.0058594
        k(   16) = (   0.1250000   0.1250000   0.1250000), wk =   0.0156250
        k(   17) = (   0.1250000   0.1250000   0.2500000), wk =   0.0468750
        k(   18) = (   0.1250000   0.1250000   0.3750000), wk =   0.0468750
        k(   19) = (   0.1250000   0.1250000  -0.5000000), wk =   0.0234375
        k(   20) = (   0.1250000   0.2500000   0.2500000), wk =   0.0468750
        k(   21) = (   0.1250000   0.2500000   0.3750000), wk =   0.0468750
        k(   22) = (   0.1250000   0.2500000  -0.5000000), wk =   0.0234375
        k(   23) = (   0.1250000   0.3750000   0.3750000), wk =   0.0468750
        k(   24) = (   0.1250000   0.3750000  -0.5000000), wk =   0.0234375
        k(   25) = (   0.1250000  -0.5000000  -0.5000000), wk =   0.0117188
        k(   26) = (   0.2500000   0.2500000   0.2500000), wk =   0.0156250
        k(   27) = (   0.2500000   0.2500000   0.3750000), wk =   0.0468750
        k(   28) = (   0.2500000   0.2500000  -0.5000000), wk =   0.0234375
        k(   29) = (   0.2500000   0.3750000   0.3750000), wk =   0.0468750
        k(   30) = (   0.2500000   0.3750000  -0.5000000), wk =   0.0234375
        k(   31) = (   0.2500000  -0.5000000  -0.5000000), wk =   0.0117188
        k(   32) = (   0.3750000   0.3750000   0.3750000), wk =   0.0156250
        k(   33) = (   0.3750000   0.3750000  -0.5000000), wk =   0.0234375
        k(   34) = (   0.3750000  -0.5000000  -0.5000000), wk =   0.0117188
        k(   35) = (  -0.5000000  -0.5000000  -0.5000000), wk =   0.0019531
        k(   36) = (   0.0000000   0.2500000   0.1250000), wk =   0.0234375
        k(   37) = (   0.0000000   0.3750000   0.1250000), wk =   0.0234375
        k(   38) = (   0.0000000  -0.5000000   0.1250000), wk =   0.0117188
        k(   39) = (   0.0000000   0.3750000   0.2500000), wk =   0.0234375
        k(   40) = (   0.0000000  -0.5000000   0.2500000), wk =   0.0117188
        k(   41) = (   0.0000000  -0.5000000   0.3750000), wk =   0.0117188
        k(   42) = (  -0.1250000   0.3750000   0.2500000), wk =   0.0468750
        k(   43) = (  -0.1250000  -0.5000000   0.2500000), wk =   0.0234375
        k(   44) = (  -0.1250000  -0.5000000   0.3750000), wk =   0.0234375
        k(   45) = (  -0.2500000  -0.5000000   0.3750000), wk =   0.0234375

                       cryst. coord.
        k(    1) = (   0.0000000   0.0000000   0.0000000), wk =   0.0019531
        k(    2) = (   0.0000000   0.0000000   0.1250000), wk =   0.0117188
        k(    3) = (   0.0000000   0.0000000   0.2500000), wk =   0.0117188
        k(    4) = (   0.0000000   0.0000000   0.3750000), wk =   0.0117188
        k(    5) = (   0.0000000   0.0000000  -0.5000000), wk =   0.0058594
        k(    6) = (   0.0000000   0.1250000   0.1250000), wk =   0.0234375
        k(    7) = (   0.0000000   0.1250000   0.2500000), wk =   0.0234375
        k(    8) = (   0.0000000   0.1250000   0.3750000), wk =   0.0234375
        k(    9) = (   0.0000000   0.1250000  -0.5000000), wk =   0.0117188
        k(   10) = (   0.0000000   0.2500000   0.2500000), wk =   0.0234375
        k(   11) = (   0.0000000   0.2500000   0.3750000), wk =   0.0234375
        k(   12) = (   0.0000000   0.2500000  -0.5000000), wk =   0.0117188
        k(   13) = (   0.0000000   0.3750000   0.3750000), wk =   0.0234375
        k(   14) = (   0.0000000   0.3750000  -0.5000000), wk =   0.0117188
        k(   15) = (   0.0000000  -0.5000000  -0.5000000), wk =   0.0058594
        k(   16) = (   0.1250000   0.1250000   0.1250000), wk =   0.0156250
        k(   17) = (   0.1250000   0.1250000   0.2500000), wk =   0.0468750
        k(   18) = (   0.1250000   0.1250000   0.3750000), wk =   0.0468750
        k(   19) = (   0.1250000   0.1250000  -0.5000000), wk =   0.0234375
        k(   20) = (   0.1250000   0.2500000   0.2500000), wk =   0.0468750
        k(   21) = (   0.1250000   0.2500000   0.3750000), wk =   0.0468750
        k(   22) = (   0.1250000   0.2500000  -0.5000000), wk =   0.0234375
        k(   23) = (   0.1250000   0.3750000   0.3750000), wk =   0.0468750
        k(   24) = (   0.1250000   0.3750000  -0.5000000), wk =   0.0234375
        k(   25) = (   0.1250000  -0.5000000  -0.5000000), wk =   0.0117188
        k(   26) = (   0.2500000   0.2500000   0.2500000), wk =   0.0156250
        k(   27) = (   0.2500000   0.2500000   0.3750000), wk =   0.0468750
        k(   28) = (   0.2500000   0.2500000  -0.5000000), wk =   0.0234375
        k(   29) = (   0.2500000   0.3750000   0.3750000), wk =   0.0468750
        k(   30) = (   0.2500000   0.3750000  -0.5000000), wk =   0.0234375
        k(   31) = (   0.2500000  -0.5000000  -0.5000000), wk =   0.0117188
        k(   32) = (   0.3750000   0.3750000   0.3750000), wk =   0.0156250
        k(   33) = (   0.3750000   0.3750000  -0.5000000), wk =   0.0234375
        k(   34) = (   0.3750000  -0.5000000  -0.5000000), wk =   0.0117188
        k(   35) = (  -0.5000000  -0.5000000  -0.5000000), wk =   0.0019531
        k(   36) = (   0.0000000   0.2500000   0.1250000), wk =   0.0234375
        k(   37) = (   0.0000000   0.3750000   0.1250000), wk =   0.0234375
        k(   38) = (   0.0000000  -0.5000000   0.1250000), wk =   0.0117188
        k(   39) = (   0.0000000   0.3750000   0.2500000), wk =   0.0234375
        k(   40) = (   0.0000000  -0.5000000   0.2500000), wk =   0.0117188
        k(   41) = (   0.0000000  -0.5000000   0.3750000), wk =   0.0117188
        k(   42) = (  -0.1250000   0.3750000   0.2500000), wk =   0.0468750
        k(   43) = (  -0.1250000  -0.5000000   0.2500000), wk =   0.0234375
        k(   44) = (  -0.1250000  -0.5000000   0.3750000), wk =   0.0234375
        k(   45) = (  -0.2500000  -0.5000000   0.3750000), wk =   0.0234375

     Dense  grid:   209233 G-vectors     FFT dimensions: (  80,  80,  80)

     Smooth grid:    52923 G-vectors     FFT dimensions: (  48,  48,  48)

     Dynamical RAM for                 wfc:       0.72 MB

     Dynamical RAM for     wfc (w. buffer):      33.20 MB

     Dynamical RAM for           str. fact:       0.27 MB

     Dynamical RAM for           local pot:       0.00 MB

     Dynamical RAM for          nlocal pot:       1.14 MB

     Dynamical RAM for                qrad:      11.12 MB

     Dynamical RAM for          rho,v,vnew:       3.94 MB

     Dynamical RAM for               rhoin:       1.31 MB

     Dynamical RAM for            rho*nmix:       8.52 MB

     Dynamical RAM for           G-vectors:       0.52 MB

     Dynamical RAM for          h,s,v(r/c):       1.35 MB

     Dynamical RAM for          <psi|beta>:       0.71 MB

     Dynamical RAM for                 psi:       1.44 MB

     Dynamical RAM for                hpsi:       1.44 MB

     Dynamical RAM for                spsi:       1.44 MB

     Dynamical RAM for      wfcinit/wfcrot:       1.70 MB

     Dynamical RAM for           addusdens:      81.70 MB

     Estimated static dynamical RAM per process >      61.97 MB

     Estimated max dynamical RAM per process >     143.67 MB

     Estimated total dynamical RAM >       3.37 GB

     Initial potential from superposition of free atoms

     starting charge   71.99469, renormalised to   72.00000
     Starting wfcs are  112 randomized atomic wfcs
     Checking if some PAW data can be deallocated... 
       PAW data deallocated on   12 nodes for type:  1
       PAW data deallocated on   12 nodes for type:  2

     total cpu time spent up to now is        7.9 secs

     Self-consistent Calculation

     iteration #  1     ecut=    70.00 Ry     beta= 0.70
     Davidson diagonalization with overlap
     ethr =  1.00E-02,  avg # of iterations =  2.0

     Threshold (ethr) on eigenvalues was too large:
     Diagonalizing with lowered threshold

     Davidson diagonalization with overlap
     ethr =  2.09E-04,  avg # of iterations =  4.3

     total cpu time spent up to now is       36.7 secs

     total energy              =   -1180.30352124 Ry
     estimated scf accuracy    <       0.18914019 Ry

     iteration #  2     ecut=    70.00 Ry     beta= 0.70
     Davidson diagonalization with overlap
     ethr =  2.63E-04,  avg # of iterations =  3.2

     total cpu time spent up to now is       51.8 secs

     total energy              =   -1180.30774188 Ry
     estimated scf accuracy    <       0.08348106 Ry

     iteration #  3     ecut=    70.00 Ry     beta= 0.70
     Davidson diagonalization with overlap
     ethr =  1.16E-04,  avg # of iterations =  5.0

     total cpu time spent up to now is       70.1 secs

     total energy              =   -1180.31981807 Ry
     estimated scf accuracy    <       0.16187667 Ry

     iteration #  4     ecut=    70.00 Ry     beta= 0.70
     Davidson diagonalization with overlap
     ethr =  1.16E-04,  avg # of iterations =  4.0

     total cpu time spent up to now is       84.8 secs

     total energy              =   -1180.34353372 Ry
     estimated scf accuracy    <       0.00024439 Ry

     iteration #  5     ecut=    70.00 Ry     beta= 0.70
     Davidson diagonalization with overlap
     ethr =  3.39E-07,  avg # of iterations =  9.0

     total cpu time spent up to now is      109.5 secs

     total energy              =   -1180.34418179 Ry
     estimated scf accuracy    <       0.00047271 Ry

     iteration #  6     ecut=    70.00 Ry     beta= 0.70
     Davidson diagonalization with overlap
     ethr =  3.39E-07,  avg # of iterations =  4.1

     total cpu time spent up to now is      124.5 secs

     total energy              =   -1180.34426353 Ry
     estimated scf accuracy    <       0.00000655 Ry

     iteration #  7     ecut=    70.00 Ry     beta= 0.70
     Davidson diagonalization with overlap
     ethr =  9.10E-09,  avg # of iterations =  4.9

     total cpu time spent up to now is      139.8 secs

     total energy              =   -1180.34426380 Ry
     estimated scf accuracy    <       0.00000457 Ry

     iteration #  8     ecut=    70.00 Ry     beta= 0.70
     Davidson diagonalization with overlap
     ethr =  6.35E-09,  avg # of iterations =  3.8

     total cpu time spent up to now is      153.8 secs

     End of self-consistent calculation

          k = 0.0000 0.0000 0.0000 (  6619 PWs)   bands (ev):

   -56.5127 -56.5127 -56.4781 -56.4781 -56.4781 -56.4781 -56.4781 -56.4781
   -28.5798 -28.5798 -28.5723 -28.5723 -28.5723 -28.5723 -28.4829 -28.4829
   -27.6145 -27.6145 -27.6145 -27.6145 -27.5378 -27.5378 -27.5378 -27.5378
   -27.5330 -27.5330 -27.4505 -27.4505 -27.4503 -27.4503 -27.4503 -27.4503
     2.6988   2.6988   7.4570   7.4570   7.4570   7.4570   7.4661   7.4661
    10.5372  10.5372  10.5451  10.5451  10.5451  10.5451  11.9114  11.9114
    11.9114  11.9114  11.9225  11.9225  12.6025  12.6025  12.7722  12.7722
    12.7722  12.7722  13.1442  13.1442  13.1442  13.1442  13.1453  13.1453
    13.6723  13.6723  13.6723  13.6723  13.6762  13.6762  15.5523  15.5523
    15.5836  15.5836  15.5836  15.5836  15.7670  15.7670  15.7670  15.7670
    16.6659  16.6659  16.6962  16.6962  16.6962  16.6962

     occupation numbers 
     1.0000   1.0000   1.0000   1.0000   1.0000   1.0000   1.0000   1.0000
     1.0000   1.0000   1.0000   1.0000   1.0000   1.0000   1.0000   1.0000
     1.0000   1.0000   1.0000   1.0000   1.0000   1.0000   1.0000   1.0000
     1.0000   1.0000   1.0000   1.0000   1.0000   1.0000   1.0000   1.0000
     1.0000   1.0000   1.0000   1.0000   1.0000   1.0000   1.0000   1.0000
     1.0000   1.0000   1.0000   1.0000   1.0000   1.0000   1.0000   1.0000
     1.0000   1.0000   1.0000   1.0000   1.0000   1.0000   1.0000   1.0000
     1.0000   1.0000   1.0000   1.0000   1.0000   1.0000   1.0000   1.0000
     1.0000   1.0000   1.0000   1.0000   1.0000   1.0000  -0.0040  -0.0040
    -0.0026  -0.0026  -0.0026  -0.0026  -0.0001  -0.0001  -0.0001  -0.0001
    -0.0000  -0.0000  -0.0000  -0.0000  -0.0000  -0.0000

          k = 0.0000 0.0000 0.1250 (  6635 PWs)   bands (ev):

   -56.5117 -56.5117 -56.4821 -56.4821 -56.4777 -56.4777 -56.4754 -56.4754
   -28.5861 -28.5791 -28.5759 -28.5754 -28.5656 -28.5625 -28.4857 -28.4857
   -27.6280 -27.6214 -27.6053 -27.5988 -27.5471 -27.5436 -27.5402 -27.5324
   -27.5307 -27.5207 -27.4584 -27.4562 -27.4541 -27.4489 -27.4481 -27.4441
     2.8071   2.8071   6.7954   6.7986   7.5181   7.5196   7.9728   7.9815
    10.0754  10.0805  10.6136  10.6153  11.0394  11.0412  11.3202  11.3202
    11.6503  11.6542  12.5296  12.5362  12.5612  12.5794  12.7795  12.7867
    12.9232  12.9245  13.1146  13.1166  13.1791  13.1794  13.2099  13.2103
    13.5225  13.5302  13.6538  13.6554  13.9004  13.9006  15.3985  15.4167
    15.4456  15.4552  15.7238  15.7270  15.7403  15.7547  15.7667  15.7721
    16.4744  16.4914  16.6343  16.6391  16.8964  16.9169

     occupation numbers 
     1.0000   1.0000   1.0000   1.0000   1.0000   1.0000   1.0000   1.0000
     1.0000   1.0000   1.0000   1.0000   1.0000   1.0000   1.0000   1.0000
     1.0000   1.0000   1.0000   1.0000   1.0000   1.0000   1.0000   1.0000
     1.0000   1.0000   1.0000   1.0000   1.0000   1.0000   1.0000   1.0000
     1.0000   1.0000   1.0000   1.0000   1.0000   1.0000   1.0000   1.0000
     1.0000   1.0000   1.0000   1.0000   1.0000   1.0000   1.0000   1.0000
     1.0000   1.0000   1.0000   1.0000   1.0000   1.0000   1.0000   1.0000
     1.0000   1.0000   1.0000   1.0000   1.0000   1.0000   1.0000   1.0000
     1.0000   1.0000   1.0000   1.0000   1.0000   1.0000  -0.0217  -0.0187
    -0.0143  -0.0130  -0.0002  -0.0002  -0.0002  -0.0001  -0.0001  -0.0001
    -0.0000  -0.0000  -0.0000  -0.0000  -0.0000  -0.0000

          k = 0.0000 0.0000 0.2500 (  6655 PWs)   bands (ev):

   -56.5089 -56.5089 -56.4872 -56.4872 -56.4769 -56.4769 -56.4740 -56.4740
   -28.5897 -28.5827 -28.5795 -28.5770 -28.5529 -28.5499 -28.4940 -28.4938
   -27.6366 -27.6274 -27.5926 -27.5853 -27.5570 -27.5453 -27.5374 -27.5328
   -27.5271 -27.5064 -27.4685 -27.4623 -27.4601 -27.4499 -27.4477 -27.4410
     3.1273   3.1273   5.9920   5.9934   7.6897   7.6926   8.3703   8.3803
     9.7442   9.7456  10.7562  10.7614  10.8659  10.8746  11.1952  11.2026
    11.5685  11.5692  12.2656  12.2804  12.8663  12.8729  12.9126  12.9344
    13.1213  13.1252  13.1297  13.1348  13.2517  13.2523  13.2824  13.2864
    13.5444  13.5477  13.6982  13.7057  14.0469  14.0475  15.0733  15.1019
    15.3810  15.3815  15.6181  15.6333  15.7406  15.7648  15.8521  15.8760
    16.2858  16.3005  16.4938  16.5054  17.1876  17.2081

     occupation numbers 
     1.0000   1.0000   1.0000   1.0000   1.0000   1.0000   1.0000   1.0000
     1.0000   1.0000   1.0000   1.0000   1.0000   1.0000   1.0000   1.0000
     1.0000   1.0000   1.0000   1.0000   1.0000   1.0000   1.0000   1.0000
     1.0000   1.0000   1.0000   1.0000   1.0000   1.0000   1.0000   1.0000
     1.0000   1.0000   1.0000   1.0000   1.0000   1.0000   1.0000   1.0000
     1.0000   1.0000   1.0000   1.0000   1.0000   1.0000   1.0000   1.0000
     1.0000   1.0000   1.0000   1.0000   1.0000   1.0000   1.0000   1.0000
     1.0000   1.0000   1.0000   1.0000   1.0000   1.0000   1.0000   1.0000
     1.0000   1.0000   1.0000   1.0000   1.0000   1.0000   0.1675   0.1085
    -0.0246  -0.0245  -0.0015  -0.0012  -0.0002  -0.0001  -0.0000  -0.0000
    -0.0000  -0.0000  -0.0000  -0.0000  -0.0000  -0.0000

          k = 0.0000 0.0000 0.3750 (  6624 PWs)   bands (ev):

   -56.5044 -56.5044 -56.4930 -56.4930 -56.4757 -56.4757 -56.4738 -56.4738
   -28.5900 -28.5838 -28.5834 -28.5795 -28.5375 -28.5353 -28.5064 -28.5057
   -27.6396 -27.6333 -27.5794 -27.5744 -27.5657 -27.5421 -27.5415 -27.5288
   -27.5232 -27.4920 -27.4844 -27.4684 -27.4616 -27.4528 -27.4463 -27.4412
     3.6439   3.6439   5.1358   5.1363   7.9593   7.9639   8.5103   8.5192
     9.6770   9.6797  10.5122  10.5128  10.7725  10.7856  11.0300  11.0318
    12.0052  12.0074  12.1210  12.1356  12.7687  12.7841  12.9437  12.9565
    13.0799  13.0873  13.1864  13.1904  13.2460  13.2492  13.3257  13.3292
    13.5404  13.5408  13.9320  13.9364  14.2200  14.2335  14.8126  14.8476
    15.3580  15.3696  15.4979  15.5169  15.7548  15.7842  15.8470  15.8722
    16.1654  16.1813  16.3085  16.3224  17.3500  17.3612

     occupation numbers 
     1.0000   1.0000   1.0000   1.0000   1.0000   1.0000   1.0000   1.0000
     1.0000   1.0000   1.0000   1.0000   1.0000   1.0000   1.0000   1.0000
     1.0000   1.0000   1.0000   1.0000   1.0000   1.0000   1.0000   1.0000
     1.0000   1.0000   1.0000   1.0000   1.0000   1.0000   1.0000   1.0000
     1.0000   1.0000   1.0000   1.0000   1.0000   1.0000   1.0000   1.0000
     1.0000   1.0000   1.0000   1.0000   1.0000   1.0000   1.0000   1.0000
     1.0000   1.0000   1.0000   1.0000   1.0000   1.0000   1.0000   1.0000
     1.0000   1.0000   1.0000   1.0000   1.0000   1.0000   1.0000   1.0000
     1.0000   1.0000   1.0000   1.0000   1.0005   1.0006   0.8823   0.8067
    -0.0285  -0.0266  -0.0081  -0.0064  -0.0001  -0.0001  -0.0000  -0.0000
    -0.0000  -0.0000  -0.0000  -0.0000  -0.0000  -0.0000

          k = 0.0000 0.0000-0.5000 (  6568 PWs)   bands (ev):

   -56.4989 -56.4989 -56.4989 -56.4989 -56.4745 -56.4745 -56.4745 -56.4745
   -28.5876 -28.5876 -28.5819 -28.5819 -28.5213 -28.5213 -28.5199 -28.5199
   -27.6379 -27.6379 -27.5726 -27.5726 -27.5576 -27.5576 -27.5345 -27.5345
   -27.5035 -27.5035 -27.4789 -27.4789 -27.4571 -27.4571 -27.4435 -27.4435
     4.3288   4.3288   4.3290   4.3290   8.2827   8.2827   8.2891   8.2891
    10.0170  10.0170  10.0210  10.0210  10.8983  10.8983  10.9095  10.9095
    12.2474  12.2474  12.2540  12.2540  12.6858  12.6858  12.6982  12.6982
    13.1423  13.1423  13.1427  13.1427  13.2377  13.2377  13.2414  13.2414
    13.7830  13.7830  13.7861  13.7861  14.5655  14.5655  14.5940  14.5940
    15.4022  15.4022  15.4200  15.4200  15.8068  15.8068  15.8365  15.8365
    16.1663  16.1663  16.1800  16.1800  17.5433  17.5448

     occupation numbers 
     1.0000   1.0000   1.0000   1.0000   1.0000   1.0000   1.0000   1.0000
     1.0000   1.0000   1.0000   1.0000   1.0000   1.0000   1.0000   1.0000
     1.0000   1.0000   1.0000   1.0000   1.0000   1.0000   1.0000   1.0000
     1.0000   1.0000   1.0000   1.0000   1.0000   1.0000   1.0000   1.0000
     1.0000   1.0000   1.0000   1.0000   1.0000   1.0000   1.0000   1.0000
     1.0000   1.0000   1.0000   1.0000   1.0000   1.0000   1.0000   1.0000
     1.0000   1.0000   1.0000   1.0000   1.0000   1.0000   1.0000   1.0000
     1.0000   1.0000   1.0000   1.0000   1.0000   1.0000   1.0000   1.0000
     1.0000   1.0000   1.0000   1.0000   1.0306   1.0306   1.0341   1.0341
    -0.0211  -0.0211  -0.0181  -0.0181  -0.0000  -0.0000  -0.0000  -0.0000
    -0.0000  -0.0000  -0.0000  -0.0000  -0.0000  -0.0000

          k = 0.0000 0.1250 0.1250 (  6639 PWs)   bands (ev):

   -56.5108 -56.5108 -56.4836 -56.4836 -56.4781 -56.4781 -56.4745 -56.4745
   -28.5881 -28.5819 -28.5747 -28.5741 -28.5628 -28.5589 -28.4885 -28.4885
   -27.6298 -27.6260 -27.5983 -27.5943 -27.5496 -27.5453 -27.5425 -27.5366
   -27.5241 -27.5141 -27.4631 -27.4618 -27.4556 -27.4497 -27.4451 -27.4415
     2.9147   2.9147   6.6455   6.6503   7.3154   7.3193   8.2195   8.2253
     9.9478   9.9527  10.6670  10.6730  10.8541  10.8587  11.2391  11.2423
    11.8046  11.8057  12.4437  12.4548  12.5943  12.6021  12.9027  12.9088
    13.0103  13.0196  13.1612  13.1622  13.1663  13.1711  13.2679  13.2698
    13.4649  13.4713  13.6784  13.6898  13.9952  14.0006  15.3458  15.3581
    15.3935  15.4029  15.6254  15.6348  15.7253  15.7415  15.7944  15.8157
    16.3742  16.3924  16.6468  16.6542  16.9386  16.9680

     occupation numbers 
     1.0000   1.0000   1.0000   1.0000   1.0000   1.0000   1.0000   1.0000
     1.0000   1.0000   1.0000   1.0000   1.0000   1.0000   1.0000   1.0000
     1.0000   1.0000   1.0000   1.0000   1.0000   1.0000   1.0000   1.0000
     1.0000   1.0000   1.0000   1.0000   1.0000   1.0000   1.0000   1.0000
     1.0000   1.0000   1.0000   1.0000   1.0000   1.0000   1.0000   1.0000
     1.0000   1.0000   1.0000   1.0000   1.0000   1.0000   1.0000   1.0000
     1.0000   1.0000   1.0000   1.0000   1.0000   1.0000   1.0000   1.0000
     1.0000   1.0000   1.0000   1.0000   1.0000   1.0000   1.0000   1.0000
     1.0000   1.0000   1.0000   1.0000   1.0000   1.0000  -0.0304  -0.0284
    -0.0225  -0.0209  -0.0014  -0.0012  -0.0002  -0.0002  -0.0001  -0.0000
    -0.0000  -0.0000  -0.0000  -0.0000  -0.0000  -0.0000

          k = 0.0000 0.1250 0.2500 (  6631 PWs)   bands (ev):

   -56.5080 -56.5080 -56.4876 -56.4876 -56.4775 -56.4775 -56.4738 -56.4738
   -28.5899 -28.5840 -28.5767 -28.5753 -28.5524 -28.5492 -28.4964 -28.4962
   -27.6352 -27.6286 -27.5888 -27.5834 -27.5564 -27.5473 -27.5413 -27.5365
   -27.5216 -27.5018 -27.4750 -27.4666 -27.4601 -27.4521 -27.4428 -27.4381
     3.2325   3.2326   6.0267   6.0292   7.3763   7.3789   8.4796   8.4847
     9.7447   9.7462  10.4123  10.4160  10.8574  10.8583  11.4947  11.4999
    11.5883  11.5898  12.3110  12.3208  12.6386  12.6413  13.0351  13.0426
    13.0741  13.0855  13.2038  13.2098  13.2815  13.2828  13.3811  13.3853
    13.5208  13.5272  13.8051  13.8204  14.1011  14.1083  15.0893  15.1163
    15.2987  15.3136  15.5087  15.5233  15.6908  15.7127  15.8398  15.8653
    16.2241  16.2393  16.5278  16.5400  17.1523  17.1859

     occupation numbers 
     1.0000   1.0000   1.0000   1.0000   1.0000   1.0000   1.0000   1.0000
     1.0000   1.0000   1.0000   1.0000   1.0000   1.0000   1.0000   1.0000
     1.0000   1.0000   1.0000   1.0000   1.0000   1.0000   1.0000   1.0000
     1.0000   1.0000   1.0000   1.0000   1.0000   1.0000   1.0000   1.0000
     1.0000   1.0000   1.0000   1.0000   1.0000   1.0000   1.0000   1.0000
     1.0000   1.0000   1.0000   1.0000   1.0000   1.0000   1.0000   1.0000
     1.0000   1.0000   1.0000   1.0000   1.0000   1.0000   1.0000   1.0000
     1.0000   1.0000   1.0000   1.0000   1.0000   1.0000   1.0000   1.0000
     1.0000   1.0000   1.0000   1.0000   1.0000   1.0000   0.1331   0.0830
    -0.0352  -0.0343  -0.0071  -0.0059  -0.0004  -0.0003  -0.0000  -0.0000
    -0.0000  -0.0000  -0.0000  -0.0000  -0.0000  -0.0000

          k = 0.0000 0.1250 0.3750 (  6624 PWs)   bands (ev):

   -56.5037 -56.5037 -56.4929 -56.4929 -56.4763 -56.4763 -56.4740 -56.4740
   -28.5893 -28.5843 -28.5807 -28.5779 -28.5383 -28.5361 -28.5084 -28.5078
   -27.6373 -27.6320 -27.5790 -27.5728 -27.5650 -27.5469 -27.5410 -27.5290
   -27.5240 -27.4921 -27.4873 -27.4698 -27.4634 -27.4564 -27.4407 -27.4374
     3.7447   3.7449   5.2138   5.2148   7.6679   7.6698   8.4243   8.4281
     9.7361   9.7393  10.2161  10.2201  11.0148  11.0207  11.1799  11.1938
    11.8667  11.8720  12.1816  12.1913  12.6393  12.6459  12.8673  12.8772
    13.0660  13.0723  13.2718  13.2765  13.3353  13.3372  13.4478  13.4507
    13.6022  13.6091  13.9682  13.9750  14.2907  14.3078  14.8249  14.8585
    15.2804  15.2963  15.3809  15.3933  15.6946  15.7208  15.8268  15.8562
    16.1477  16.1563  16.3593  16.3728  17.3043  17.3279

     occupation numbers 
     1.0000   1.0000   1.0000   1.0000   1.0000   1.0000   1.0000   1.0000
     1.0000   1.0000   1.0000   1.0000   1.0000   1.0000   1.0000   1.0000
     1.0000   1.0000   1.0000   1.0000   1.0000   1.0000   1.0000   1.0000
     1.0000   1.0000   1.0000   1.0000   1.0000   1.0000   1.0000   1.0000
     1.0000   1.0000   1.0000   1.0000   1.0000   1.0000   1.0000   1.0000
     1.0000   1.0000   1.0000   1.0000   1.0000   1.0000   1.0000   1.0000
     1.0000   1.0000   1.0000   1.0000   1.0000   1.0000   1.0000   1.0000
     1.0000   1.0000   1.0000   1.0000   1.0000   1.0000   1.0000   1.0000
     1.0000   1.0000   1.0000   1.0000   1.0015   1.0020   0.8575   0.7798
    -0.0353  -0.0353  -0.0247  -0.0225  -0.0004  -0.0003  -0.0000  -0.0000
    -0.0000  -0.0000  -0.0000  -0.0000  -0.0000  -0.0000

          k = 0.0000 0.1250-0.5000 (  6616 PWs)   bands (ev):

   -56.4985 -56.4985 -56.4985 -56.4985 -56.4750 -56.4750 -56.4750 -56.4750
   -28.5864 -28.5864 -28.5808 -28.5808 -28.5235 -28.5235 -28.5212 -28.5212
   -27.6356 -27.6356 -27.5725 -27.5725 -27.5584 -27.5584 -27.5344 -27.5344
   -27.5087 -27.5087 -27.4774 -27.4774 -27.4608 -27.4608 -27.4387 -27.4387
     4.4220   4.4220   4.4225   4.4225   8.0587   8.0587   8.0656   8.0656
     9.9961   9.9961  10.0004  10.0004  11.0368  11.0368  11.0508  11.0508
    12.1474  12.1474  12.1528  12.1528  12.5982  12.5982  12.6145  12.6145
    13.2275  13.2275  13.2300  13.2300  13.3331  13.3331  13.3344  13.3344
    13.8297  13.8297  13.8334  13.8334  14.5988  14.5988  14.6292  14.6292
    15.3035  15.3035  15.3194  15.3194  15.7579  15.7579  15.7877  15.7877
    16.2056  16.2056  16.2166  16.2166  17.5208  17.5266

     occupation numbers 
     1.0000   1.0000   1.0000   1.0000   1.0000   1.0000   1.0000   1.0000
     1.0000   1.0000   1.0000   1.0000   1.0000   1.0000   1.0000   1.0000
     1.0000   1.0000   1.0000   1.0000   1.0000   1.0000   1.0000   1.0000
     1.0000   1.0000   1.0000   1.0000   1.0000   1.0000   1.0000   1.0000
     1.0000   1.0000   1.0000   1.0000   1.0000   1.0000   1.0000   1.0000
     1.0000   1.0000   1.0000   1.0000   1.0000   1.0000   1.0000   1.0000
     1.0000   1.0000   1.0000   1.0000   1.0000   1.0000   1.0000   1.0000
     1.0000   1.0000   1.0000   1.0000   1.0000   1.0000   1.0000   1.0000
     1.0000   1.0000   1.0000   1.0000   1.0345   1.0345   1.0353   1.0353
    -0.0350  -0.0350  -0.0337  -0.0337  -0.0001  -0.0001  -0.0001  -0.0001
    -0.0000  -0.0000  -0.0000  -0.0000  -0.0000  -0.0000

          k = 0.0000 0.2500 0.2500 (  6640 PWs)   bands (ev):

   -56.5055 -56.5055 -56.4894 -56.4894 -56.4781 -56.4781 -56.4739 -56.4739
   -28.5893 -28.5842 -28.5745 -28.5737 -28.5489 -28.5456 -28.5037 -28.5033
   -27.6326 -27.6294 -27.5818 -27.5795 -27.5558 -27.5527 -27.5433 -27.5382
   -27.5183 -27.4962 -27.4850 -27.4746 -27.4656 -27.4484 -27.4388 -27.4347
     3.5428   3.5429   5.9653   5.9685   6.9413   6.9453   8.4365   8.4415
     9.7517   9.7549  10.1865  10.1916  10.9263  10.9288  11.3507  11.3518
    11.8600  11.8637  12.2864  12.2899  12.5059  12.5152  12.9045  12.9120
    13.1485  13.1578  13.2708  13.2802  13.4424  13.4439  13.5203  13.5295
    13.5709  13.5816  13.9849  13.9972  14.2200  14.2256  15.0465  15.0669
    15.1405  15.1652  15.2953  15.3068  15.6168  15.6419  15.7637  15.7925
    16.1600  16.1710  16.5126  16.5233  17.1858  17.2287

     occupation numbers 
     1.0000   1.0000   1.0000   1.0000   1.0000   1.0000   1.0000   1.0000
     1.0000   1.0000   1.0000   1.0000   1.0000   1.0000   1.0000   1.0000
     1.0000   1.0000   1.0000   1.0000   1.0000   1.0000   1.0000   1.0000
     1.0000   1.0000   1.0000   1.0000   1.0000   1.0000   1.0000   1.0000
     1.0000   1.0000   1.0000   1.0000   1.0000   1.0000   1.0000   1.0000
     1.0000   1.0000   1.0000   1.0000   1.0000   1.0000   1.0000   1.0000
     1.0000   1.0000   1.0000   1.0000   1.0000   1.0000   1.0000   1.0000
     1.0000   1.0000   1.0000   1.0000   1.0000   1.0000   1.0000   1.0000
     1.0000   1.0000   1.0000   1.0000   1.0005   1.0005   0.2322   0.1822
     0.0465   0.0172  -0.0354  -0.0348  -0.0016  -0.0010  -0.0001  -0.0001
    -0.0000  -0.0000  -0.0000  -0.0000  -0.0000  -0.0000

          k = 0.0000 0.2500 0.3750 (  6612 PWs)   bands (ev):

   -56.5017 -56.5017 -56.4928 -56.4928 -56.4775 -56.4775 -56.4748 -56.4748
   -28.5866 -28.5824 -28.5766 -28.5747 -28.5395 -28.5374 -28.5142 -28.5138
   -27.6307 -27.6279 -27.5804 -27.5733 -27.5610 -27.5506 -27.5403 -27.5322
   -27.5225 -27.5001 -27.4922 -27.4815 -27.4615 -27.4489 -27.4357 -27.4330
     4.0409   4.0413   5.4173   5.4192   7.0449   7.0481   8.0211   8.0244
     9.9170   9.9203  10.1872  10.1905  11.0286  11.0325  11.3807  11.3882
    11.8896  11.8916  12.0251  12.0294  12.4333  12.4443  12.6528  12.6627
    13.2355  13.2449  13.3302  13.3355  13.4397  13.4435  13.6541  13.6570
    13.7898  13.7933  14.0666  14.0762  14.4538  14.4792  14.8305  14.8574
    15.0725  15.0938  15.1486  15.1540  15.5779  15.6023  15.6807  15.7127
    16.2009  16.2078  16.4546  16.4651  17.1916  17.2205

     occupation numbers 
     1.0000   1.0000   1.0000   1.0000   1.0000   1.0000   1.0000   1.0000
     1.0000   1.0000   1.0000   1.0000   1.0000   1.0000   1.0000   1.0000
     1.0000   1.0000   1.0000   1.0000   1.0000   1.0000   1.0000   1.0000
     1.0000   1.0000   1.0000   1.0000   1.0000   1.0000   1.0000   1.0000
     1.0000   1.0000   1.0000   1.0000   1.0000   1.0000   1.0000   1.0000
     1.0000   1.0000   1.0000   1.0000   1.0000   1.0000   1.0000   1.0000
     1.0000   1.0000   1.0000   1.0000   1.0000   1.0000   1.0000   1.0000
     1.0000   1.0000   1.0000   1.0000   1.0000   1.0000   1.0000   1.0000
     1.0000   1.0000   1.0000   1.0000   1.0129   1.0165   0.8455   0.7826
     0.1693   0.1241   0.0360   0.0295  -0.0028  -0.0020  -0.0005  -0.0003
    -0.0000  -0.0000  -0.0000  -0.0000  -0.0000  -0.0000

          k = 0.0000 0.2500-0.5000 (  6610 PWs)   bands (ev):

   -56.4973 -56.4973 -56.4973 -56.4973 -56.4762 -56.4762 -56.4762 -56.4762
   -28.5827 -28.5827 -28.5775 -28.5775 -28.5280 -28.5280 -28.5250 -28.5250
   -27.6286 -27.6286 -27.5770 -27.5770 -27.5555 -27.5555 -27.5331 -27.5331
   -27.5162 -27.5162 -27.4878 -27.4878 -27.4540 -27.4540 -27.4336 -27.4336
     4.6917   4.6917   4.6927   4.6927   7.4837   7.4837   7.4899   7.4899
    10.1296  10.1296  10.1326  10.1326  11.2002  11.2002  11.2119  11.2119
    11.9554  11.9554  11.9573  11.9573  12.4188  12.4188  12.4313  12.4313
    13.3478  13.3478  13.3542  13.3542  13.5163  13.5163  13.5223  13.5223
    13.9873  13.9873  13.9929  13.9929  14.6543  14.6543  14.6848  14.6848
    15.0859  15.0859  15.0976  15.0976  15.6043  15.6043  15.6331  15.6331
    16.3332  16.3332  16.3441  16.3441  17.3586  17.3637

     occupation numbers 
     1.0000   1.0000   1.0000   1.0000   1.0000   1.0000   1.0000   1.0000
     1.0000   1.0000   1.0000   1.0000   1.0000   1.0000   1.0000   1.0000
     1.0000   1.0000   1.0000   1.0000   1.0000   1.0000   1.0000   1.0000
     1.0000   1.0000   1.0000   1.0000   1.0000   1.0000   1.0000   1.0000
     1.0000   1.0000   1.0000   1.0000   1.0000   1.0000   1.0000   1.0000
     1.0000   1.0000   1.0000   1.0000   1.0000   1.0000   1.0000   1.0000
     1.0000   1.0000   1.0000   1.0000   1.0000   1.0000   1.0000   1.0000
     1.0000   1.0000   1.0000   1.0000   1.0000   1.0000   1.0000   1.0000
     1.0000   1.0000   1.0000   1.0000   1.0329   1.0329   1.0243   1.0243
     0.1402   0.1402   0.1167   0.1167  -0.0019  -0.0019  -0.0012  -0.0012
    -0.0000  -0.0000  -0.0000  -0.0000  -0.0000  -0.0000

          k = 0.0000 0.3750 0.3750 (  6612 PWs)   bands (ev):

   -56.4989 -56.4989 -56.4937 -56.4937 -56.4781 -56.4781 -56.4761 -56.4761
   -28.5822 -28.5790 -28.5741 -28.5732 -28.5381 -28.5364 -28.5229 -28.5220
   -27.6222 -27.6219 -27.5860 -27.5818 -27.5528 -27.5472 -27.5357 -27.5334
   -27.5239 -27.5065 -27.5044 -27.4947 -27.4519 -27.4423 -27.4344 -27.4315
     4.5099   4.5104   5.5233   5.5249   6.5730   6.5751   7.4027   7.4058
    10.2465  10.2478  10.4519  10.4531  10.9118  10.9126  11.2397  11.2428
    11.7869  11.7898  12.0560  12.0599  12.2637  12.2661  12.4686  12.4763
    13.2340  13.2416  13.3901  13.3916  13.6734  13.6739  13.8203  13.8252
    14.0554  14.0676  14.1499  14.1609  14.5569  14.5770  14.7411  14.7529
    14.8534  14.8725  14.9560  14.9792  15.4785  15.4980  15.5184  15.5456
    16.3223  16.3327  16.5110  16.5166  17.0909  17.1133

     occupation numbers 
     1.0000   1.0000   1.0000   1.0000   1.0000   1.0000   1.0000   1.0000
     1.0000   1.0000   1.0000   1.0000   1.0000   1.0000   1.0000   1.0000
     1.0000   1.0000   1.0000   1.0000   1.0000   1.0000   1.0000   1.0000
     1.0000   1.0000   1.0000   1.0000   1.0000   1.0000   1.0000   1.0000
     1.0000   1.0000   1.0000   1.0000   1.0000   1.0000   1.0000   1.0000
     1.0000   1.0000   1.0000   1.0000   1.0000   1.0000   1.0000   1.0000
     1.0000   1.0000   1.0000   1.0000   1.0000   1.0000   1.0000   1.0000
     1.0000   1.0000   1.0000   1.0000   1.0000   1.0000   1.0000   1.0000
     1.0000   1.0000   1.0001   1.0001   1.0293   1.0322   0.9863   0.9738
     0.7925   0.7435   0.4963   0.4245  -0.0101  -0.0081  -0.0063  -0.0044
    -0.0000  -0.0000  -0.0000  -0.0000  -0.0000  -0.0000

          k = 0.0000 0.3750-0.5000 (  6628 PWs)   bands (ev):

   -56.4959 -56.4959 -56.4959 -56.4959 -56.4775 -56.4775 -56.4775 -56.4775
   -28.5779 -28.5779 -28.5744 -28.5744 -28.5325 -28.5325 -28.5300 -28.5300
   -27.6176 -27.6176 -27.5891 -27.5891 -27.5464 -27.5464 -27.5319 -27.5319
   -27.5204 -27.5204 -27.5034 -27.5034 -27.4439 -27.4439 -27.4327 -27.4327
     5.0899   5.0899   5.0914   5.0914   6.8116   6.8116   6.8157   6.8157
    10.4500  10.4500  10.4514  10.4514  11.2419  11.2419  11.2500  11.2500
    11.6409  11.6409  11.6487  11.6487  12.3098  12.3098  12.3149  12.3149
    13.3657  13.3657  13.3714  13.3714  13.7690  13.7690  13.7781  13.7781
    14.2721  14.2721  14.2749  14.2749  14.5444  14.5444  14.5552  14.5552
    14.8853  14.8853  14.9042  14.9042  15.4592  15.4592  15.4789  15.4789
    16.4926  16.4926  16.5026  16.5026  17.1156  17.1186

     occupation numbers 
     1.0000   1.0000   1.0000   1.0000   1.0000   1.0000   1.0000   1.0000
     1.0000   1.0000   1.0000   1.0000   1.0000   1.0000   1.0000   1.0000
     1.0000   1.0000   1.0000   1.0000   1.0000   1.0000   1.0000   1.0000
     1.0000   1.0000   1.0000   1.0000   1.0000   1.0000   1.0000   1.0000
     1.0000   1.0000   1.0000   1.0000   1.0000   1.0000   1.0000   1.0000
     1.0000   1.0000   1.0000   1.0000   1.0000   1.0000   1.0000   1.0000
     1.0000   1.0000   1.0000   1.0000   1.0000   1.0000   1.0000   1.0000
     1.0000   1.0000   1.0000   1.0000   1.0000   1.0000   1.0000   1.0000
     1.0011   1.0011   1.0012   1.0012   1.0273   1.0273   1.0290   1.0290
     0.7088   0.7088   0.6546   0.6546  -0.0125  -0.0125  -0.0101  -0.0101
    -0.0000  -0.0000  -0.0000  -0.0000  -0.0000  -0.0000

          k = 0.0000-0.5000-0.5000 (  6632 PWs)   bands (ev):

   -56.4953 -56.4953 -56.4953 -56.4953 -56.4781 -56.4781 -56.4781 -56.4781
   -28.5742 -28.5742 -28.5742 -28.5742 -28.5335 -28.5335 -28.5335 -28.5335
   -27.6038 -27.6038 -27.6038 -27.6038 -27.5364 -27.5364 -27.5364 -27.5364
   -27.5161 -27.5161 -27.5161 -27.5161 -27.4363 -27.4363 -27.4363 -27.4363
     5.3715   5.3715   5.3715   5.3715   6.4279   6.4279   6.4279   6.4279
    10.7058  10.7058  10.7058  10.7058  11.2427  11.2427  11.2427  11.2427
    11.3854  11.3854  11.3854  11.3854  12.2844  12.2844  12.2844  12.2844
    13.3623  13.3623  13.3623  13.3623  14.0072  14.0072  14.0072  14.0072
    14.2941  14.2941  14.2941  14.2941  14.5253  14.5253  14.5253  14.5253
    14.7577  14.7577  14.7577  14.7577  15.4176  15.4176  15.4176  15.4176
    16.5877  16.5877  16.5877  16.5877  16.9849  16.9849

     occupation numbers 
     1.0000   1.0000   1.0000   1.0000   1.0000   1.0000   1.0000   1.0000
     1.0000   1.0000   1.0000   1.0000   1.0000   1.0000   1.0000   1.0000
     1.0000   1.0000   1.0000   1.0000   1.0000   1.0000   1.0000   1.0000
     1.0000   1.0000   1.0000   1.0000   1.0000   1.0000   1.0000   1.0000
     1.0000   1.0000   1.0000   1.0000   1.0000   1.0000   1.0000   1.0000
     1.0000   1.0000   1.0000   1.0000   1.0000   1.0000   1.0000   1.0000
     1.0000   1.0000   1.0000   1.0000   1.0000   1.0000   1.0000   1.0000
     1.0000   1.0000   1.0000   1.0000   1.0000   1.0000   1.0000   1.0000
     1.0016   1.0016   1.0016   1.0016   1.0241   1.0241   1.0241   1.0241
     0.9681   0.9681   0.9681   0.9681  -0.0185  -0.0185  -0.0185  -0.0185
    -0.0000  -0.0000  -0.0000  -0.0000  -0.0000  -0.0000

          k = 0.1250 0.1250 0.1250 (  6637 PWs)   bands (ev):

   -56.5098 -56.5098 -56.4846 -56.4846 -56.4784 -56.4784 -56.4741 -56.4741
   -28.5891 -28.5833 -28.5736 -28.5730 -28.5608 -28.5565 -28.4912 -28.4911
   -27.6301 -27.6285 -27.5949 -27.5894 -27.5512 -27.5451 -27.5441 -27.5411
   -27.5198 -27.5091 -27.4705 -27.4620 -27.4547 -27.4546 -27.4418 -27.4400
     3.0215   3.0216   6.5637   6.5702   7.1839   7.1911   8.2856   8.2897
     9.9226   9.9274  10.6116  10.6119  10.6512  10.6513  11.2994  11.3049
    11.9442  11.9453  12.3499  12.3611  12.7361  12.7381  12.8159  12.8249
    13.0620  13.0655  13.1646  13.1651  13.2428  13.2486  13.3420  13.3508
    13.4559  13.4640  13.7041  13.7085  14.0640  14.0714  15.3210  15.3252
    15.3560  15.3573  15.5754  15.5765  15.6388  15.6533  15.8133  15.8252
    16.3137  16.3333  16.6481  16.6565  16.9612  16.9964

     occupation numbers 
     1.0000   1.0000   1.0000   1.0000   1.0000   1.0000   1.0000   1.0000
     1.0000   1.0000   1.0000   1.0000   1.0000   1.0000   1.0000   1.0000
     1.0000   1.0000   1.0000   1.0000   1.0000   1.0000   1.0000   1.0000
     1.0000   1.0000   1.0000   1.0000   1.0000   1.0000   1.0000   1.0000
     1.0000   1.0000   1.0000   1.0000   1.0000   1.0000   1.0000   1.0000
     1.0000   1.0000   1.0000   1.0000   1.0000   1.0000   1.0000   1.0000
     1.0000   1.0000   1.0000   1.0000   1.0000   1.0000   1.0000   1.0000
     1.0000   1.0000   1.0000   1.0000   1.0000   1.0000   1.0000   1.0000
     1.0000   1.0000   1.0000   1.0000   1.0000   1.0000  -0.0336  -0.0331
    -0.0288  -0.0286  -0.0029  -0.0029  -0.0011  -0.0009  -0.0000  -0.0000
    -0.0000  -0.0000  -0.0000  -0.0000  -0.0000  -0.0000

          k = 0.1250 0.1250 0.2500 (  6641 PWs)   bands (ev):

   -56.5071 -56.5071 -56.4879 -56.4879 -56.4781 -56.4781 -56.4738 -56.4738
   -28.5898 -28.5843 -28.5748 -28.5738 -28.5523 -28.5488 -28.4990 -28.4986
   -27.6339 -27.6289 -27.5875 -27.5801 -27.5555 -27.5484 -27.5438 -27.5411
   -27.5175 -27.4996 -27.4800 -27.4665 -27.4616 -27.4551 -27.4392 -27.4371
     3.3369   3.3370   6.0626   6.0658   7.2203   7.2247   8.4044   8.4085
     9.6716   9.6736  10.4341  10.4380  10.6896  10.6934  11.4164  11.4204
    11.8415  11.8464  12.2994  12.3028  12.7369  12.7421  13.0069  13.0119
    13.0826  13.0894  13.1146  13.1223  13.2813  13.2859  13.4389  13.4483
    13.6246  13.6332  13.8386  13.8473  14.1519  14.1580  15.0817  15.1069
    15.2836  15.2988  15.4459  15.4596  15.5896  15.6068  15.8108  15.8299
    16.2014  16.2171  16.5429  16.5567  17.1171  17.1529

     occupation numbers 
     1.0000   1.0000   1.0000   1.0000   1.0000   1.0000   1.0000   1.0000
     1.0000   1.0000   1.0000   1.0000   1.0000   1.0000   1.0000   1.0000
     1.0000   1.0000   1.0000   1.0000   1.0000   1.0000   1.0000   1.0000
     1.0000   1.0000   1.0000   1.0000   1.0000   1.0000   1.0000   1.0000
     1.0000   1.0000   1.0000   1.0000   1.0000   1.0000   1.0000   1.0000
     1.0000   1.0000   1.0000   1.0000   1.0000   1.0000   1.0000   1.0000
     1.0000   1.0000   1.0000   1.0000   1.0000   1.0000   1.0000   1.0000
     1.0000   1.0000   1.0000   1.0000   1.0000   1.0000   1.0000   1.0000
     1.0000   1.0000   1.0000   1.0000   1.0001   1.0001   0.1490   0.0993
    -0.0354  -0.0352  -0.0143  -0.0124  -0.0024  -0.0018  -0.0000  -0.0000
    -0.0000  -0.0000  -0.0000  -0.0000  -0.0000  -0.0000

          k = 0.1250 0.1250 0.3750 (  6629 PWs)   bands (ev):

   -56.5030 -56.5030 -56.4927 -56.4927 -56.4769 -56.4769 -56.4743 -56.4743
   -28.5883 -28.5838 -28.5788 -28.5765 -28.5392 -28.5369 -28.5107 -28.5099
   -27.6351 -27.6305 -27.5782 -27.5721 -27.5638 -27.5499 -27.5418 -27.5324
   -27.5214 -27.4993 -27.4820 -27.4695 -27.4659 -27.4587 -27.4375 -27.4358
     3.8446   3.8448   5.2904   5.2915   7.5134   7.5157   8.3091   8.3134
     9.5583   9.5593  10.2043  10.2075  10.9211  10.9254  11.4069  11.4128
    11.7852  11.7886  12.2120  12.2157  12.7422  12.7479  12.9494  12.9570
    13.0587  13.0669  13.2279  13.2351  13.3260  13.3295  13.4310  13.4374
    13.6947  13.6976  13.9775  13.9848  14.3495  14.3695  14.8301  14.8628
    15.2458  15.2621  15.3183  15.3316  15.6104  15.6303  15.7681  15.7914
    16.1540  16.1633  16.3774  16.3919  17.3100  17.3335

     occupation numbers 
     1.0000   1.0000   1.0000   1.0000   1.0000   1.0000   1.0000   1.0000
     1.0000   1.0000   1.0000   1.0000   1.0000   1.0000   1.0000   1.0000
     1.0000   1.0000   1.0000   1.0000   1.0000   1.0000   1.0000   1.0000
     1.0000   1.0000   1.0000   1.0000   1.0000   1.0000   1.0000   1.0000
     1.0000   1.0000   1.0000   1.0000   1.0000   1.0000   1.0000   1.0000
     1.0000   1.0000   1.0000   1.0000   1.0000   1.0000   1.0000   1.0000
     1.0000   1.0000   1.0000   1.0000   1.0000   1.0000   1.0000   1.0000
     1.0000   1.0000   1.0000   1.0000   1.0000   1.0000   1.0000   1.0000
     1.0000   1.0000   1.0000   1.0000   1.0036   1.0048   0.8464   0.7689
    -0.0309  -0.0339  -0.0338  -0.0323  -0.0017  -0.0013  -0.0001  -0.0001
    -0.0000  -0.0000  -0.0000  -0.0000  -0.0000  -0.0000

          k = 0.1250 0.1250-0.5000 (  6618 PWs)   bands (ev):

   -56.4980 -56.4980 -56.4980 -56.4980 -56.4754 -56.4754 -56.4754 -56.4754
   -28.5851 -28.5851 -28.5795 -28.5795 -28.5254 -28.5254 -28.5225 -28.5225
   -27.6334 -27.6334 -27.5712 -27.5712 -27.5604 -27.5604 -27.5337 -27.5337
   -27.5131 -27.5131 -27.4748 -27.4748 -27.4635 -27.4635 -27.4362 -27.4362
     4.5141   4.5141   4.5147   4.5147   7.9203   7.9203   7.9265   7.9265
     9.8405   9.8405   9.8419   9.8419  11.1811  11.1811  11.1907  11.1907
    12.0269  12.0269  12.0307  12.0307  12.7785  12.7785  12.7912  12.7912
    13.1762  13.1762  13.1844  13.1844  13.3660  13.3660  13.3689  13.3689
    13.8487  13.8487  13.8547  13.8547  14.6282  14.6282  14.6603  14.6603
    15.2470  15.2470  15.2661  15.2661  15.6849  15.6849  15.7109  15.7109
    16.2241  16.2241  16.2343  16.2343  17.6147  17.6155

     occupation numbers 
     1.0000   1.0000   1.0000   1.0000   1.0000   1.0000   1.0000   1.0000
     1.0000   1.0000   1.0000   1.0000   1.0000   1.0000   1.0000   1.0000
     1.0000   1.0000   1.0000   1.0000   1.0000   1.0000   1.0000   1.0000
     1.0000   1.0000   1.0000   1.0000   1.0000   1.0000   1.0000   1.0000
     1.0000   1.0000   1.0000   1.0000   1.0000   1.0000   1.0000   1.0000
     1.0000   1.0000   1.0000   1.0000   1.0000   1.0000   1.0000   1.0000
     1.0000   1.0000   1.0000   1.0000   1.0000   1.0000   1.0000   1.0000
     1.0000   1.0000   1.0000   1.0000   1.0000   1.0000   1.0000   1.0000
     1.0000   1.0000   1.0000   1.0000   1.0354   1.0354   1.0317   1.0317
    -0.0312  -0.0312  -0.0343  -0.0343  -0.0005  -0.0005  -0.0003  -0.0003
    -0.0000  -0.0000  -0.0000  -0.0000  -0.0000  -0.0000

          k = 0.1250 0.2500 0.2500 (  6628 PWs)   bands (ev):

   -56.5047 -56.5047 -56.4893 -56.4893 -56.4787 -56.4787 -56.4741 -56.4741
   -28.5886 -28.5837 -28.5728 -28.5721 -28.5493 -28.5460 -28.5061 -28.5055
   -27.6313 -27.6280 -27.5835 -27.5749 -27.5558 -27.5517 -27.5452 -27.5432
   -27.5140 -27.5014 -27.4827 -27.4701 -27.4687 -27.4526 -27.4365 -27.4341
     3.6447   3.6448   6.0134   6.0178   6.9145   6.9208   8.2972   8.3010
     9.4084   9.4113  10.4286  10.4304  10.6905  10.6930  11.4595  11.4643
    11.9040  11.9066  12.3024  12.3043  12.6213  12.6277  12.9567  12.9631
    13.1177  13.1227  13.1941  13.2046  13.2833  13.2887  13.5799  13.5867
    13.7502  13.7579  13.9712  13.9803  14.2867  14.2937  15.0253  15.0426
    15.1597  15.1802  15.2860  15.2986  15.5001  15.5121  15.7213  15.7418
    16.1692  16.1801  16.5175  16.5300  17.1469  17.1875

     occupation numbers 
     1.0000   1.0000   1.0000   1.0000   1.0000   1.0000   1.0000   1.0000
     1.0000   1.0000   1.0000   1.0000   1.0000   1.0000   1.0000   1.0000
     1.0000   1.0000   1.0000   1.0000   1.0000   1.0000   1.0000   1.0000
     1.0000   1.0000   1.0000   1.0000   1.0000   1.0000   1.0000   1.0000
     1.0000   1.0000   1.0000   1.0000   1.0000   1.0000   1.0000   1.0000
     1.0000   1.0000   1.0000   1.0000   1.0000   1.0000   1.0000   1.0000
     1.0000   1.0000   1.0000   1.0000   1.0000   1.0000   1.0000   1.0000
     1.0000   1.0000   1.0000   1.0000   1.0000   1.0000   1.0000   1.0000
     1.0000   1.0000   1.0000   1.0000   1.0014   1.0016   0.2888   0.2423
     0.0231   0.0031  -0.0354  -0.0352  -0.0079  -0.0068  -0.0003  -0.0002
    -0.0000  -0.0000  -0.0000  -0.0000  -0.0000  -0.0000

          k = 0.1250 0.2500 0.3750 (  6613 PWs)   bands (ev):

   -56.5011 -56.5011 -56.4925 -56.4925 -56.4781 -56.4781 -56.4752 -56.4752
   -28.5855 -28.5815 -28.5750 -28.5733 -28.5407 -28.5385 -28.5164 -28.5157
   -27.6289 -27.6260 -27.5798 -27.5718 -27.5627 -27.5527 -27.5406 -27.5357
   -27.5189 -27.5086 -27.4845 -27.4776 -27.4641 -27.4524 -27.4348 -27.4325
     4.1381   4.1385   5.4908   5.4929   7.0392   7.0431   7.9716   7.9747
     9.4104   9.4128  10.1457  10.1481  11.0643  11.0675  11.5740  11.5800
    11.8041  11.8116  12.0657  12.0673  12.5157  12.5257  12.7885  12.7962
    13.2092  13.2145  13.2909  13.3032  13.3533  13.3589  13.5999  13.6092
    13.8634  13.8750  14.0969  14.1084  14.5024  14.5305  14.8375  14.8643
    15.0713  15.0810  15.1478  15.1613  15.5092  15.5219  15.6340  15.6568
    16.2029  16.2098  16.4442  16.4551  17.1775  17.2041

     occupation numbers 
     1.0000   1.0000   1.0000   1.0000   1.0000   1.0000   1.0000   1.0000
     1.0000   1.0000   1.0000   1.0000   1.0000   1.0000   1.0000   1.0000
     1.0000   1.0000   1.0000   1.0000   1.0000   1.0000   1.0000   1.0000
     1.0000   1.0000   1.0000   1.0000   1.0000   1.0000   1.0000   1.0000
     1.0000   1.0000   1.0000   1.0000   1.0000   1.0000   1.0000   1.0000
     1.0000   1.0000   1.0000   1.0000   1.0000   1.0000   1.0000   1.0000
     1.0000   1.0000   1.0000   1.0000   1.0000   1.0000   1.0000   1.0000
     1.0000   1.0000   1.0000   1.0000   1.0000   1.0000   1.0000   1.0000
     1.0000   1.0000   1.0000   1.0000   1.0202   1.0249   0.8300   0.7650
     0.1720   0.1505   0.0370   0.0213  -0.0071  -0.0060  -0.0012  -0.0008
    -0.0000  -0.0000  -0.0000  -0.0000  -0.0000  -0.0000

          k = 0.1250 0.2500-0.5000 (  6604 PWs)   bands (ev):

   -56.4967 -56.4967 -56.4967 -56.4967 -56.4767 -56.4767 -56.4767 -56.4767
   -28.5813 -28.5813 -28.5762 -28.5762 -28.5298 -28.5298 -28.5264 -28.5264
   -27.6265 -27.6265 -27.5756 -27.5756 -27.5590 -27.5590 -27.5319 -27.5319
   -27.5194 -27.5194 -27.4829 -27.4829 -27.4568 -27.4568 -27.4331 -27.4331
     4.7806   4.7806   4.7817   4.7817   7.4687   7.4687   7.4750   7.4750
     9.7443   9.7443   9.7468   9.7468  11.5280  11.5280  11.5357  11.5357
    11.7441  11.7441  11.7479  11.7479  12.6003  12.6003  12.6118  12.6118
    13.2931  13.2931  13.2994  13.2994  13.4708  13.4708  13.4824  13.4824
    14.0242  14.0242  14.0323  14.0323  14.6934  14.6934  14.7259  14.7259
    15.0676  15.0676  15.0840  15.0840  15.5571  15.5571  15.5807  15.5807
    16.3202  16.3202  16.3292  16.3292  17.3785  17.3813

     occupation numbers 
     1.0000   1.0000   1.0000   1.0000   1.0000   1.0000   1.0000   1.0000
     1.0000   1.0000   1.0000   1.0000   1.0000   1.0000   1.0000   1.0000
     1.0000   1.0000   1.0000   1.0000   1.0000   1.0000   1.0000   1.0000
     1.0000   1.0000   1.0000   1.0000   1.0000   1.0000   1.0000   1.0000
     1.0000   1.0000   1.0000   1.0000   1.0000   1.0000   1.0000   1.0000
     1.0000   1.0000   1.0000   1.0000   1.0000   1.0000   1.0000   1.0000
     1.0000   1.0000   1.0000   1.0000   1.0000   1.0000   1.0000   1.0000
     1.0000   1.0000   1.0000   1.0000   1.0000   1.0000   1.0000   1.0000
     1.0000   1.0000   1.0000   1.0000   1.0206   1.0206   0.9999   0.9999
     0.1804   0.1804   0.1441   0.1441  -0.0038  -0.0038  -0.0027  -0.0027
    -0.0000  -0.0000  -0.0000  -0.0000  -0.0000  -0.0000

          k = 0.1250 0.3750 0.3750 (  6604 PWs)   bands (ev):

   -56.4983 -56.4983 -56.4932 -56.4932 -56.4788 -56.4788 -56.4766 -56.4766
   -28.5810 -28.5778 -28.5726 -28.5717 -28.5396 -28.5378 -28.5248 -28.5237
   -27.6211 -27.6194 -27.5848 -27.5804 -27.5580 -27.5503 -27.5389 -27.5313
   -27.5227 -27.5137 -27.4939 -27.4886 -27.4543 -27.4458 -27.4347 -27.4316
     4.6019   4.6024   5.5960   5.5982   6.6179   6.6213   7.4191   7.4222
     9.5845   9.5870  10.2023  10.2057  10.9494  10.9514  11.5406  11.5431
    11.7641  11.7687  12.1099  12.1118  12.3542  12.3586  12.6182  12.6249
    13.1926  13.1982  13.3139  13.3190  13.5611  13.5699  13.7649  13.7810
    14.0195  14.0330  14.2998  14.3088  14.5625  14.5811  14.7917  14.8063
    14.8774  14.8824  14.9920  15.0219  15.4339  15.4346  15.5044  15.5162
    16.3027  16.3120  16.4779  16.4843  17.0655  17.0867

     occupation numbers 
     1.0000   1.0000   1.0000   1.0000   1.0000   1.0000   1.0000   1.0000
     1.0000   1.0000   1.0000   1.0000   1.0000   1.0000   1.0000   1.0000
     1.0000   1.0000   1.0000   1.0000   1.0000   1.0000   1.0000   1.0000
     1.0000   1.0000   1.0000   1.0000   1.0000   1.0000   1.0000   1.0000
     1.0000   1.0000   1.0000   1.0000   1.0000   1.0000   1.0000   1.0000
     1.0000   1.0000   1.0000   1.0000   1.0000   1.0000   1.0000   1.0000
     1.0000   1.0000   1.0000   1.0000   1.0000   1.0000   1.0000   1.0000
     1.0000   1.0000   1.0000   1.0000   1.0000   1.0000   1.0000   1.0000
     1.0000   1.0000   1.0017   1.0020   1.0301   1.0327   0.9198   0.8944
     0.7305   0.7168   0.3856   0.2984  -0.0160  -0.0159  -0.0075  -0.0065
    -0.0000  -0.0000  -0.0000  -0.0000  -0.0000  -0.0000

          k = 0.1250 0.3750-0.5000 (  6614 PWs)   bands (ev):

   -56.4953 -56.4953 -56.4953 -56.4953 -56.4781 -56.4781 -56.4781 -56.4781
   -28.5765 -28.5765 -28.5730 -28.5730 -28.5342 -28.5342 -28.5315 -28.5315
   -27.6159 -27.6159 -27.5876 -27.5876 -27.5524 -27.5524 -27.5325 -27.5325
   -27.5204 -27.5204 -27.4959 -27.4959 -27.4467 -27.4467 -27.4333 -27.4333
     5.1731   5.1731   5.1746   5.1746   6.8551   6.8551   6.8596   6.8596
     9.9262   9.9262   9.9294   9.9294  11.2683  11.2683  11.2703  11.2703
    11.8657  11.8657  11.8732  11.8732  12.4204  12.4204  12.4282  12.4282
    13.2928  13.2928  13.2966  13.2966  13.6815  13.6815  13.6956  13.6956
    14.2869  14.2869  14.2935  14.2935  14.6338  14.6338  14.6464  14.6464
    14.9021  14.9021  14.9211  14.9211  15.4315  15.4315  15.4473  15.4473
    16.4464  16.4465  16.4541  16.4541  17.0951  17.0994

     occupation numbers 
     1.0000   1.0000   1.0000   1.0000   1.0000   1.0000   1.0000   1.0000
     1.0000   1.0000   1.0000   1.0000   1.0000   1.0000   1.0000   1.0000
     1.0000   1.0000   1.0000   1.0000   1.0000   1.0000   1.0000   1.0000
     1.0000   1.0000   1.0000   1.0000   1.0000   1.0000   1.0000   1.0000
     1.0000   1.0000   1.0000   1.0000   1.0000   1.0000   1.0000   1.0000
     1.0000   1.0000   1.0000   1.0000   1.0000   1.0000   1.0000   1.0000
     1.0000   1.0000   1.0000   1.0000   1.0000   1.0000   1.0000   1.0000
     1.0000   1.0000   1.0000   1.0000   1.0000   1.0000   1.0000   1.0000
     1.0014   1.0014   1.0016   1.0016   1.0351   1.0351   1.0340   1.0340
     0.6608   0.6608   0.6042   0.6042  -0.0164  -0.0164  -0.0141  -0.0141
    -0.0000  -0.0000  -0.0000  -0.0000  -0.0000  -0.0000

          k = 0.1250-0.5000-0.5000 (  6604 PWs)   bands (ev):

   -56.4946 -56.4946 -56.4946 -56.4946 -56.4788 -56.4788 -56.4788 -56.4788
   -28.5728 -28.5728 -28.5727 -28.5727 -28.5352 -28.5352 -28.5350 -28.5350
   -27.6049 -27.6049 -27.5995 -27.5995 -27.5479 -27.5479 -27.5349 -27.5349
   -27.5171 -27.5171 -27.5035 -27.5035 -27.4405 -27.4405 -27.4359 -27.4359
     5.4487   5.4487   5.4497   5.4497   6.4887   6.4887   6.4906   6.4906
    10.0930  10.0930  10.0966  10.0966  11.0434  11.0434  11.0451  11.0451
    11.9597  11.9597  11.9622  11.9622  12.3354  12.3354  12.3379  12.3379
    13.2750  13.2750  13.2758  13.2758  13.8465  13.8465  13.8599  13.8599
    14.3462  14.3462  14.3516  14.3516  14.6310  14.6310  14.6475  14.6475
    14.8011  14.8011  14.8032  14.8032  15.3858  15.3858  15.3860  15.3860
    16.5208  16.5209  16.5224  16.5224  16.9717  16.9740

     occupation numbers 
     1.0000   1.0000   1.0000   1.0000   1.0000   1.0000   1.0000   1.0000
     1.0000   1.0000   1.0000   1.0000   1.0000   1.0000   1.0000   1.0000
     1.0000   1.0000   1.0000   1.0000   1.0000   1.0000   1.0000   1.0000
     1.0000   1.0000   1.0000   1.0000   1.0000   1.0000   1.0000   1.0000
     1.0000   1.0000   1.0000   1.0000   1.0000   1.0000   1.0000   1.0000
     1.0000   1.0000   1.0000   1.0000   1.0000   1.0000   1.0000   1.0000
     1.0000   1.0000   1.0000   1.0000   1.0000   1.0000   1.0000   1.0000
     1.0000   1.0000   1.0000   1.0000   1.0000   1.0000   1.0000   1.0000
     1.0035   1.0035   1.0037   1.0037   1.0353   1.0353   1.0339   1.0339
     0.9037   0.9037   0.9000   0.9000  -0.0238  -0.0238  -0.0238  -0.0238
    -0.0000  -0.0000  -0.0000  -0.0000  -0.0000  -0.0000

          k = 0.2500 0.2500 0.2500 (  6595 PWs)   bands (ev):

   -56.5025 -56.5025 -56.4898 -56.4898 -56.4796 -56.4796 -56.4749 -56.4749
   -28.5863 -28.5818 -28.5700 -28.5697 -28.5485 -28.5454 -28.5126 -28.5117
   -27.6281 -27.6243 -27.5824 -27.5704 -27.5582 -27.5553 -27.5459 -27.5432
   -27.5122 -27.5083 -27.4771 -27.4748 -27.4638 -27.4590 -27.4350 -27.4325
     3.9445   3.9446   6.0543   6.0610   6.7950   6.8053   8.0515   8.0523
     9.0666   9.0693  10.0627  10.0663  11.1545  11.1588  11.1987  11.1991
    11.9203  11.9217  12.3558  12.3574  12.8102  12.8167  12.8821  12.8829
    13.1334  13.1411  13.1421  13.1537  13.1853  13.1902  13.7585  13.7672
    13.7746  13.7869  14.0641  14.0715  14.4488  14.4660  14.9863  15.0024
    15.1301  15.1332  15.2665  15.2671  15.3062  15.3118  15.6148  15.6339
    16.1826  16.1908  16.4819  16.4933  17.1259  17.1557

     occupation numbers 
     1.0000   1.0000   1.0000   1.0000   1.0000   1.0000   1.0000   1.0000
     1.0000   1.0000   1.0000   1.0000   1.0000   1.0000   1.0000   1.0000
     1.0000   1.0000   1.0000   1.0000   1.0000   1.0000   1.0000   1.0000
     1.0000   1.0000   1.0000   1.0000   1.0000   1.0000   1.0000   1.0000
     1.0000   1.0000   1.0000   1.0000   1.0000   1.0000   1.0000   1.0000
     1.0000   1.0000   1.0000   1.0000   1.0000   1.0000   1.0000   1.0000
     1.0000   1.0000   1.0000   1.0000   1.0000   1.0000   1.0000   1.0000
     1.0000   1.0000   1.0000   1.0000   1.0000   1.0000   1.0000   1.0000
     1.0000   1.0000   1.0000   1.0000   1.0122   1.0146   0.4029   0.3546
     0.0613   0.0566  -0.0344  -0.0344  -0.0348  -0.0344  -0.0016  -0.0012
    -0.0000  -0.0000  -0.0000  -0.0000  -0.0000  -0.0000

          k = 0.2500 0.2500 0.3750 (  6612 PWs)   bands (ev):

   -56.4991 -56.4991 -56.4919 -56.4919 -56.4795 -56.4795 -56.4764 -56.4764
   -28.5823 -28.5787 -28.5713 -28.5700 -28.5431 -28.5408 -28.5222 -28.5210
   -27.6239 -27.6207 -27.5790 -27.5705 -27.5653 -27.5604 -27.5424 -27.5328
   -27.5230 -27.5095 -27.4810 -27.4710 -27.4661 -27.4573 -27.4349 -27.4321
     4.4227   4.4231   5.6839   5.6869   6.9124   6.9184   7.7716   7.7743
     8.9810   8.9848   9.7549   9.7588  11.0335  11.0366  11.5969  11.5997
    11.6775  11.6807  12.2580  12.2627  12.7417  12.7513  12.8773  12.8846
    13.1100  13.1220  13.2129  13.2242  13.2937  13.2978  13.6222  13.6300
    13.9383  13.9483  14.2618  14.2731  14.6149  14.6473  14.8448  14.8641
    15.0208  15.0311  15.1816  15.2079  15.3272  15.3421  15.5264  15.5432
    16.2223  16.2291  16.4125  16.4207  17.1204  17.1355

     occupation numbers 
     1.0000   1.0000   1.0000   1.0000   1.0000   1.0000   1.0000   1.0000
     1.0000   1.0000   1.0000   1.0000   1.0000   1.0000   1.0000   1.0000
     1.0000   1.0000   1.0000   1.0000   1.0000   1.0000   1.0000   1.0000
     1.0000   1.0000   1.0000   1.0000   1.0000   1.0000   1.0000   1.0000
     1.0000   1.0000   1.0000   1.0000   1.0000   1.0000   1.0000   1.0000
     1.0000   1.0000   1.0000   1.0000   1.0000   1.0000   1.0000   1.0000
     1.0000   1.0000   1.0000   1.0000   1.0000   1.0000   1.0000   1.0000
     1.0000   1.0000   1.0000   1.0000   1.0000   1.0000   1.0000   1.0000
     1.0000   1.0000   1.0009   1.0011   1.0354   1.0339   0.8132   0.7655
     0.3014   0.2728   0.0019  -0.0162  -0.0329  -0.0309  -0.0057  -0.0046
    -0.0000  -0.0000  -0.0000  -0.0000  -0.0000  -0.0000

          k = 0.2500 0.2500-0.5000 (  6608 PWs)   bands (ev):

   -56.4953 -56.4953 -56.4953 -56.4953 -56.4781 -56.4781 -56.4781 -56.4781
   -28.5777 -28.5777 -28.5729 -28.5729 -28.5342 -28.5342 -28.5305 -28.5305
   -27.6205 -27.6205 -27.5745 -27.5745 -27.5655 -27.5655 -27.5344 -27.5344
   -27.5189 -27.5189 -27.4779 -27.4779 -27.4594 -27.4594 -27.4335 -27.4335
     5.0369   5.0369   5.0382   5.0382   7.3196   7.3196   7.3256   7.3256
     9.3114   9.3114   9.3156   9.3156  11.2769  11.2769  11.2793  11.2793
    11.9766  11.9766  11.9848  11.9848  12.8037  12.8037  12.8139  12.8139
    13.1740  13.1740  13.1867  13.1867  13.4391  13.4391  13.4462  13.4462
    14.1683  14.1683  14.1780  14.1780  14.7502  14.7502  14.7775  14.7775
    15.0560  15.0560  15.0750  15.0750  15.4328  15.4328  15.4490  15.4490
    16.3116  16.3116  16.3212  16.3212  17.2573  17.2602

     occupation numbers 
     1.0000   1.0000   1.0000   1.0000   1.0000   1.0000   1.0000   1.0000
     1.0000   1.0000   1.0000   1.0000   1.0000   1.0000   1.0000   1.0000
     1.0000   1.0000   1.0000   1.0000   1.0000   1.0000   1.0000   1.0000
     1.0000   1.0000   1.0000   1.0000   1.0000   1.0000   1.0000   1.0000
     1.0000   1.0000   1.0000   1.0000   1.0000   1.0000   1.0000   1.0000
     1.0000   1.0000   1.0000   1.0000   1.0000   1.0000   1.0000   1.0000
     1.0000   1.0000   1.0000   1.0000   1.0000   1.0000   1.0000   1.0000
     1.0000   1.0000   1.0000   1.0000   1.0000   1.0000   1.0000   1.0000
     1.0002   1.0002   1.0002   1.0002   0.9768   0.9768   0.9418   0.9418
     0.2082   0.2082   0.1638   0.1638  -0.0162  -0.0162  -0.0138  -0.0138
    -0.0000  -0.0000  -0.0000  -0.0000  -0.0000  -0.0000

          k = 0.2500 0.3750 0.3750 (  6612 PWs)   bands (ev):

   -56.4964 -56.4964 -56.4919 -56.4919 -56.4804 -56.4804 -56.4781 -56.4781
   -28.5775 -28.5745 -28.5688 -28.5680 -28.5433 -28.5415 -28.5301 -28.5287
   -27.6166 -27.6138 -27.5822 -27.5771 -27.5663 -27.5618 -27.5438 -27.5325
   -27.5228 -27.5066 -27.4854 -27.4758 -27.4594 -27.4540 -27.4366 -27.4336
     4.8699   4.8705   5.7968   5.8007   6.6824   6.6892   7.3948   7.3979
     8.9592   8.9637   9.5734   9.5788  10.6888  10.6926  11.2074  11.2092
    12.0020  12.0048  12.4206  12.4247  12.6322  12.6377  12.8202  12.8260
    13.1288  13.1371  13.1825  13.1910  13.3829  13.3924  13.5842  13.5960
    14.1427  14.1513  14.4970  14.5140  14.6845  14.7081  14.8382  14.8571
    14.9339  14.9380  15.1313  15.1637  15.2756  15.2873  15.4316  15.4451
    16.2778  16.2853  16.4049  16.4094  16.9744  16.9846

     occupation numbers 
     1.0000   1.0000   1.0000   1.0000   1.0000   1.0000   1.0000   1.0000
     1.0000   1.0000   1.0000   1.0000   1.0000   1.0000   1.0000   1.0000
     1.0000   1.0000   1.0000   1.0000   1.0000   1.0000   1.0000   1.0000
     1.0000   1.0000   1.0000   1.0000   1.0000   1.0000   1.0000   1.0000
     1.0000   1.0000   1.0000   1.0000   1.0000   1.0000   1.0000   1.0000
     1.0000   1.0000   1.0000   1.0000   1.0000   1.0000   1.0000   1.0000
     1.0000   1.0000   1.0000   1.0000   1.0000   1.0000   1.0000   1.0000
     1.0000   1.0000   1.0000   1.0000   1.0000   1.0000   1.0000   1.0000
     1.0001   1.0001   1.0193   1.0221   1.0244   1.0126   0.8286   0.7833
     0.5649   0.5523   0.0594   0.0187  -0.0351  -0.0355  -0.0163  -0.0144
    -0.0000  -0.0000  -0.0000  -0.0000  -0.0000  -0.0000

          k = 0.2500 0.3750-0.5000 (  6604 PWs)   bands (ev):

   -56.4936 -56.4936 -56.4936 -56.4936 -56.4798 -56.4798 -56.4798 -56.4798
   -28.5726 -28.5726 -28.5692 -28.5692 -28.5389 -28.5389 -28.5359 -28.5359
   -27.6110 -27.6110 -27.5841 -27.5841 -27.5634 -27.5634 -27.5400 -27.5400
   -27.5122 -27.5122 -27.4834 -27.4834 -27.4533 -27.4533 -27.4364 -27.4364
     5.4124   5.4124   5.4142   5.4142   6.9219   6.9219   6.9273   6.9273
     9.2730   9.2730   9.2781   9.2781  10.7886  10.7886  10.7912  10.7912
    12.2811  12.2811  12.2897  12.2897  12.6864  12.6864  12.6938  12.6938
    13.1724  13.1724  13.1802  13.1802  13.4764  13.4764  13.4894  13.4894
    14.4069  14.4069  14.4157  14.4157  14.7927  14.7927  14.8102  14.8102
    14.9890  14.9890  15.0110  15.0110  15.3491  15.3491  15.3596  15.3596
    16.3666  16.3666  16.3737  16.3737  16.9863  16.9908

     occupation numbers 
     1.0000   1.0000   1.0000   1.0000   1.0000   1.0000   1.0000   1.0000
     1.0000   1.0000   1.0000   1.0000   1.0000   1.0000   1.0000   1.0000
     1.0000   1.0000   1.0000   1.0000   1.0000   1.0000   1.0000   1.0000
     1.0000   1.0000   1.0000   1.0000   1.0000   1.0000   1.0000   1.0000
     1.0000   1.0000   1.0000   1.0000   1.0000   1.0000   1.0000   1.0000
     1.0000   1.0000   1.0000   1.0000   1.0000   1.0000   1.0000   1.0000
     1.0000   1.0000   1.0000   1.0000   1.0000   1.0000   1.0000   1.0000
     1.0000   1.0000   1.0000   1.0000   1.0000   1.0000   1.0000   1.0000
     1.0076   1.0076   1.0085   1.0085   0.9182   0.9182   0.8870   0.8870
     0.3947   0.3947   0.3295   0.3295  -0.0299  -0.0299  -0.0282  -0.0282
    -0.0000  -0.0000  -0.0000  -0.0000  -0.0000  -0.0000

          k = 0.2500-0.5000-0.5000 (  6632 PWs)   bands (ev):

   -56.4928 -56.4928 -56.4928 -56.4928 -56.4806 -56.4806 -56.4806 -56.4806
   -28.5689 -28.5689 -28.5687 -28.5687 -28.5402 -28.5402 -28.5398 -28.5398
   -27.6024 -27.6024 -27.5938 -27.5938 -27.5613 -27.5613 -27.5427 -27.5427
   -27.5076 -27.5076 -27.4887 -27.4887 -27.4478 -27.4478 -27.4399 -27.4399
     5.6734   5.6734   5.6756   5.6756   6.6212   6.6212   6.6253   6.6253
     9.3821   9.3821   9.3875   9.3875  10.5096  10.5096  10.5129  10.5129
    12.4778  12.4778  12.4809  12.4809  12.5640  12.5640  12.5661  12.5661
    13.1158  13.1158  13.1162  13.1162  13.5550  13.5550  13.5679  13.5679
    14.5099  14.5099  14.5187  14.5187  14.8361  14.8361  14.8508  14.8508
    14.9376  14.9376  14.9387  14.9387  15.3111  15.3111  15.3140  15.3140
    16.4154  16.4154  16.4161  16.4161  16.8640  16.8651

     occupation numbers 
     1.0000   1.0000   1.0000   1.0000   1.0000   1.0000   1.0000   1.0000
     1.0000   1.0000   1.0000   1.0000   1.0000   1.0000   1.0000   1.0000
     1.0000   1.0000   1.0000   1.0000   1.0000   1.0000   1.0000   1.0000
     1.0000   1.0000   1.0000   1.0000   1.0000   1.0000   1.0000   1.0000
     1.0000   1.0000   1.0000   1.0000   1.0000   1.0000   1.0000   1.0000
     1.0000   1.0000   1.0000   1.0000   1.0000   1.0000   1.0000   1.0000
     1.0000   1.0000   1.0000   1.0000   1.0000   1.0000   1.0000   1.0000
     1.0000   1.0000   1.0000   1.0000   1.0000   1.0000   1.0000   1.0000
     1.0215   1.0215   1.0229   1.0229   0.8332   0.8332   0.7989   0.7989
     0.5535   0.5535   0.5503   0.5503  -0.0345  -0.0345  -0.0342  -0.0342
    -0.0000  -0.0000  -0.0000  -0.0000  -0.0000  -0.0000

          k = 0.3750 0.3750 0.3750 (  6641 PWs)   bands (ev):

   -56.4938 -56.4938 -56.4907 -56.4907 -56.4821 -56.4821 -56.4802 -56.4802
   -28.5723 -28.5698 -28.5647 -28.5645 -28.5466 -28.5451 -28.5373 -28.5357
   -27.6094 -27.6066 -27.5813 -27.5750 -27.5743 -27.5722 -27.5473 -27.5411
   -27.5123 -27.5007 -27.4799 -27.4656 -27.4631 -27.4607 -27.4405 -27.4381
     5.2849   5.2857   6.0001   6.0064   6.6316   6.6414   7.1892   7.1926
     8.7564   8.7621   9.2630   9.2703  10.1959  10.2009  10.6468  10.6491
    12.3233  12.3264  12.5916  12.5959  12.7693  12.7727  12.8677  12.8695
    13.1096  13.1199  13.1695  13.1747  13.2713  13.2716  13.3956  13.4003
    14.3623  14.3650  14.7233  14.7439  14.7846  14.7927  14.9234  14.9581
    15.0674  15.0739  15.0982  15.1036  15.2541  15.2846  15.3088  15.3303
    16.2856  16.2932  16.3594  16.3612  16.8113  16.8156

     occupation numbers 
     1.0000   1.0000   1.0000   1.0000   1.0000   1.0000   1.0000   1.0000
     1.0000   1.0000   1.0000   1.0000   1.0000   1.0000   1.0000   1.0000
     1.0000   1.0000   1.0000   1.0000   1.0000   1.0000   1.0000   1.0000
     1.0000   1.0000   1.0000   1.0000   1.0000   1.0000   1.0000   1.0000
[...]
   -28.5892 -28.5843 -28.5805 -28.5780 -28.5384 -28.5360 -28.5086 -28.5078
   -27.6373 -27.6320 -27.5775 -27.5745 -27.5639 -27.5469 -27.5416 -27.5296
   -27.5233 -27.4939 -27.4849 -27.4715 -27.4624 -27.4564 -27.4406 -27.4377
     3.7447   3.7448   5.2136   5.2141   7.6683   7.6707   8.4238   8.4307
     9.7496   9.7525  10.2955  10.3016  10.9492  10.9563  10.9941  10.9973
    11.9116  11.9153  12.2302  12.2350  12.8383  12.8464  13.0353  13.0382
    13.0610  13.0631  13.1351  13.1402  13.2985  13.3030  13.3909  13.3965
    13.5800  13.5801  13.9427  13.9495  14.2818  14.2982  14.8146  14.8486
    15.3091  15.3250  15.3849  15.4036  15.6839  15.7119  15.8029  15.8276
    16.1481  16.1613  16.3431  16.3579  17.3387  17.3579

     occupation numbers 
     1.0000   1.0000   1.0000   1.0000   1.0000   1.0000   1.0000   1.0000
     1.0000   1.0000   1.0000   1.0000   1.0000   1.0000   1.0000   1.0000
     1.0000   1.0000   1.0000   1.0000   1.0000   1.0000   1.0000   1.0000
     1.0000   1.0000   1.0000   1.0000   1.0000   1.0000   1.0000   1.0000
     1.0000   1.0000   1.0000   1.0000   1.0000   1.0000   1.0000   1.0000
     1.0000   1.0000   1.0000   1.0000   1.0000   1.0000   1.0000   1.0000
     1.0000   1.0000   1.0000   1.0000   1.0000   1.0000   1.0000   1.0000
     1.0000   1.0000   1.0000   1.0000   1.0000   1.0000   1.0000   1.0000
     1.0000   1.0000   1.0000   1.0000   1.0013   1.0017   0.8785   0.8042
    -0.0346  -0.0331  -0.0240  -0.0208  -0.0005  -0.0003  -0.0000  -0.0000
    -0.0000  -0.0000  -0.0000  -0.0000  -0.0000  -0.0000

          k = 0.0000-0.5000 0.1250 (  6616 PWs)   bands (ev):

   -56.4985 -56.4985 -56.4985 -56.4985 -56.4750 -56.4750 -56.4750 -56.4750
   -28.5864 -28.5864 -28.5807 -28.5807 -28.5236 -28.5236 -28.5212 -28.5212
   -27.6357 -27.6357 -27.5718 -27.5718 -27.5589 -27.5589 -27.5345 -27.5345
   -27.5088 -27.5088 -27.4775 -27.4775 -27.4606 -27.4606 -27.4388 -27.4388
     4.4218   4.4218   4.4222   4.4222   8.0597   8.0597   8.0650   8.0650
    10.0564  10.0564  10.0613  10.0613  10.8862  10.8862  10.8948  10.8948
    12.1688  12.1688  12.1738  12.1738  12.8618  12.8618  12.8691  12.8691
    13.1016  13.1016  13.1071  13.1071  13.3092  13.3092  13.3165  13.3165
    13.7932  13.7932  13.7978  13.7978  14.5906  14.5906  14.6206  14.6206
    15.3205  15.3205  15.3412  15.3412  15.7328  15.7328  15.7618  15.7618
    16.1917  16.1917  16.2039  16.2039  17.6042  17.6093

     occupation numbers 
     1.0000   1.0000   1.0000   1.0000   1.0000   1.0000   1.0000   1.0000
     1.0000   1.0000   1.0000   1.0000   1.0000   1.0000   1.0000   1.0000
     1.0000   1.0000   1.0000   1.0000   1.0000   1.0000   1.0000   1.0000
     1.0000   1.0000   1.0000   1.0000   1.0000   1.0000   1.0000   1.0000
     1.0000   1.0000   1.0000   1.0000   1.0000   1.0000   1.0000   1.0000
     1.0000   1.0000   1.0000   1.0000   1.0000   1.0000   1.0000   1.0000
     1.0000   1.0000   1.0000   1.0000   1.0000   1.0000   1.0000   1.0000
     1.0000   1.0000   1.0000   1.0000   1.0000   1.0000   1.0000   1.0000
     1.0000   1.0000   1.0000   1.0000   1.0337   1.0337   1.0355   1.0355
    -0.0336  -0.0336  -0.0310  -0.0310  -0.0002  -0.0002  -0.0001  -0.0001
    -0.0000  -0.0000  -0.0000  -0.0000  -0.0000  -0.0000

          k = 0.0000 0.3750 0.2500 (  6612 PWs)   bands (ev):

   -56.5017 -56.5017 -56.4928 -56.4928 -56.4775 -56.4775 -56.4748 -56.4748
   -28.5865 -28.5824 -28.5763 -28.5748 -28.5398 -28.5372 -28.5146 -28.5136
   -27.6308 -27.6280 -27.5786 -27.5746 -27.5598 -27.5513 -27.5411 -27.5326
   -27.5217 -27.5020 -27.4900 -27.4823 -27.4614 -27.4487 -27.4358 -27.4332
     4.0408   4.0411   5.4168   5.4176   7.0483   7.0492   8.0212   8.0258
     9.9596   9.9629  10.2698  10.2751  10.9115  10.9154  11.0726  11.0747
    11.9255  11.9299  12.2415  12.2452  12.5547  12.5588  12.7987  12.8038
    13.1007  13.1072  13.3335  13.3384  13.5325  13.5376  13.6283  13.6347
    13.7284  13.7395  13.9987  14.0099  14.4336  14.4578  14.8077  14.8389
    15.1055  15.1241  15.1496  15.1675  15.5616  15.5883  15.6546  15.6828
    16.1882  16.1978  16.4142  16.4254  17.2852  17.3161

     occupation numbers 
     1.0000   1.0000   1.0000   1.0000   1.0000   1.0000   1.0000   1.0000
     1.0000   1.0000   1.0000   1.0000   1.0000   1.0000   1.0000   1.0000
     1.0000   1.0000   1.0000   1.0000   1.0000   1.0000   1.0000   1.0000
     1.0000   1.0000   1.0000   1.0000   1.0000   1.0000   1.0000   1.0000
     1.0000   1.0000   1.0000   1.0000   1.0000   1.0000   1.0000   1.0000
     1.0000   1.0000   1.0000   1.0000   1.0000   1.0000   1.0000   1.0000
     1.0000   1.0000   1.0000   1.0000   1.0000   1.0000   1.0000   1.0000
     1.0000   1.0000   1.0000   1.0000   1.0000   1.0000   1.0000   1.0000
     1.0000   1.0000   1.0000   1.0000   1.0104   1.0134   0.8917   0.8270
     0.1018   0.0704   0.0348   0.0149  -0.0036  -0.0024  -0.0008  -0.0005
    -0.0000  -0.0000  -0.0000  -0.0000  -0.0000  -0.0000

          k = 0.0000-0.5000 0.2500 (  6610 PWs)   bands (ev):

   -56.4973 -56.4973 -56.4973 -56.4973 -56.4762 -56.4762 -56.4762 -56.4762
   -28.5827 -28.5827 -28.5775 -28.5775 -28.5282 -28.5282 -28.5248 -28.5248
   -27.6288 -27.6288 -27.5758 -27.5758 -27.5564 -27.5564 -27.5330 -27.5330
   -27.5167 -27.5167 -27.4875 -27.4875 -27.4538 -27.4538 -27.4338 -27.4338
     4.6913   4.6913   4.6920   4.6920   7.4872   7.4872   7.4906   7.4906
    10.2660  10.2660  10.2707  10.2707  10.8448  10.8448  10.8493  10.8493
    12.0954  12.0954  12.1011  12.1011  12.6611  12.6611  12.6716  12.6716
    13.1885  13.1885  13.1957  13.1957  13.6629  13.6629  13.6726  13.6726
    13.8552  13.8552  13.8624  13.8624  14.6380  14.6380  14.6712  14.6712
    15.0913  15.0913  15.1179  15.1179  15.5704  15.5704  15.5975  15.5975
    16.2853  16.2853  16.2965  16.2965  17.4778  17.4783

     occupation numbers 
     1.0000   1.0000   1.0000   1.0000   1.0000   1.0000   1.0000   1.0000
     1.0000   1.0000   1.0000   1.0000   1.0000   1.0000   1.0000   1.0000
     1.0000   1.0000   1.0000   1.0000   1.0000   1.0000   1.0000   1.0000
     1.0000   1.0000   1.0000   1.0000   1.0000   1.0000   1.0000   1.0000
     1.0000   1.0000   1.0000   1.0000   1.0000   1.0000   1.0000   1.0000
     1.0000   1.0000   1.0000   1.0000   1.0000   1.0000   1.0000   1.0000
     1.0000   1.0000   1.0000   1.0000   1.0000   1.0000   1.0000   1.0000
     1.0000   1.0000   1.0000   1.0000   1.0000   1.0000   1.0000   1.0000
     1.0000   1.0000   1.0000   1.0000   1.0349   1.0349   1.0290   1.0290
     0.1291   0.1291   0.0804   0.0804  -0.0031  -0.0031  -0.0021  -0.0021
    -0.0000  -0.0000  -0.0000  -0.0000  -0.0000  -0.0000

          k = 0.0000-0.5000 0.3750 (  6628 PWs)   bands (ev):

   -56.4959 -56.4959 -56.4959 -56.4959 -56.4775 -56.4775 -56.4775 -56.4775
   -28.5778 -28.5778 -28.5743 -28.5743 -28.5327 -28.5327 -28.5299 -28.5299
   -27.6178 -27.6178 -27.5886 -27.5886 -27.5468 -27.5468 -27.5310 -27.5310
   -27.5216 -27.5216 -27.5029 -27.5029 -27.4438 -27.4438 -27.4328 -27.4328
     5.0896   5.0896   5.0905   5.0905   6.8141   6.8141   6.8161   6.8161
    10.6242  10.6242  10.6265  10.6265  10.8530  10.8530  10.8565  10.8565
    11.8733  11.8733  11.8766  11.8766  12.3352  12.3352  12.3430  12.3430
    13.3024  13.3024  13.3078  13.3078  13.9495  13.9495  13.9560  13.9560
    14.0790  14.0790  14.0870  14.0870  14.6218  14.6218  14.6537  14.6537
    14.8224  14.8224  14.8627  14.8627  15.4473  15.4473  15.4664  15.4664
    16.4444  16.4444  16.4566  16.4567  17.1898  17.1921

     occupation numbers 
     1.0000   1.0000   1.0000   1.0000   1.0000   1.0000   1.0000   1.0000
     1.0000   1.0000   1.0000   1.0000   1.0000   1.0000   1.0000   1.0000
     1.0000   1.0000   1.0000   1.0000   1.0000   1.0000   1.0000   1.0000
     1.0000   1.0000   1.0000   1.0000   1.0000   1.0000   1.0000   1.0000
     1.0000   1.0000   1.0000   1.0000   1.0000   1.0000   1.0000   1.0000
     1.0000   1.0000   1.0000   1.0000   1.0000   1.0000   1.0000   1.0000
     1.0000   1.0000   1.0000   1.0000   1.0000   1.0000   1.0000   1.0000
     1.0000   1.0000   1.0000   1.0000   1.0000   1.0000   1.0000   1.0000
     1.0000   1.0000   1.0000   1.0000   1.0355   1.0355   1.0329   1.0329
     0.8627   0.8627   0.7693   0.7693  -0.0141  -0.0141  -0.0116  -0.0116
    -0.0000  -0.0000  -0.0000  -0.0000  -0.0000  -0.0000

          k =-0.1250 0.3750 0.2500 (  6613 PWs)   bands (ev):

   -56.5011 -56.5011 -56.4925 -56.4925 -56.4781 -56.4781 -56.4752 -56.4752
   -28.5855 -28.5815 -28.5748 -28.5733 -28.5408 -28.5383 -28.5166 -28.5156
   -27.6290 -27.6261 -27.5787 -27.5728 -27.5614 -27.5537 -27.5408 -27.5357
   -27.5184 -27.5092 -27.4840 -27.4778 -27.4642 -27.4522 -27.4349 -27.4326
     4.1380   4.1383   5.4905   5.4919   7.0413   7.0440   7.9715   7.9758
     9.4175   9.4201  10.2017  10.2031  10.9148  10.9163  11.5451  11.5486
    11.7468  11.7489  12.1893  12.1930  12.6586  12.6631  12.8607  12.8663
    13.0837  13.0883  13.2588  13.2706  13.4137  13.4168  13.6459  13.6572
    13.7958  13.8047  14.0775  14.0865  14.4879  14.5148  14.8193  14.8472
    15.0855  15.1047  15.1645  15.1821  15.4851  15.4972  15.6246  15.6430
    16.1960  16.2042  16.4168  16.4284  17.2546  17.2838

     occupation numbers 
     1.0000   1.0000   1.0000   1.0000   1.0000   1.0000   1.0000   1.0000
     1.0000   1.0000   1.0000   1.0000   1.0000   1.0000   1.0000   1.0000
     1.0000   1.0000   1.0000   1.0000   1.0000   1.0000   1.0000   1.0000
     1.0000   1.0000   1.0000   1.0000   1.0000   1.0000   1.0000   1.0000
     1.0000   1.0000   1.0000   1.0000   1.0000   1.0000   1.0000   1.0000
     1.0000   1.0000   1.0000   1.0000   1.0000   1.0000   1.0000   1.0000
     1.0000   1.0000   1.0000   1.0000   1.0000   1.0000   1.0000   1.0000
     1.0000   1.0000   1.0000   1.0000   1.0000   1.0000   1.0000   1.0000
     1.0000   1.0000   1.0000   1.0000   1.0178   1.0223   0.8690   0.8075
     0.1411   0.1034   0.0179   0.0015  -0.0094  -0.0082  -0.0014  -0.0010
    -0.0000  -0.0000  -0.0000  -0.0000  -0.0000  -0.0000

          k =-0.1250-0.5000 0.2500 (  6604 PWs)   bands (ev):

   -56.4967 -56.4967 -56.4967 -56.4967 -56.4767 -56.4767 -56.4767 -56.4767
   -28.5813 -28.5813 -28.5762 -28.5762 -28.5299 -28.5299 -28.5263 -28.5263
   -27.6266 -27.6266 -27.5746 -27.5746 -27.5598 -27.5598 -27.5317 -27.5317
   -27.5198 -27.5198 -27.4827 -27.4827 -27.4567 -27.4567 -27.4332 -27.4332
     4.7803   4.7803   4.7812   4.7812   7.4711   7.4711   7.4756   7.4756
     9.7733   9.7733   9.7744   9.7744  11.2721  11.2721  11.2772  11.2772
    11.9371  11.9371  11.9422  11.9422  12.7543  12.7543  12.7643  12.7643
    13.1586  13.1586  13.1673  13.1673  13.5598  13.5598  13.5680  13.5680
    13.9632  13.9632  13.9726  13.9726  14.6792  14.6792  14.7128  14.7128
    15.0794  15.0794  15.1044  15.1044  15.5323  15.5323  15.5541  15.5541
    16.2894  16.2894  16.2999  16.2999  17.4693  17.4710

     occupation numbers 
     1.0000   1.0000   1.0000   1.0000   1.0000   1.0000   1.0000   1.0000
     1.0000   1.0000   1.0000   1.0000   1.0000   1.0000   1.0000   1.0000
     1.0000   1.0000   1.0000   1.0000   1.0000   1.0000   1.0000   1.0000
     1.0000   1.0000   1.0000   1.0000   1.0000   1.0000   1.0000   1.0000
     1.0000   1.0000   1.0000   1.0000   1.0000   1.0000   1.0000   1.0000
     1.0000   1.0000   1.0000   1.0000   1.0000   1.0000   1.0000   1.0000
     1.0000   1.0000   1.0000   1.0000   1.0000   1.0000   1.0000   1.0000
     1.0000   1.0000   1.0000   1.0000   1.0000   1.0000   1.0000   1.0000
     1.0000   1.0000   1.0000   1.0000   1.0264   1.0264   1.0096   1.0096
     0.1540   0.1540   0.1039   0.1039  -0.0053  -0.0053  -0.0039  -0.0039
    -0.0000  -0.0000  -0.0000  -0.0000  -0.0000  -0.0000

          k =-0.1250-0.5000 0.3750 (  6614 PWs)   bands (ev):

   -56.4953 -56.4953 -56.4953 -56.4953 -56.4781 -56.4781 -56.4781 -56.4781
   -28.5764 -28.5764 -28.5729 -28.5729 -28.5343 -28.5343 -28.5315 -28.5315
   -27.6161 -27.6161 -27.5872 -27.5872 -27.5527 -27.5527 -27.5320 -27.5320
   -27.5210 -27.5210 -27.4957 -27.4957 -27.4466 -27.4466 -27.4334 -27.4334
     5.1728   5.1728   5.1739   5.1739   6.8571   6.8571   6.8599   6.8599
     9.9476   9.9476   9.9502   9.9502  11.1550  11.1550  11.1582  11.1582
    11.9551  11.9551  11.9605  11.9605  12.4573  12.4573  12.4665  12.4665
    13.2326  13.2326  13.2385  13.2385  13.7798  13.7798  13.7929  13.7929
    14.1918  14.1918  14.2002  14.2002  14.6776  14.6776  14.7045  14.7045
    14.8673  14.8673  14.9060  14.9060  15.4180  15.4180  15.4343  15.4343
    16.4131  16.4131  16.4243  16.4243  17.1503  17.1528

     occupation numbers 
     1.0000   1.0000   1.0000   1.0000   1.0000   1.0000   1.0000   1.0000
     1.0000   1.0000   1.0000   1.0000   1.0000   1.0000   1.0000   1.0000
     1.0000   1.0000   1.0000   1.0000   1.0000   1.0000   1.0000   1.0000
     1.0000   1.0000   1.0000   1.0000   1.0000   1.0000   1.0000   1.0000
     1.0000   1.0000   1.0000   1.0000   1.0000   1.0000   1.0000   1.0000
     1.0000   1.0000   1.0000   1.0000   1.0000   1.0000   1.0000   1.0000
     1.0000   1.0000   1.0000   1.0000   1.0000   1.0000   1.0000   1.0000
     1.0000   1.0000   1.0000   1.0000   1.0000   1.0000   1.0000   1.0000
     1.0003   1.0003   1.0003   1.0003   1.0270   1.0270   1.0147   1.0147
     0.7574   0.7574   0.6492   0.6492  -0.0185  -0.0185  -0.0159  -0.0159
    -0.0000  -0.0000  -0.0000  -0.0000  -0.0000  -0.0000

          k =-0.2500-0.5000 0.3750 (  6604 PWs)   bands (ev):

   -56.4936 -56.4936 -56.4936 -56.4936 -56.4798 -56.4798 -56.4798 -56.4798
   -28.5726 -28.5726 -28.5692 -28.5692 -28.5389 -28.5389 -28.5360 -28.5360
   -27.6110 -27.6110 -27.5839 -27.5839 -27.5635 -27.5635 -27.5399 -27.5399
   -27.5123 -27.5123 -27.4834 -27.4834 -27.4532 -27.4532 -27.4364 -27.4364
     5.4123   5.4123   5.4139   5.4139   6.9228   6.9228   6.9274   6.9274
     9.2754   9.2754   9.2802   9.2802  10.7788  10.7788  10.7814  10.7814
    12.2801  12.2801  12.2884  12.2884  12.7224  12.7224  12.7324  12.7324
    13.1101  13.1101  13.1191  13.1191  13.5279  13.5279  13.5397  13.5397
    14.3816  14.3816  14.3888  14.3888  14.7986  14.7986  14.8169  14.8169
    14.9953  14.9953  15.0269  15.0269  15.3349  15.3349  15.3490  15.3490
    16.3556  16.3556  16.3655  16.3655  17.0034  17.0045

     occupation numbers 
     1.0000   1.0000   1.0000   1.0000   1.0000   1.0000   1.0000   1.0000
     1.0000   1.0000   1.0000   1.0000   1.0000   1.0000   1.0000   1.0000
     1.0000   1.0000   1.0000   1.0000   1.0000   1.0000   1.0000   1.0000
     1.0000   1.0000   1.0000   1.0000   1.0000   1.0000   1.0000   1.0000
     1.0000   1.0000   1.0000   1.0000   1.0000   1.0000   1.0000   1.0000
     1.0000   1.0000   1.0000   1.0000   1.0000   1.0000   1.0000   1.0000
     1.0000   1.0000   1.0000   1.0000   1.0000   1.0000   1.0000   1.0000
     1.0000   1.0000   1.0000   1.0000   1.0000   1.0000   1.0000   1.0000
     1.0056   1.0056   1.0061   1.0061   0.9081   0.9081   0.8738   0.8738
     0.3758   0.3758   0.2845   0.2845  -0.0319  -0.0319  -0.0299  -0.0299
    -0.0000  -0.0000  -0.0000  -0.0000  -0.0000  -0.0000

     the Fermi energy is    14.9549 ev

!    total energy              =   -1180.34426476 Ry

     total all-electron energy =    -10727.805101 Ry
     estimated scf accuracy    <       0.00000020 Ry
     smearing contrib. (-TS)   =      -0.00080957 Ry
     internal energy E=F+TS    =   -1180.34345519 Ry

     The total energy is F=E-TS. E is the sum of the following terms:
     one-electron contribution =    -336.79425765 Ry
     hartree contribution      =     207.03890441 Ry
     xc contribution           =    -114.35905542 Ry
     ewald contribution        =    -496.51183961 Ry
     one-center paw contrib.   =    -439.71720693 Ry
      -> PAW hartree energy AE =     126.67562452 Ry
      -> PAW hartree energy PS =    -125.70940852 Ry
      -> PAW xc energy AE      =     -96.23299683 Ry
      -> PAW xc energy PS      =      20.92768770 Ry
      -> total E_H with PAW    =     208.00512041 Ry
      -> total E_XC with PAW   =    -189.66436456 Ry

     convergence has been achieved in   8 iterations

     Writing output data file /zfs_data/vergnior/martin/Scratch/OAL/CrSi/convergence/cutoff/8x8x8/70/tmp/CrSi.save/
 
     init_run     :      5.12s CPU      5.33s WALL (       1 calls)
     electrons    :    142.13s CPU    145.96s WALL (       1 calls)

     Called by init_run:
     wfcinit      :      4.24s CPU      4.38s WALL (       1 calls)
     wfcinit:atom :      0.04s CPU      0.04s WALL (      45 calls)
     wfcinit:wfcr :      4.04s CPU      4.17s WALL (      45 calls)
     potinit      :      0.17s CPU      0.18s WALL (       1 calls)
     hinit0       :      0.16s CPU      0.16s WALL (       1 calls)

     Called by electrons:
     c_bands      :    116.10s CPU    118.59s WALL (       9 calls)
     sum_band     :     21.65s CPU     22.57s WALL (       9 calls)
     v_of_rho     :      0.14s CPU      0.15s WALL (       9 calls)
     v_h          :      0.01s CPU      0.01s WALL (       9 calls)
     v_xc         :      0.13s CPU      0.14s WALL (       9 calls)
     newd         :      3.47s CPU      3.88s WALL (       9 calls)
     PAW_pot      :      1.12s CPU      1.15s WALL (       9 calls)
     mix_rho      :      0.08s CPU      0.09s WALL (       9 calls)

     Called by c_bands:
     init_us_2    :      0.55s CPU      0.57s WALL (     855 calls)
     cegterg      :    105.44s CPU    107.86s WALL (     405 calls)

     Called by sum_band:
     sum_band:wei :      0.06s CPU      0.06s WALL (       9 calls)
     sum_band:loo :     19.46s CPU     19.87s WALL (       9 calls)
     sum_band:buf :      0.20s CPU      0.21s WALL (     405 calls)
     sum_band:ini :      0.25s CPU      0.27s WALL (     405 calls)
     sum_band:cal :      1.72s CPU      1.73s WALL (     405 calls)
     sum_band:bec :      5.15s CPU      5.17s WALL (     405 calls)
     addusdens    :      2.05s CPU      2.56s WALL (       9 calls)
     addusd:skk   :      0.00s CPU      0.00s WALL (      18 calls)
     addusd:dgemm :      0.81s CPU      1.30s WALL (      18 calls)
     addusd:qvan2 :      1.21s CPU      1.22s WALL (      18 calls)

     Called by *egterg:
     cdiaghg      :     15.37s CPU     15.46s WALL (    2178 calls)
     cegterg:over :      5.33s CPU      5.35s WALL (    1818 calls)
     cegterg:upda :      2.82s CPU      2.84s WALL (    1818 calls)
     cegterg:last :      4.92s CPU      4.95s WALL (    1042 calls)
     h_psi        :     64.73s CPU     67.04s WALL (    2268 calls)
     s_psi        :     13.36s CPU     13.41s WALL (    2268 calls)
     g_psi        :      0.18s CPU      0.19s WALL (    1818 calls)

     Called by h_psi:
     h_psi:calbec :      5.74s CPU      5.80s WALL (    2268 calls)
     vloc_psi     :     46.44s CPU     48.59s WALL (    2268 calls)
     add_vuspsi   :     12.24s CPU     12.32s WALL (    2268 calls)

     General routines
     calbec       :      7.44s CPU      7.52s WALL (    2673 calls)
     fft          :      0.13s CPU      0.13s WALL (     188 calls)
     ffts         :      0.01s CPU      0.01s WALL (      72 calls)
     fftw         :     40.13s CPU     41.86s WALL (  528912 calls)
     interpolate  :      0.03s CPU      0.03s WALL (      36 calls)
 
     Parallel routines
     fft_scatt_xy :      4.51s CPU      4.70s WALL (  529172 calls)
     fft_scatt_yz :     23.03s CPU     24.02s WALL (  529172 calls)

     PAW routines
     PAW_pot      :      1.12s CPU      1.15s WALL (       9 calls)
     PAW_symme    :      0.02s CPU      0.02s WALL (      18 calls)
 
     PWSCF        :   2m30.47s CPU   2m35.82s WALL

 
   This run was terminated on:  19: 2:45  30Jul2021            

=------------------------------------------------------------------------------=
   JOB DONE.
=------------------------------------------------------------------------------=
