
     Program PWSCF v.6.7MaX starts on 18May2022 at 17:41: 3 

     This program is part of the open-source Quantum ESPRESSO suite
     for quantum simulation of materials; please cite
         "P. Giannozzi et al., J. Phys.:Condens. Matter 21 395502 (2009);
         "P. Giannozzi et al., J. Phys.:Condens. Matter 29 465901 (2017);
          URL http://www.quantum-espresso.org", 
     in publications or presentations arising from this work. More details at
     http://www.quantum-espresso.org/quote

     Parallel version (MPI), running on    48 processors

     MPI processes distributed on     1 nodes
     R & G space division:  proc/nbgrp/npool/nimage =      48
     Waiting for input...
     Reading input from standard input

     Current dimensions of program PWSCF are:
     Max number of different atomic species (ntypx) = 10
     Max number of k-points (npk) =  40000
     Max angular momentum in pseudopotentials (lmaxx) =  3
     file O.pbe-nl-kjpaw_psl.1.0.0.UPF: wavefunction(s)  2S 2P renormalized
     file Cl.pbe-nl-kjpaw_psl.1.0.0.UPF: wavefunction(s)  3S renormalized
     file Nb.pbe-spn-kjpaw_psl.1.0.0.UPF: wavefunction(s)  4S 4P 4D renormalized

     Subspace diagonalization in iterative solution of the eigenvalue problem:
     a serial algorithm will be used

     Message from routine setup:
     using ibrav=0 with symmetry is DISCOURAGED, use correct ibrav instead
 
     Parallelization info
     --------------------
     sticks:   dense  smooth     PW     G-vecs:    dense   smooth      PW
     Min         226      90     28                 8011     2025     357
     Max         227      91     29                 8013     2026     359
     Sum       10861    4353   1363               384583    97215   17183
 


     bravais-lattice index     =            0
     lattice parameter (alat)  =      12.6717  a.u.
     unit-cell volume          =     547.9313 (a.u.)^3
     number of atoms/cell      =            4
     number of atomic types    =            3
     number of electrons       =        33.00
     number of Kohn-Sham states=           21
     kinetic-energy cutoff     =     120.0000  Ry
     charge density cutoff     =    1200.0000  Ry
     scf convergence threshold =      1.0E-10
     mixing beta               =       0.7000
     number of iterations used =            8  plain     mixing
     Exchange-correlation= SLA  PW   PBX  PBC
                           (   1   4   3   4   0   0   0)

     celldm(1)=  12.671676  celldm(2)=   0.000000  celldm(3)=   0.000000
     celldm(4)=   0.000000  celldm(5)=   0.000000  celldm(6)=   0.000000

     crystal axes: (cart. coord. in units of alat)
               a(1) = (  -0.250426   0.291161   0.923316 )  
               a(2) = (   0.250426  -0.291161   0.923316 )  
               a(3) = (   0.250426   0.291161  -0.923316 )  

     reciprocal axes: (cart. coord. in units 2 pi/alat)
               b(1) = (  0.000000  1.717261  0.541527 )  
               b(2) = (  1.996594  0.000000  0.541527 )  
               b(3) = (  1.996594  1.717261  0.000000 )  


     PseudoPot. # 1 for O  read from file:
     /zfs_data/gutierre/Scratch/Cl2NbO/smearing/14x14x14/0.003/pseudo/O.pbe-nl-kjpaw_psl.1.0.0.UPF
     MD5 check sum: df3ddea38124b4e5de5e1084591730e4
     Pseudo is Projector augmented-wave + core cor, Zval =  6.0
     Generated using 'atomic' code by A. Dal Corso  v.6.7MaX
     Shape of augmentation charge: PSQ
     Using radial grid of 1095 points,  4 beta functions with: 
                l(1) =   0
                l(2) =   0
                l(3) =   1
                l(4) =   1
     Q(r) pseudized with 0 coefficients 


     PseudoPot. # 2 for Cl read from file:
     /zfs_data/gutierre/Scratch/Cl2NbO/smearing/14x14x14/0.003/pseudo/Cl.pbe-nl-kjpaw_psl.1.0.0.UPF
     MD5 check sum: 8cf6bde52c08f6236e0f72a8870677af
     Pseudo is Projector augmented-wave + core cor, Zval =  7.0
     Generated using 'atomic' code by A. Dal Corso  v.6.7MaX
     Shape of augmentation charge: PSQ
     Using radial grid of 1157 points,  4 beta functions with: 
                l(1) =   0
                l(2) =   0
                l(3) =   1
                l(4) =   1
     Q(r) pseudized with 0 coefficients 


     PseudoPot. # 3 for Nb read from file:
     /zfs_data/gutierre/Scratch/Cl2NbO/smearing/14x14x14/0.003/pseudo/Nb.pbe-spn-kjpaw_psl.1.0.0.UPF
     MD5 check sum: 1ec1a3aa7bf3cbf7f7e0d720422bce7a
     Pseudo is Projector augmented-wave + core cor, Zval = 13.0
     Generated using 'atomic' code by A. Dal Corso  v.6.7MaX
     Shape of augmentation charge: PSQ
     Using radial grid of 1227 points,  6 beta functions with: 
                l(1) =   0
                l(2) =   0
                l(3) =   1
                l(4) =   1
                l(5) =   2
                l(6) =   2
     Q(r) pseudized with 0 coefficients 


     atomic species   valence    mass     pseudopotential
        O              6.00    15.99940     O ( 1.00)
        Cl             7.00    35.45150     Cl( 1.00)
        Nb            13.00    92.90637     Nb( 1.00)

      8 Sym. Ops., with inversion, found


                                    s                        frac. trans.

      isym =  1     identity                                     

 cryst.   s( 1) = (     1          0          0      )
                  (     0          1          0      )
                  (     0          0          1      )

 cart.    s( 1) = (  1.0000000  0.0000000  0.0000000 )
                  (  0.0000000  1.0000000  0.0000000 )
                  (  0.0000000  0.0000000  1.0000000 )


      isym =  2     180 deg rotation - cart. axis [0,0,1]        

 cryst.   s( 2) = (     0          1          0      )
                  (     1          0          0      )
                  (    -1         -1         -1      )

 cart.    s( 2) = ( -1.0000000  0.0000000  0.0000000 )
                  (  0.0000000 -1.0000000  0.0000000 )
                  (  0.0000000  0.0000000  1.0000000 )


      isym =  3     180 deg rotation - cart. axis [0,1,0]        

 cryst.   s( 3) = (     0          0          1      )
                  (    -1         -1         -1      )
                  (     1          0          0      )

 cart.    s( 3) = ( -1.0000000  0.0000000  0.0000000 )
                  (  0.0000000  1.0000000  0.0000000 )
                  (  0.0000000  0.0000000 -1.0000000 )


      isym =  4     180 deg rotation - cart. axis [1,0,0]        

 cryst.   s( 4) = (    -1         -1         -1      )
                  (     0          0          1      )
                  (     0          1          0      )

 cart.    s( 4) = (  1.0000000  0.0000000  0.0000000 )
                  (  0.0000000 -1.0000000  0.0000000 )
                  (  0.0000000  0.0000000 -1.0000000 )


      isym =  5     inversion                                    

 cryst.   s( 5) = (    -1          0          0      )
                  (     0         -1          0      )
                  (     0          0         -1      )

 cart.    s( 5) = ( -1.0000000  0.0000000  0.0000000 )
                  (  0.0000000 -1.0000000  0.0000000 )
                  (  0.0000000  0.0000000 -1.0000000 )


      isym =  6     inv. 180 deg rotation - cart. axis [0,0,1]   

 cryst.   s( 6) = (     0         -1          0      )
                  (    -1          0          0      )
                  (     1          1          1      )

 cart.    s( 6) = (  1.0000000  0.0000000  0.0000000 )
                  (  0.0000000  1.0000000  0.0000000 )
                  (  0.0000000  0.0000000 -1.0000000 )


      isym =  7     inv. 180 deg rotation - cart. axis [0,1,0]   

 cryst.   s( 7) = (     0          0         -1      )
                  (     1          1          1      )
                  (    -1          0          0      )

 cart.    s( 7) = (  1.0000000  0.0000000  0.0000000 )
                  (  0.0000000 -1.0000000  0.0000000 )
                  (  0.0000000  0.0000000  1.0000000 )


      isym =  8     inv. 180 deg rotation - cart. axis [1,0,0]   

 cryst.   s( 8) = (     1          1          1      )
                  (     0          0         -1      )
                  (     0         -1          0      )

 cart.    s( 8) = ( -1.0000000  0.0000000  0.0000000 )
                  (  0.0000000  1.0000000  0.0000000 )
                  (  0.0000000  0.0000000  1.0000000 )


   Cartesian axes

     site n.     atom                  positions (alat units)
         1           O   tau(   1) = (   0.0000000   0.2911613   0.0000000  )
         2           Cl  tau(   2) = (  -0.0000000   0.2911613   0.6365338  )
         3           Cl  tau(   3) = (   0.2504264  -0.0000000   0.2867819  )
         4           Nb  tau(   4) = (   0.0000000   0.0000000   0.0000000  )

   Crystallographic axes

     site n.     atom                  positions (cryst. coord.)
         1           O   tau(   1) = (  0.5000000  0.0000000  0.5000000  )
         2           Cl  tau(   2) = (  0.8447000  0.3447000  0.5000000  )
         3           Cl  tau(   3) = (  0.1553000  0.6553000  0.5000000  )
         4           Nb  tau(   4) = (  0.0000000  0.0000000  0.0000000  )

     number of k points=   428  Methfessel-Paxton smearing, width (Ry)=  0.0030
                       cart. coord. in units 2pi/alat
        k(    1) = (   0.0000000   0.0000000   0.0000000), wk =   0.0007289
        k(    2) = (   0.1426139   0.1226615   0.0000000), wk =   0.0029155
        k(    3) = (   0.2852278   0.2453230   0.0000000), wk =   0.0029155
        k(    4) = (   0.4278416   0.3679846   0.0000000), wk =   0.0029155
        k(    5) = (   0.5704555   0.4906461   0.0000000), wk =   0.0029155
        k(    6) = (   0.7130694   0.6133076   0.0000000), wk =   0.0029155
        k(    7) = (   0.8556833   0.7359691   0.0000000), wk =   0.0029155
        k(    8) = (  -0.9982971  -0.8586307   0.0000000), wk =   0.0014577
        k(    9) = (   0.1426139   0.0000000   0.0386805), wk =   0.0029155
        k(   10) = (   0.2852278   0.1226615   0.0386805), wk =   0.0058309
        k(   11) = (   0.4278416   0.2453230   0.0386805), wk =   0.0058309
        k(   12) = (   0.5704555   0.3679846   0.0386805), wk =   0.0058309
        k(   13) = (   0.7130694   0.4906461   0.0386805), wk =   0.0058309
        k(   14) = (   0.8556833   0.6133076   0.0386805), wk =   0.0058309
        k(   15) = (   0.9982971   0.7359691   0.0386805), wk =   0.0058309
        k(   16) = (  -0.8556833  -0.8586307   0.0386805), wk =   0.0058309
        k(   17) = (  -0.7130694  -0.7359691   0.0386805), wk =   0.0058309
        k(   18) = (  -0.5704555  -0.6133076   0.0386805), wk =   0.0058309
        k(   19) = (  -0.4278416  -0.4906461   0.0386805), wk =   0.0058309
        k(   20) = (  -0.2852278  -0.3679846   0.0386805), wk =   0.0058309
        k(   21) = (  -0.1426139  -0.2453230   0.0386805), wk =   0.0058309
        k(   22) = (   0.0000000  -0.1226615   0.0386805), wk =   0.0029155
        k(   23) = (   0.2852278   0.0000000   0.0773609), wk =   0.0029155
        k(   24) = (   0.4278416   0.1226615   0.0773609), wk =   0.0058309
        k(   25) = (   0.5704555   0.2453230   0.0773609), wk =   0.0058309
        k(   26) = (   0.7130694   0.3679846   0.0773609), wk =   0.0058309
        k(   27) = (   0.8556833   0.4906461   0.0773609), wk =   0.0058309
        k(   28) = (   0.9982971   0.6133076   0.0773609), wk =   0.0058309
        k(   29) = (   1.1409110   0.7359691   0.0773609), wk =   0.0058309
        k(   30) = (  -0.7130694  -0.8586307   0.0773609), wk =   0.0058309
        k(   31) = (  -0.5704555  -0.7359691   0.0773609), wk =   0.0058309
        k(   32) = (  -0.4278416  -0.6133076   0.0773609), wk =   0.0058309
        k(   33) = (  -0.2852278  -0.4906461   0.0773609), wk =   0.0058309
        k(   34) = (  -0.1426139  -0.3679846   0.0773609), wk =   0.0058309
        k(   35) = (  -0.0000000  -0.2453230   0.0773609), wk =   0.0029155
        k(   36) = (   0.1426139  -0.1226615   0.0773609), wk =   0.0058309
        k(   37) = (   0.4278416   0.0000000   0.1160414), wk =   0.0029155
        k(   38) = (   0.5704555   0.1226615   0.1160414), wk =   0.0058309
        k(   39) = (   0.7130694   0.2453230   0.1160414), wk =   0.0058309
        k(   40) = (   0.8556833   0.3679846   0.1160414), wk =   0.0058309
        k(   41) = (   0.9982971   0.4906461   0.1160414), wk =   0.0058309
        k(   42) = (   1.1409110   0.6133076   0.1160414), wk =   0.0058309
        k(   43) = (   1.2835249   0.7359691   0.1160414), wk =   0.0058309
        k(   44) = (  -0.5704555  -0.8586307   0.1160414), wk =   0.0058309
        k(   45) = (  -0.4278416  -0.7359691   0.1160414), wk =   0.0058309
        k(   46) = (  -0.2852278  -0.6133076   0.1160414), wk =   0.0058309
        k(   47) = (  -0.1426139  -0.4906461   0.1160414), wk =   0.0058309
        k(   48) = (  -0.0000000  -0.3679846   0.1160414), wk =   0.0029155
        k(   49) = (   0.1426139  -0.2453230   0.1160414), wk =   0.0058309
        k(   50) = (   0.2852278  -0.1226615   0.1160414), wk =   0.0058309
        k(   51) = (   0.5704555   0.0000000   0.1547219), wk =   0.0029155
        k(   52) = (   0.7130694   0.1226615   0.1547219), wk =   0.0058309
        k(   53) = (   0.8556833   0.2453230   0.1547219), wk =   0.0058309
        k(   54) = (   0.9982971   0.3679846   0.1547219), wk =   0.0058309
        k(   55) = (   1.1409110   0.4906461   0.1547219), wk =   0.0058309
        k(   56) = (   1.2835249   0.6133076   0.1547219), wk =   0.0058309
        k(   57) = (   1.4261388   0.7359691   0.1547219), wk =   0.0058309
        k(   58) = (  -0.4278416  -0.8586307   0.1547219), wk =   0.0058309
        k(   59) = (  -0.2852278  -0.7359691   0.1547219), wk =   0.0058309
        k(   60) = (  -0.1426139  -0.6133076   0.1547219), wk =   0.0058309
        k(   61) = (   0.0000000  -0.4906461   0.1547219), wk =   0.0029155
        k(   62) = (   0.1426139  -0.3679846   0.1547219), wk =   0.0058309
        k(   63) = (   0.2852278  -0.2453230   0.1547219), wk =   0.0058309
        k(   64) = (   0.4278416  -0.1226615   0.1547219), wk =   0.0058309
        k(   65) = (   0.7130694   0.0000000   0.1934024), wk =   0.0029155
        k(   66) = (   0.8556833   0.1226615   0.1934024), wk =   0.0058309
        k(   67) = (   0.9982971   0.2453230   0.1934024), wk =   0.0058309
        k(   68) = (   1.1409110   0.3679846   0.1934024), wk =   0.0058309
        k(   69) = (   1.2835249   0.4906461   0.1934024), wk =   0.0058309
        k(   70) = (   1.4261388   0.6133076   0.1934024), wk =   0.0058309
        k(   71) = (   1.5687527   0.7359691   0.1934024), wk =   0.0058309
        k(   72) = (  -0.2852278  -0.8586307   0.1934024), wk =   0.0058309
        k(   73) = (  -0.1426139  -0.7359691   0.1934024), wk =   0.0058309
        k(   74) = (   0.0000000  -0.6133076   0.1934024), wk =   0.0029155
        k(   75) = (   0.1426139  -0.4906461   0.1934024), wk =   0.0058309
        k(   76) = (   0.2852278  -0.3679846   0.1934024), wk =   0.0058309
        k(   77) = (   0.4278416  -0.2453230   0.1934024), wk =   0.0058309
        k(   78) = (   0.5704555  -0.1226615   0.1934024), wk =   0.0058309
        k(   79) = (   0.8556833   0.0000000   0.2320828), wk =   0.0029155
        k(   80) = (   0.9982971   0.1226615   0.2320828), wk =   0.0058309
        k(   81) = (   1.1409110   0.2453230   0.2320828), wk =   0.0058309
        k(   82) = (   1.2835249   0.3679846   0.2320828), wk =   0.0058309
        k(   83) = (   1.4261388   0.4906461   0.2320828), wk =   0.0058309
        k(   84) = (   1.5687527   0.6133076   0.2320828), wk =   0.0058309
        k(   85) = (   1.7113665   0.7359691   0.2320828), wk =   0.0058309
        k(   86) = (  -0.1426139  -0.8586307   0.2320828), wk =   0.0058309
        k(   87) = (  -0.0000000  -0.7359691   0.2320828), wk =   0.0029155
        k(   88) = (   0.1426139  -0.6133076   0.2320828), wk =   0.0058309
        k(   89) = (   0.2852278  -0.4906461   0.2320828), wk =   0.0058309
        k(   90) = (   0.4278416  -0.3679846   0.2320828), wk =   0.0058309
        k(   91) = (   0.5704555  -0.2453230   0.2320828), wk =   0.0058309
        k(   92) = (   0.7130694  -0.1226615   0.2320828), wk =   0.0058309
        k(   93) = (  -0.9982971   0.0000000  -0.2707633), wk =   0.0014577
        k(   94) = (  -0.8556833   0.1226615  -0.2707633), wk =   0.0058309
        k(   95) = (  -0.7130694   0.2453230  -0.2707633), wk =   0.0058309
        k(   96) = (  -0.5704555   0.3679846  -0.2707633), wk =   0.0058309
        k(   97) = (  -0.4278416   0.4906461  -0.2707633), wk =   0.0058309
        k(   98) = (  -0.2852278   0.6133076  -0.2707633), wk =   0.0058309
        k(   99) = (  -0.1426139   0.7359691  -0.2707633), wk =   0.0058309
        k(  100) = (  -1.9965943  -0.8586307  -0.2707633), wk =   0.0014577
        k(  101) = (   0.2852278   0.2453230   0.0773609), wk =   0.0058309
        k(  102) = (   0.4278416   0.3679846   0.0773609), wk =   0.0058309
        k(  103) = (   0.5704555   0.4906461   0.0773609), wk =   0.0058309
        k(  104) = (   0.7130694   0.6133076   0.0773609), wk =   0.0058309
        k(  105) = (   0.8556833   0.7359691   0.0773609), wk =   0.0058309
        k(  106) = (   0.9982971   0.8586307   0.0773609), wk =   0.0029155
        k(  107) = (   0.0000000   0.0000000   0.0773609), wk =   0.0014577
        k(  108) = (   0.4278416   0.2453230   0.1160414), wk =   0.0058309
        k(  109) = (   0.5704555   0.3679846   0.1160414), wk =   0.0058309
        k(  110) = (   0.7130694   0.4906461   0.1160414), wk =   0.0058309
        k(  111) = (   0.8556833   0.6133076   0.1160414), wk =   0.0058309
        k(  112) = (   0.9982971   0.7359691   0.1160414), wk =   0.0058309
        k(  113) = (   1.1409110   0.8586307   0.1160414), wk =   0.0058309
        k(  114) = (  -0.7130694  -0.7359691   0.1160414), wk =   0.0058309
        k(  115) = (  -0.5704555  -0.6133076   0.1160414), wk =   0.0058309
        k(  116) = (  -0.4278416  -0.4906461   0.1160414), wk =   0.0058309
        k(  117) = (  -0.2852278  -0.3679846   0.1160414), wk =   0.0058309
        k(  118) = (  -0.0000000  -0.1226615   0.1160414), wk =   0.0029155
        k(  119) = (   0.1426139   0.0000000   0.1160414), wk =   0.0029155
        k(  120) = (   0.5704555   0.2453230   0.1547219), wk =   0.0058309
        k(  121) = (   0.7130694   0.3679846   0.1547219), wk =   0.0058309
        k(  122) = (   0.8556833   0.4906461   0.1547219), wk =   0.0058309
        k(  123) = (   0.9982971   0.6133076   0.1547219), wk =   0.0058309
        k(  124) = (   1.1409110   0.7359691   0.1547219), wk =   0.0058309
        k(  125) = (   1.2835249   0.8586307   0.1547219), wk =   0.0058309
        k(  126) = (  -0.5704555  -0.7359691   0.1547219), wk =   0.0058309
        k(  127) = (  -0.4278416  -0.6133076   0.1547219), wk =   0.0058309
        k(  128) = (  -0.2852278  -0.4906461   0.1547219), wk =   0.0058309
        k(  129) = (  -0.0000000  -0.2453230   0.1547219), wk =   0.0029155
        k(  130) = (   0.1426139  -0.1226615   0.1547219), wk =   0.0058309
        k(  131) = (   0.2852278   0.0000000   0.1547219), wk =   0.0029155
        k(  132) = (   0.7130694   0.2453230   0.1934024), wk =   0.0058309
        k(  133) = (   0.8556833   0.3679846   0.1934024), wk =   0.0058309
        k(  134) = (   0.9982971   0.4906461   0.1934024), wk =   0.0058309
        k(  135) = (   1.1409110   0.6133076   0.1934024), wk =   0.0058309
        k(  136) = (   1.2835249   0.7359691   0.1934024), wk =   0.0058309
        k(  137) = (   1.4261388   0.8586307   0.1934024), wk =   0.0058309
        k(  138) = (  -0.4278416  -0.7359691   0.1934024), wk =   0.0058309
        k(  139) = (  -0.2852278  -0.6133076   0.1934024), wk =   0.0058309
        k(  140) = (   0.0000000  -0.3679846   0.1934024), wk =   0.0029155
        k(  141) = (   0.1426139  -0.2453230   0.1934024), wk =   0.0058309
        k(  142) = (   0.2852278  -0.1226615   0.1934024), wk =   0.0058309
        k(  143) = (   0.4278416   0.0000000   0.1934024), wk =   0.0029155
        k(  144) = (   0.8556833   0.2453230   0.2320828), wk =   0.0058309
        k(  145) = (   0.9982971   0.3679846   0.2320828), wk =   0.0058309
        k(  146) = (   1.1409110   0.4906461   0.2320828), wk =   0.0058309
        k(  147) = (   1.2835249   0.6133076   0.2320828), wk =   0.0058309
        k(  148) = (   1.4261388   0.7359691   0.2320828), wk =   0.0058309
        k(  149) = (   1.5687527   0.8586307   0.2320828), wk =   0.0058309
        k(  150) = (  -0.2852278  -0.7359691   0.2320828), wk =   0.0058309
        k(  151) = (   0.0000000  -0.4906461   0.2320828), wk =   0.0029155
        k(  152) = (   0.1426139  -0.3679846   0.2320828), wk =   0.0058309
        k(  153) = (   0.2852278  -0.2453230   0.2320828), wk =   0.0058309
        k(  154) = (   0.4278416  -0.1226615   0.2320828), wk =   0.0058309
        k(  155) = (   0.5704555   0.0000000   0.2320828), wk =   0.0029155
        k(  156) = (   0.9982971   0.2453230   0.2707633), wk =   0.0029155
        k(  157) = (   1.1409110   0.3679846   0.2707633), wk =   0.0058309
        k(  158) = (   1.2835249   0.4906461   0.2707633), wk =   0.0058309
        k(  159) = (   1.4261388   0.6133076   0.2707633), wk =   0.0058309
        k(  160) = (   1.5687527   0.7359691   0.2707633), wk =   0.0058309
        k(  161) = (   1.7113665   0.8586307   0.2707633), wk =   0.0029155
        k(  162) = (  -0.0000000  -0.6133076   0.2707633), wk =   0.0029155
        k(  163) = (   0.1426139  -0.4906461   0.2707633), wk =   0.0058309
        k(  164) = (   0.2852278  -0.3679846   0.2707633), wk =   0.0058309
        k(  165) = (   0.4278416  -0.2453230   0.2707633), wk =   0.0058309
        k(  166) = (   0.5704555  -0.1226615   0.2707633), wk =   0.0058309
        k(  167) = (   0.7130694   0.0000000   0.2707633), wk =   0.0029155
        k(  168) = (  -0.7130694   0.3679846  -0.2320828), wk =   0.0058309
        k(  169) = (  -0.5704555   0.4906461  -0.2320828), wk =   0.0058309
        k(  170) = (  -0.4278416   0.6133076  -0.2320828), wk =   0.0058309
        k(  171) = (  -1.9965943  -0.7359691  -0.2320828), wk =   0.0029155
        k(  172) = (  -1.8539804  -0.6133076  -0.2320828), wk =   0.0058309
        k(  173) = (  -1.7113665  -0.4906461  -0.2320828), wk =   0.0058309
        k(  174) = (  -1.5687527  -0.3679846  -0.2320828), wk =   0.0058309
        k(  175) = (  -1.4261388  -0.2453230  -0.2320828), wk =   0.0058309
        k(  176) = (  -1.2835249  -0.1226615  -0.2320828), wk =   0.0058309
        k(  177) = (  -1.1409110   0.0000000  -0.2320828), wk =   0.0029155
        k(  178) = (  -0.5704555   0.3679846  -0.1934024), wk =   0.0058309
        k(  179) = (  -0.4278416   0.4906461  -0.1934024), wk =   0.0058309
        k(  180) = (  -0.0000000   0.8586307  -0.1934024), wk =   0.0029155
        k(  181) = (  -1.8539804  -0.7359691  -0.1934024), wk =   0.0058309
        k(  182) = (  -1.7113665  -0.6133076  -0.1934024), wk =   0.0058309
        k(  183) = (  -1.5687527  -0.4906461  -0.1934024), wk =   0.0058309
        k(  184) = (  -1.4261388  -0.3679846  -0.1934024), wk =   0.0058309
        k(  185) = (  -1.2835249  -0.2453230  -0.1934024), wk =   0.0058309
        k(  186) = (  -1.1409110  -0.1226615  -0.1934024), wk =   0.0058309
        k(  187) = (  -0.9982971   0.0000000  -0.1934024), wk =   0.0029155
        k(  188) = (  -0.4278416   0.3679846  -0.1547219), wk =   0.0058309
        k(  189) = (   0.0000000   0.7359691  -0.1547219), wk =   0.0029155
        k(  190) = (   0.1426139   0.8586307  -0.1547219), wk =   0.0058309
        k(  191) = (  -1.7113665  -0.7359691  -0.1547219), wk =   0.0058309
        k(  192) = (  -1.5687527  -0.6133076  -0.1547219), wk =   0.0058309
        k(  193) = (  -1.4261388  -0.4906461  -0.1547219), wk =   0.0058309
        k(  194) = (  -1.2835249  -0.3679846  -0.1547219), wk =   0.0058309
        k(  195) = (  -1.1409110  -0.2453230  -0.1547219), wk =   0.0058309
        k(  196) = (  -0.9982971  -0.1226615  -0.1547219), wk =   0.0058309
        k(  197) = (  -0.8556833   0.0000000  -0.1547219), wk =   0.0029155
        k(  198) = (   0.0000000   0.6133076  -0.1160414), wk =   0.0029155
        k(  199) = (   0.1426139   0.7359691  -0.1160414), wk =   0.0058309
        k(  200) = (   0.2852278   0.8586307  -0.1160414), wk =   0.0058309
        k(  201) = (  -1.5687527  -0.7359691  -0.1160414), wk =   0.0058309
        k(  202) = (  -1.4261388  -0.6133076  -0.1160414), wk =   0.0058309
        k(  203) = (  -1.2835249  -0.4906461  -0.1160414), wk =   0.0058309
        k(  204) = (  -1.1409110  -0.3679846  -0.1160414), wk =   0.0058309
        k(  205) = (  -0.9982971  -0.2453230  -0.1160414), wk =   0.0058309
        k(  206) = (  -0.8556833  -0.1226615  -0.1160414), wk =   0.0058309
        k(  207) = (  -0.7130694   0.0000000  -0.1160414), wk =   0.0029155
        k(  208) = (  -0.0000000   0.4906461  -0.0773609), wk =   0.0029155
        k(  209) = (   0.1426139   0.6133076  -0.0773609), wk =   0.0058309
        k(  210) = (   0.2852278   0.7359691  -0.0773609), wk =   0.0058309
        k(  211) = (   0.4278416   0.8586307  -0.0773609), wk =   0.0058309
        k(  212) = (  -1.4261388  -0.7359691  -0.0773609), wk =   0.0058309
        k(  213) = (  -1.2835249  -0.6133076  -0.0773609), wk =   0.0058309
        k(  214) = (  -1.1409110  -0.4906461  -0.0773609), wk =   0.0058309
        k(  215) = (  -0.9982971  -0.3679846  -0.0773609), wk =   0.0058309
        k(  216) = (  -0.8556833  -0.2453230  -0.0773609), wk =   0.0058309
        k(  217) = (  -0.7130694  -0.1226615  -0.0773609), wk =   0.0058309
        k(  218) = (  -0.5704555   0.0000000  -0.0773609), wk =   0.0029155
        k(  219) = (  -0.0000000   0.3679846  -0.0386805), wk =   0.0029155
        k(  220) = (   0.1426139   0.4906461  -0.0386805), wk =   0.0058309
        k(  221) = (   0.2852278   0.6133076  -0.0386805), wk =   0.0058309
        k(  222) = (   0.4278416   0.7359691  -0.0386805), wk =   0.0058309
        k(  223) = (   0.5704555   0.8586307  -0.0386805), wk =   0.0058309
        k(  224) = (  -1.2835249  -0.7359691  -0.0386805), wk =   0.0058309
        k(  225) = (  -1.1409110  -0.6133076  -0.0386805), wk =   0.0058309
        k(  226) = (  -0.9982971  -0.4906461  -0.0386805), wk =   0.0058309
        k(  227) = (  -0.8556833  -0.3679846  -0.0386805), wk =   0.0058309
        k(  228) = (  -0.7130694  -0.2453230  -0.0386805), wk =   0.0058309
        k(  229) = (  -0.5704555  -0.1226615  -0.0386805), wk =   0.0058309
        k(  230) = (  -0.4278416   0.0000000  -0.0386805), wk =   0.0029155
        k(  231) = (   0.0000000   0.2453230   0.0000000), wk =   0.0014577
        k(  232) = (   0.1426139   0.3679846   0.0000000), wk =   0.0029155
        k(  233) = (   0.2852278   0.4906461   0.0000000), wk =   0.0029155
        k(  234) = (   0.4278416   0.6133076   0.0000000), wk =   0.0029155
        k(  235) = (   0.5704555   0.7359691   0.0000000), wk =   0.0029155
        k(  236) = (   0.7130694   0.8586307   0.0000000), wk =   0.0029155
        k(  237) = (  -1.1409110  -0.7359691   0.0000000), wk =   0.0029155
        k(  238) = (  -0.9982971  -0.6133076   0.0000000), wk =   0.0029155
        k(  239) = (  -0.8556833  -0.4906461   0.0000000), wk =   0.0029155
        k(  240) = (  -0.7130694  -0.3679846   0.0000000), wk =   0.0029155
        k(  241) = (  -0.5704555  -0.2453230   0.0000000), wk =   0.0029155
        k(  242) = (  -0.4278416  -0.1226615   0.0000000), wk =   0.0029155
        k(  243) = (  -0.2852278   0.0000000   0.0000000), wk =   0.0014577
        k(  244) = (   0.5704555   0.4906461   0.1547219), wk =   0.0058309
        k(  245) = (   0.7130694   0.6133076   0.1547219), wk =   0.0058309
        k(  246) = (   0.8556833   0.7359691   0.1547219), wk =   0.0058309
        k(  247) = (   0.9982971   0.8586307   0.1547219), wk =   0.0029155
        k(  248) = (  -0.0000000  -0.0000000   0.1547219), wk =   0.0014577
        k(  249) = (   0.7130694   0.4906461   0.1934024), wk =   0.0058309
        k(  250) = (   0.8556833   0.6133076   0.1934024), wk =   0.0058309
        k(  251) = (   0.9982971   0.7359691   0.1934024), wk =   0.0058309
        k(  252) = (   1.1409110   0.8586307   0.1934024), wk =   0.0058309
        k(  253) = (   1.2835249   0.9812922   0.1934024), wk =   0.0058309
        k(  254) = (  -0.5704555  -0.6133076   0.1934024), wk =   0.0058309
        k(  255) = (  -0.0000000  -0.1226615   0.1934024), wk =   0.0029155
        k(  256) = (   0.1426139  -0.0000000   0.1934024), wk =   0.0029155
        k(  257) = (   0.8556833   0.4906461   0.2320828), wk =   0.0058309
        k(  258) = (   0.9982971   0.6133076   0.2320828), wk =   0.0058309
        k(  259) = (   1.1409110   0.7359691   0.2320828), wk =   0.0058309
        k(  260) = (   1.2835249   0.8586307   0.2320828), wk =   0.0058309
        k(  261) = (   1.4261388   0.9812922   0.2320828), wk =   0.0058309
        k(  262) = (   0.0000000  -0.2453230   0.2320828), wk =   0.0029155
        k(  263) = (   0.1426139  -0.1226615   0.2320828), wk =   0.0058309
        k(  264) = (   0.2852278  -0.0000000   0.2320828), wk =   0.0029155
        k(  265) = (   0.9982971   0.4906461   0.2707633), wk =   0.0029155
        k(  266) = (   1.1409110   0.6133076   0.2707633), wk =   0.0058309
        k(  267) = (   1.2835249   0.7359691   0.2707633), wk =   0.0058309
        k(  268) = (   1.4261388   0.8586307   0.2707633), wk =   0.0029155
        k(  269) = (   0.0000000  -0.3679846   0.2707633), wk =   0.0029155
        k(  270) = (   0.1426139  -0.2453230   0.2707633), wk =   0.0058309
        k(  271) = (   0.2852278  -0.1226615   0.2707633), wk =   0.0058309
        k(  272) = (   0.4278416  -0.0000000   0.2707633), wk =   0.0029155
        k(  273) = (   1.2835249   0.6133076   0.3094438), wk =   0.0058309
        k(  274) = (  -0.0000000  -0.4906461   0.3094438), wk =   0.0029155
        k(  275) = (   0.1426139  -0.3679846   0.3094438), wk =   0.0058309
        k(  276) = (   0.2852278  -0.2453230   0.3094438), wk =   0.0058309
        k(  277) = (   0.4278416  -0.1226615   0.3094438), wk =   0.0058309
        k(  278) = (   0.5704555  -0.0000000   0.3094438), wk =   0.0029155
        k(  279) = (  -1.9965943  -0.6133076  -0.1934024), wk =   0.0029155
        k(  280) = (  -1.8539804  -0.4906461  -0.1934024), wk =   0.0058309
        k(  281) = (  -1.7113665  -0.3679846  -0.1934024), wk =   0.0058309
        k(  282) = (  -1.5687527  -0.2453230  -0.1934024), wk =   0.0058309
        k(  283) = (  -1.4261388  -0.1226615  -0.1934024), wk =   0.0058309
        k(  284) = (  -1.2835249  -0.0000000  -0.1934024), wk =   0.0029155
        k(  285) = (  -0.0000000   0.9812922  -0.1547219), wk =   0.0029155
        k(  286) = (  -1.8539804  -0.6133076  -0.1547219), wk =   0.0058309
        k(  287) = (  -1.7113665  -0.4906461  -0.1547219), wk =   0.0058309
        k(  288) = (  -1.5687527  -0.3679846  -0.1547219), wk =   0.0058309
        k(  289) = (  -1.4261388  -0.2453230  -0.1547219), wk =   0.0058309
        k(  290) = (  -1.2835249  -0.1226615  -0.1547219), wk =   0.0058309
        k(  291) = (  -1.1409110  -0.0000000  -0.1547219), wk =   0.0029155
        k(  292) = (   0.0000000   0.8586307  -0.1160414), wk =   0.0029155
        k(  293) = (   0.1426139   0.9812922  -0.1160414), wk =   0.0058309
        k(  294) = (  -1.7113665  -0.6133076  -0.1160414), wk =   0.0058309
        k(  295) = (  -1.5687527  -0.4906461  -0.1160414), wk =   0.0058309
        k(  296) = (  -1.4261388  -0.3679846  -0.1160414), wk =   0.0058309
        k(  297) = (  -1.2835249  -0.2453230  -0.1160414), wk =   0.0058309
        k(  298) = (  -1.1409110  -0.1226615  -0.1160414), wk =   0.0058309
        k(  299) = (  -0.9982971  -0.0000000  -0.1160414), wk =   0.0029155
        k(  300) = (   0.0000000   0.7359691  -0.0773609), wk =   0.0029155
        k(  301) = (   0.1426139   0.8586307  -0.0773609), wk =   0.0058309
        k(  302) = (   0.2852278   0.9812922  -0.0773609), wk =   0.0058309
        k(  303) = (  -1.5687527  -0.6133076  -0.0773609), wk =   0.0058309
        k(  304) = (  -1.4261388  -0.4906461  -0.0773609), wk =   0.0058309
        k(  305) = (  -1.2835249  -0.3679846  -0.0773609), wk =   0.0058309
        k(  306) = (  -1.1409110  -0.2453230  -0.0773609), wk =   0.0058309
        k(  307) = (  -0.9982971  -0.1226615  -0.0773609), wk =   0.0058309
        k(  308) = (  -0.8556833  -0.0000000  -0.0773609), wk =   0.0029155
        k(  309) = (  -0.0000000   0.6133076  -0.0386805), wk =   0.0029155
        k(  310) = (   0.1426139   0.7359691  -0.0386805), wk =   0.0058309
        k(  311) = (   0.2852278   0.8586307  -0.0386805), wk =   0.0058309
        k(  312) = (   0.4278416   0.9812922  -0.0386805), wk =   0.0058309
        k(  313) = (  -1.4261388  -0.6133076  -0.0386805), wk =   0.0058309
        k(  314) = (  -1.2835249  -0.4906461  -0.0386805), wk =   0.0058309
        k(  315) = (  -1.1409110  -0.3679846  -0.0386805), wk =   0.0058309
        k(  316) = (  -0.9982971  -0.2453230  -0.0386805), wk =   0.0058309
        k(  317) = (  -0.8556833  -0.1226615  -0.0386805), wk =   0.0058309
        k(  318) = (  -0.7130694  -0.0000000  -0.0386805), wk =   0.0029155
        k(  319) = (  -0.0000000   0.4906461  -0.0000000), wk =   0.0014577
        k(  320) = (   0.1426139   0.6133076  -0.0000000), wk =   0.0029155
        k(  321) = (   0.2852278   0.7359691  -0.0000000), wk =   0.0029155
        k(  322) = (   0.4278416   0.8586307  -0.0000000), wk =   0.0029155
        k(  323) = (   0.5704555   0.9812922  -0.0000000), wk =   0.0029155
        k(  324) = (  -1.2835249  -0.6133076  -0.0000000), wk =   0.0029155
        k(  325) = (  -1.1409110  -0.4906461  -0.0000000), wk =   0.0029155
        k(  326) = (  -0.9982971  -0.3679846  -0.0000000), wk =   0.0029155
        k(  327) = (  -0.8556833  -0.2453230  -0.0000000), wk =   0.0029155
        k(  328) = (  -0.7130694  -0.1226615  -0.0000000), wk =   0.0029155
        k(  329) = (  -0.5704555  -0.0000000  -0.0000000), wk =   0.0014577
        k(  330) = (   0.8556833   0.7359691   0.2320828), wk =   0.0058309
        k(  331) = (   0.9982971   0.8586307   0.2320828), wk =   0.0029155
        k(  332) = (  -0.0000000   0.0000000   0.2320828), wk =   0.0014577
        k(  333) = (   0.9982971   0.7359691   0.2707633), wk =   0.0029155
        k(  334) = (   1.1409110   0.8586307   0.2707633), wk =   0.0029155
        k(  335) = (   0.0000000  -0.1226615   0.2707633), wk =   0.0029155
        k(  336) = (   0.1426139   0.0000000   0.2707633), wk =   0.0029155
        k(  337) = (   0.0000000  -0.2453230   0.3094438), wk =   0.0029155
        k(  338) = (   0.1426139  -0.1226615   0.3094438), wk =   0.0058309
        k(  339) = (   0.2852278   0.0000000   0.3094438), wk =   0.0029155
        k(  340) = (  -0.0000000  -0.3679846   0.3481243), wk =   0.0029155
        k(  341) = (   0.1426139  -0.2453230   0.3481243), wk =   0.0058309
        k(  342) = (   0.2852278  -0.1226615   0.3481243), wk =   0.0058309
        k(  343) = (   0.4278416   0.0000000   0.3481243), wk =   0.0029155
        k(  344) = (  -1.9965943  -0.4906461  -0.1547219), wk =   0.0029155
        k(  345) = (  -1.8539804  -0.3679846  -0.1547219), wk =   0.0058309
        k(  346) = (  -1.7113665  -0.2453230  -0.1547219), wk =   0.0058309
        k(  347) = (  -1.5687527  -0.1226615  -0.1547219), wk =   0.0058309
        k(  348) = (  -1.4261388   0.0000000  -0.1547219), wk =   0.0029155
        k(  349) = (  -0.0000000   1.1039537  -0.1160414), wk =   0.0029155
        k(  350) = (  -1.8539804  -0.4906461  -0.1160414), wk =   0.0058309
        k(  351) = (  -1.7113665  -0.3679846  -0.1160414), wk =   0.0058309
        k(  352) = (  -1.5687527  -0.2453230  -0.1160414), wk =   0.0058309
        k(  353) = (  -1.4261388  -0.1226615  -0.1160414), wk =   0.0058309
        k(  354) = (  -1.2835249   0.0000000  -0.1160414), wk =   0.0029155
        k(  355) = (   0.0000000   0.9812922  -0.0773609), wk =   0.0029155
        k(  356) = (   0.1426139   1.1039537  -0.0773609), wk =   0.0058309
        k(  357) = (  -1.7113665  -0.4906461  -0.0773609), wk =   0.0058309
        k(  358) = (  -1.5687527  -0.3679846  -0.0773609), wk =   0.0058309
        k(  359) = (  -1.4261388  -0.2453230  -0.0773609), wk =   0.0058309
        k(  360) = (  -1.2835249  -0.1226615  -0.0773609), wk =   0.0058309
        k(  361) = (  -1.1409110   0.0000000  -0.0773609), wk =   0.0029155
        k(  362) = (   0.0000000   0.8586307  -0.0386805), wk =   0.0029155
        k(  363) = (   0.1426139   0.9812922  -0.0386805), wk =   0.0058309
        k(  364) = (   0.2852278   1.1039537  -0.0386805), wk =   0.0058309
        k(  365) = (  -1.5687527  -0.4906461  -0.0386805), wk =   0.0058309
        k(  366) = (  -1.4261388  -0.3679846  -0.0386805), wk =   0.0058309
        k(  367) = (  -1.2835249  -0.2453230  -0.0386805), wk =   0.0058309
        k(  368) = (  -1.1409110  -0.1226615  -0.0386805), wk =   0.0058309
        k(  369) = (  -0.9982971   0.0000000  -0.0386805), wk =   0.0029155
        k(  370) = (  -0.0000000   0.7359691  -0.0000000), wk =   0.0014577
        k(  371) = (   0.1426139   0.8586307  -0.0000000), wk =   0.0029155
        k(  372) = (   0.2852278   0.9812922  -0.0000000), wk =   0.0029155
        k(  373) = (   0.4278416   1.1039537  -0.0000000), wk =   0.0029155
        k(  374) = (  -1.4261388  -0.4906461  -0.0000000), wk =   0.0029155
        k(  375) = (  -1.2835249  -0.3679846  -0.0000000), wk =   0.0029155
        k(  376) = (  -1.1409110  -0.2453230  -0.0000000), wk =   0.0029155
        k(  377) = (  -0.9982971  -0.1226615  -0.0000000), wk =   0.0029155
        k(  378) = (  -0.8556833   0.0000000  -0.0000000), wk =   0.0014577
        k(  379) = (   0.0000000   0.0000000   0.3094438), wk =   0.0014577
        k(  380) = (   0.0000000  -0.1226615   0.3481243), wk =   0.0029155
        k(  381) = (   0.1426139   0.0000000   0.3481243), wk =   0.0029155
        k(  382) = (  -0.0000000  -0.2453230   0.3868047), wk =   0.0029155
        k(  383) = (   0.1426139  -0.1226615   0.3868047), wk =   0.0058309
        k(  384) = (   0.2852278   0.0000000   0.3868047), wk =   0.0029155
        k(  385) = (  -1.9965943  -0.3679846  -0.1160414), wk =   0.0029155
        k(  386) = (  -1.8539804  -0.2453230  -0.1160414), wk =   0.0058309
        k(  387) = (  -1.7113665  -0.1226615  -0.1160414), wk =   0.0058309
        k(  388) = (  -1.5687527   0.0000000  -0.1160414), wk =   0.0029155
        k(  389) = (  -0.0000000   1.2266152  -0.0773609), wk =   0.0029155
        k(  390) = (  -1.8539804  -0.3679846  -0.0773609), wk =   0.0058309
        k(  391) = (  -1.7113665  -0.2453230  -0.0773609), wk =   0.0058309
        k(  392) = (  -1.5687527  -0.1226615  -0.0773609), wk =   0.0058309
        k(  393) = (  -1.4261388   0.0000000  -0.0773609), wk =   0.0029155
        k(  394) = (   0.0000000   1.1039537  -0.0386805), wk =   0.0029155
        k(  395) = (   0.1426139   1.2266152  -0.0386805), wk =   0.0058309
        k(  396) = (  -1.7113665  -0.3679846  -0.0386805), wk =   0.0058309
        k(  397) = (  -1.5687527  -0.2453230  -0.0386805), wk =   0.0058309
        k(  398) = (  -1.4261388  -0.1226615  -0.0386805), wk =   0.0058309
        k(  399) = (  -1.2835249   0.0000000  -0.0386805), wk =   0.0029155
        k(  400) = (   0.0000000   0.9812922   0.0000000), wk =   0.0014577
        k(  401) = (   0.1426139   1.1039537   0.0000000), wk =   0.0029155
        k(  402) = (   0.2852278   1.2266152   0.0000000), wk =   0.0029155
        k(  403) = (  -1.5687527  -0.3679846   0.0000000), wk =   0.0029155
        k(  404) = (  -1.4261388  -0.2453230   0.0000000), wk =   0.0029155
        k(  405) = (  -1.2835249  -0.1226615   0.0000000), wk =   0.0029155
        k(  406) = (  -1.1409110   0.0000000   0.0000000), wk =   0.0014577
        k(  407) = (   0.0000000   0.0000000   0.3868047), wk =   0.0014577
        k(  408) = (  -0.0000000  -0.1226615   0.4254852), wk =   0.0029155
        k(  409) = (   0.1426139   0.0000000   0.4254852), wk =   0.0029155
        k(  410) = (  -1.9965943  -0.2453230  -0.0773609), wk =   0.0029155
        k(  411) = (  -1.8539804  -0.1226615  -0.0773609), wk =   0.0058309
        k(  412) = (  -1.7113665   0.0000000  -0.0773609), wk =   0.0029155
        k(  413) = (  -0.0000000   1.3492768  -0.0386805), wk =   0.0029155
        k(  414) = (  -1.8539804  -0.2453230  -0.0386805), wk =   0.0058309
        k(  415) = (  -1.7113665  -0.1226615  -0.0386805), wk =   0.0058309
        k(  416) = (  -1.5687527   0.0000000  -0.0386805), wk =   0.0029155
        k(  417) = (   0.0000000   1.2266152   0.0000000), wk =   0.0014577
        k(  418) = (   0.1426139   1.3492768   0.0000000), wk =   0.0029155
        k(  419) = (  -1.7113665  -0.2453230   0.0000000), wk =   0.0029155
        k(  420) = (  -1.5687527  -0.1226615   0.0000000), wk =   0.0029155
        k(  421) = (  -1.4261388   0.0000000   0.0000000), wk =   0.0014577
        k(  422) = (  -0.0000000   0.0000000   0.4641657), wk =   0.0014577
        k(  423) = (  -1.9965943  -0.1226615  -0.0386805), wk =   0.0029155
        k(  424) = (  -1.8539804   0.0000000  -0.0386805), wk =   0.0029155
        k(  425) = (  -0.0000000   1.4719383  -0.0000000), wk =   0.0014577
        k(  426) = (  -1.8539804  -0.1226615  -0.0000000), wk =   0.0029155
        k(  427) = (  -1.7113665   0.0000000  -0.0000000), wk =   0.0014577
        k(  428) = (  -1.9965943  -1.7172613  -0.5415266), wk =   0.0007289

                       cryst. coord.
        k(    1) = (   0.0000000   0.0000000   0.0000000), wk =   0.0007289
        k(    2) = (  -0.0000000   0.0000000   0.0714286), wk =   0.0029155
        k(    3) = (  -0.0000000   0.0000000   0.1428571), wk =   0.0029155
        k(    4) = (  -0.0000000   0.0000000   0.2142857), wk =   0.0029155
        k(    5) = (  -0.0000000   0.0000000   0.2857143), wk =   0.0029155
        k(    6) = (  -0.0000000   0.0000000   0.3571429), wk =   0.0029155
        k(    7) = (  -0.0000000   0.0000000   0.4285714), wk =   0.0029155
        k(    8) = (   0.0000000   0.0000000  -0.5000000), wk =   0.0014577
        k(    9) = (  -0.0000000   0.0714286   0.0000000), wk =   0.0029155
        k(   10) = (  -0.0000000   0.0714286   0.0714286), wk =   0.0058309
        k(   11) = (  -0.0000000   0.0714286   0.1428571), wk =   0.0058309
        k(   12) = (  -0.0000000   0.0714286   0.2142857), wk =   0.0058309
        k(   13) = (  -0.0000000   0.0714286   0.2857143), wk =   0.0058309
        k(   14) = (  -0.0000000   0.0714286   0.3571429), wk =   0.0058309
        k(   15) = (  -0.0000000   0.0714286   0.4285714), wk =   0.0058309
        k(   16) = (   0.0000000   0.0714286  -0.5000000), wk =   0.0058309
        k(   17) = (   0.0000000   0.0714286  -0.4285714), wk =   0.0058309
        k(   18) = (   0.0000000   0.0714286  -0.3571429), wk =   0.0058309
        k(   19) = (   0.0000000   0.0714286  -0.2857143), wk =   0.0058309
        k(   20) = (   0.0000000   0.0714286  -0.2142857), wk =   0.0058309
        k(   21) = (   0.0000000   0.0714286  -0.1428571), wk =   0.0058309
        k(   22) = (   0.0000000   0.0714286  -0.0714286), wk =   0.0029155
        k(   23) = (  -0.0000000   0.1428571   0.0000000), wk =   0.0029155
        k(   24) = (  -0.0000000   0.1428571   0.0714286), wk =   0.0058309
        k(   25) = (  -0.0000000   0.1428571   0.1428571), wk =   0.0058309
        k(   26) = (  -0.0000000   0.1428571   0.2142857), wk =   0.0058309
        k(   27) = (  -0.0000000   0.1428571   0.2857143), wk =   0.0058309
        k(   28) = (   0.0000000   0.1428571   0.3571429), wk =   0.0058309
        k(   29) = (  -0.0000000   0.1428571   0.4285714), wk =   0.0058309
        k(   30) = (   0.0000000   0.1428571  -0.5000000), wk =   0.0058309
        k(   31) = (   0.0000000   0.1428571  -0.4285714), wk =   0.0058309
        k(   32) = (   0.0000000   0.1428571  -0.3571429), wk =   0.0058309
        k(   33) = (   0.0000000   0.1428571  -0.2857143), wk =   0.0058309
        k(   34) = (   0.0000000   0.1428571  -0.2142857), wk =   0.0058309
        k(   35) = (   0.0000000   0.1428571  -0.1428571), wk =   0.0029155
        k(   36) = (   0.0000000   0.1428571  -0.0714286), wk =   0.0058309
        k(   37) = (  -0.0000000   0.2142857   0.0000000), wk =   0.0029155
        k(   38) = (  -0.0000000   0.2142857   0.0714286), wk =   0.0058309
        k(   39) = (  -0.0000000   0.2142857   0.1428571), wk =   0.0058309
        k(   40) = (  -0.0000000   0.2142857   0.2142857), wk =   0.0058309
        k(   41) = (  -0.0000000   0.2142857   0.2857143), wk =   0.0058309
        k(   42) = (  -0.0000000   0.2142857   0.3571429), wk =   0.0058309
        k(   43) = (   0.0000000   0.2142857   0.4285714), wk =   0.0058309
        k(   44) = (   0.0000000   0.2142857  -0.5000000), wk =   0.0058309
        k(   45) = (   0.0000000   0.2142857  -0.4285714), wk =   0.0058309
        k(   46) = (   0.0000000   0.2142857  -0.3571429), wk =   0.0058309
        k(   47) = (   0.0000000   0.2142857  -0.2857143), wk =   0.0058309
        k(   48) = (   0.0000000   0.2142857  -0.2142857), wk =   0.0029155
        k(   49) = (   0.0000000   0.2142857  -0.1428571), wk =   0.0058309
        k(   50) = (  -0.0000000   0.2142857  -0.0714286), wk =   0.0058309
        k(   51) = (  -0.0000000   0.2857143   0.0000000), wk =   0.0029155
        k(   52) = (  -0.0000000   0.2857143   0.0714286), wk =   0.0058309
        k(   53) = (  -0.0000000   0.2857143   0.1428571), wk =   0.0058309
        k(   54) = (   0.0000000   0.2857143   0.2142857), wk =   0.0058309
        k(   55) = (  -0.0000000   0.2857143   0.2857143), wk =   0.0058309
        k(   56) = (  -0.0000000   0.2857143   0.3571429), wk =   0.0058309
        k(   57) = (  -0.0000000   0.2857143   0.4285714), wk =   0.0058309
        k(   58) = (   0.0000000   0.2857143  -0.5000000), wk =   0.0058309
        k(   59) = (   0.0000000   0.2857143  -0.4285714), wk =   0.0058309
        k(   60) = (   0.0000000   0.2857143  -0.3571429), wk =   0.0058309
        k(   61) = (   0.0000000   0.2857143  -0.2857143), wk =   0.0029155
        k(   62) = (   0.0000000   0.2857143  -0.2142857), wk =   0.0058309
        k(   63) = (   0.0000000   0.2857143  -0.1428571), wk =   0.0058309
        k(   64) = (  -0.0000000   0.2857143  -0.0714286), wk =   0.0058309
        k(   65) = (  -0.0000000   0.3571429   0.0000000), wk =   0.0029155
        k(   66) = (  -0.0000000   0.3571429   0.0714286), wk =   0.0058309
        k(   67) = (   0.0000000   0.3571429   0.1428571), wk =   0.0058309
        k(   68) = (  -0.0000000   0.3571429   0.2142857), wk =   0.0058309
        k(   69) = (  -0.0000000   0.3571429   0.2857143), wk =   0.0058309
        k(   70) = (  -0.0000000   0.3571429   0.3571429), wk =   0.0058309
        k(   71) = (   0.0000000   0.3571429   0.4285714), wk =   0.0058309
        k(   72) = (   0.0000000   0.3571429  -0.5000000), wk =   0.0058309
        k(   73) = (   0.0000000   0.3571429  -0.4285714), wk =   0.0058309
        k(   74) = (   0.0000000   0.3571429  -0.3571429), wk =   0.0029155
        k(   75) = (   0.0000000   0.3571429  -0.2857143), wk =   0.0058309
        k(   76) = (   0.0000000   0.3571429  -0.2142857), wk =   0.0058309
        k(   77) = (  -0.0000000   0.3571429  -0.1428571), wk =   0.0058309
        k(   78) = (  -0.0000000   0.3571429  -0.0714286), wk =   0.0058309
        k(   79) = (  -0.0000000   0.4285714   0.0000000), wk =   0.0029155
        k(   80) = (  -0.0000000   0.4285714   0.0714286), wk =   0.0058309
        k(   81) = (  -0.0000000   0.4285714   0.1428571), wk =   0.0058309
        k(   82) = (   0.0000000   0.4285714   0.2142857), wk =   0.0058309
        k(   83) = (  -0.0000000   0.4285714   0.2857143), wk =   0.0058309
        k(   84) = (   0.0000000   0.4285714   0.3571429), wk =   0.0058309
        k(   85) = (  -0.0000000   0.4285714   0.4285714), wk =   0.0058309
        k(   86) = (   0.0000000   0.4285714  -0.5000000), wk =   0.0058309
        k(   87) = (   0.0000000   0.4285714  -0.4285714), wk =   0.0029155
        k(   88) = (   0.0000000   0.4285714  -0.3571429), wk =   0.0058309
        k(   89) = (   0.0000000   0.4285714  -0.2857143), wk =   0.0058309
        k(   90) = (   0.0000000   0.4285714  -0.2142857), wk =   0.0058309
        k(   91) = (  -0.0000000   0.4285714  -0.1428571), wk =   0.0058309
        k(   92) = (  -0.0000000   0.4285714  -0.0714286), wk =   0.0058309
        k(   93) = (   0.0000000  -0.5000000   0.0000000), wk =   0.0014577
        k(   94) = (   0.0000000  -0.5000000   0.0714286), wk =   0.0058309
        k(   95) = (   0.0000000  -0.5000000   0.1428571), wk =   0.0058309
        k(   96) = (   0.0000000  -0.5000000   0.2142857), wk =   0.0058309
        k(   97) = (   0.0000000  -0.5000000   0.2857143), wk =   0.0058309
        k(   98) = (   0.0000000  -0.5000000   0.3571429), wk =   0.0058309
        k(   99) = (   0.0000000  -0.5000000   0.4285714), wk =   0.0058309
        k(  100) = (   0.0000000  -0.5000000  -0.5000000), wk =   0.0014577
        k(  101) = (   0.0714286   0.0714286   0.0714286), wk =   0.0058309
        k(  102) = (   0.0714286   0.0714286   0.1428571), wk =   0.0058309
        k(  103) = (   0.0714286   0.0714286   0.2142857), wk =   0.0058309
        k(  104) = (   0.0714286   0.0714286   0.2857143), wk =   0.0058309
        k(  105) = (   0.0714286   0.0714286   0.3571429), wk =   0.0058309
        k(  106) = (   0.0714286   0.0714286   0.4285714), wk =   0.0029155
        k(  107) = (   0.0714286   0.0714286  -0.0714286), wk =   0.0014577
        k(  108) = (   0.0714286   0.1428571   0.0714286), wk =   0.0058309
        k(  109) = (   0.0714286   0.1428571   0.1428571), wk =   0.0058309
        k(  110) = (   0.0714286   0.1428571   0.2142857), wk =   0.0058309
        k(  111) = (   0.0714286   0.1428571   0.2857143), wk =   0.0058309
        k(  112) = (   0.0714286   0.1428571   0.3571429), wk =   0.0058309
        k(  113) = (   0.0714286   0.1428571   0.4285714), wk =   0.0058309
        k(  114) = (   0.0714286   0.1428571  -0.5000000), wk =   0.0058309
        k(  115) = (   0.0714286   0.1428571  -0.4285714), wk =   0.0058309
        k(  116) = (   0.0714286   0.1428571  -0.3571429), wk =   0.0058309
        k(  117) = (   0.0714286   0.1428571  -0.2857143), wk =   0.0058309
        k(  118) = (   0.0714286   0.1428571  -0.1428571), wk =   0.0029155
        k(  119) = (   0.0714286   0.1428571  -0.0714286), wk =   0.0029155
        k(  120) = (   0.0714286   0.2142857   0.0714286), wk =   0.0058309
        k(  121) = (   0.0714286   0.2142857   0.1428571), wk =   0.0058309
        k(  122) = (   0.0714286   0.2142857   0.2142857), wk =   0.0058309
        k(  123) = (   0.0714286   0.2142857   0.2857143), wk =   0.0058309
        k(  124) = (   0.0714286   0.2142857   0.3571429), wk =   0.0058309
        k(  125) = (   0.0714286   0.2142857   0.4285714), wk =   0.0058309
        k(  126) = (   0.0714286   0.2142857  -0.5000000), wk =   0.0058309
        k(  127) = (   0.0714286   0.2142857  -0.4285714), wk =   0.0058309
        k(  128) = (   0.0714286   0.2142857  -0.3571429), wk =   0.0058309
        k(  129) = (   0.0714286   0.2142857  -0.2142857), wk =   0.0029155
        k(  130) = (   0.0714286   0.2142857  -0.1428571), wk =   0.0058309
        k(  131) = (   0.0714286   0.2142857  -0.0714286), wk =   0.0029155
        k(  132) = (   0.0714286   0.2857143   0.0714286), wk =   0.0058309
        k(  133) = (   0.0714286   0.2857143   0.1428571), wk =   0.0058309
        k(  134) = (   0.0714286   0.2857143   0.2142857), wk =   0.0058309
        k(  135) = (   0.0714286   0.2857143   0.2857143), wk =   0.0058309
        k(  136) = (   0.0714286   0.2857143   0.3571429), wk =   0.0058309
        k(  137) = (   0.0714286   0.2857143   0.4285714), wk =   0.0058309
        k(  138) = (   0.0714286   0.2857143  -0.5000000), wk =   0.0058309
        k(  139) = (   0.0714286   0.2857143  -0.4285714), wk =   0.0058309
        k(  140) = (   0.0714286   0.2857143  -0.2857143), wk =   0.0029155
        k(  141) = (   0.0714286   0.2857143  -0.2142857), wk =   0.0058309
        k(  142) = (   0.0714286   0.2857143  -0.1428571), wk =   0.0058309
        k(  143) = (   0.0714286   0.2857143  -0.0714286), wk =   0.0029155
        k(  144) = (   0.0714286   0.3571429   0.0714286), wk =   0.0058309
        k(  145) = (   0.0714286   0.3571429   0.1428571), wk =   0.0058309
        k(  146) = (   0.0714286   0.3571429   0.2142857), wk =   0.0058309
        k(  147) = (   0.0714286   0.3571429   0.2857143), wk =   0.0058309
        k(  148) = (   0.0714286   0.3571429   0.3571429), wk =   0.0058309
        k(  149) = (   0.0714286   0.3571429   0.4285714), wk =   0.0058309
        k(  150) = (   0.0714286   0.3571429  -0.5000000), wk =   0.0058309
        k(  151) = (   0.0714286   0.3571429  -0.3571429), wk =   0.0029155
        k(  152) = (   0.0714286   0.3571429  -0.2857143), wk =   0.0058309
        k(  153) = (   0.0714286   0.3571429  -0.2142857), wk =   0.0058309
        k(  154) = (   0.0714286   0.3571429  -0.1428571), wk =   0.0058309
        k(  155) = (   0.0714286   0.3571429  -0.0714286), wk =   0.0029155
        k(  156) = (   0.0714286   0.4285714   0.0714286), wk =   0.0029155
        k(  157) = (   0.0714286   0.4285714   0.1428571), wk =   0.0058309
        k(  158) = (   0.0714286   0.4285714   0.2142857), wk =   0.0058309
        k(  159) = (   0.0714286   0.4285714   0.2857143), wk =   0.0058309
        k(  160) = (   0.0714286   0.4285714   0.3571429), wk =   0.0058309
        k(  161) = (   0.0714286   0.4285714   0.4285714), wk =   0.0029155
        k(  162) = (   0.0714286   0.4285714  -0.4285714), wk =   0.0029155
        k(  163) = (   0.0714286   0.4285714  -0.3571429), wk =   0.0058309
        k(  164) = (   0.0714286   0.4285714  -0.2857143), wk =   0.0058309
        k(  165) = (   0.0714286   0.4285714  -0.2142857), wk =   0.0058309
        k(  166) = (   0.0714286   0.4285714  -0.1428571), wk =   0.0058309
        k(  167) = (   0.0714286   0.4285714  -0.0714286), wk =   0.0029155
        k(  168) = (   0.0714286  -0.5000000   0.1428571), wk =   0.0058309
        k(  169) = (   0.0714286  -0.5000000   0.2142857), wk =   0.0058309
        k(  170) = (   0.0714286  -0.5000000   0.2857143), wk =   0.0058309
        k(  171) = (   0.0714286  -0.5000000  -0.5000000), wk =   0.0029155
        k(  172) = (   0.0714286  -0.5000000  -0.4285714), wk =   0.0058309
        k(  173) = (   0.0714286  -0.5000000  -0.3571429), wk =   0.0058309
        k(  174) = (   0.0714286  -0.5000000  -0.2857143), wk =   0.0058309
        k(  175) = (   0.0714286  -0.5000000  -0.2142857), wk =   0.0058309
        k(  176) = (   0.0714286  -0.5000000  -0.1428571), wk =   0.0058309
        k(  177) = (   0.0714286  -0.5000000  -0.0714286), wk =   0.0029155
        k(  178) = (   0.0714286  -0.4285714   0.1428571), wk =   0.0058309
        k(  179) = (   0.0714286  -0.4285714   0.2142857), wk =   0.0058309
        k(  180) = (   0.0714286  -0.4285714   0.4285714), wk =   0.0029155
        k(  181) = (   0.0714286  -0.4285714  -0.5000000), wk =   0.0058309
        k(  182) = (   0.0714286  -0.4285714  -0.4285714), wk =   0.0058309
        k(  183) = (   0.0714286  -0.4285714  -0.3571429), wk =   0.0058309
        k(  184) = (   0.0714286  -0.4285714  -0.2857143), wk =   0.0058309
        k(  185) = (   0.0714286  -0.4285714  -0.2142857), wk =   0.0058309
        k(  186) = (   0.0714286  -0.4285714  -0.1428571), wk =   0.0058309
        k(  187) = (   0.0714286  -0.4285714  -0.0714286), wk =   0.0029155
        k(  188) = (   0.0714286  -0.3571429   0.1428571), wk =   0.0058309
        k(  189) = (   0.0714286  -0.3571429   0.3571429), wk =   0.0029155
        k(  190) = (   0.0714286  -0.3571429   0.4285714), wk =   0.0058309
        k(  191) = (   0.0714286  -0.3571429  -0.5000000), wk =   0.0058309
        k(  192) = (   0.0714286  -0.3571429  -0.4285714), wk =   0.0058309
        k(  193) = (   0.0714286  -0.3571429  -0.3571429), wk =   0.0058309
        k(  194) = (   0.0714286  -0.3571429  -0.2857143), wk =   0.0058309
        k(  195) = (   0.0714286  -0.3571429  -0.2142857), wk =   0.0058309
        k(  196) = (   0.0714286  -0.3571429  -0.1428571), wk =   0.0058309
        k(  197) = (   0.0714286  -0.3571429  -0.0714286), wk =   0.0029155
        k(  198) = (   0.0714286  -0.2857143   0.2857143), wk =   0.0029155
        k(  199) = (   0.0714286  -0.2857143   0.3571429), wk =   0.0058309
        k(  200) = (   0.0714286  -0.2857143   0.4285714), wk =   0.0058309
        k(  201) = (   0.0714286  -0.2857143  -0.5000000), wk =   0.0058309
        k(  202) = (   0.0714286  -0.2857143  -0.4285714), wk =   0.0058309
        k(  203) = (   0.0714286  -0.2857143  -0.3571429), wk =   0.0058309
        k(  204) = (   0.0714286  -0.2857143  -0.2857143), wk =   0.0058309
        k(  205) = (   0.0714286  -0.2857143  -0.2142857), wk =   0.0058309
        k(  206) = (   0.0714286  -0.2857143  -0.1428571), wk =   0.0058309
        k(  207) = (   0.0714286  -0.2857143  -0.0714286), wk =   0.0029155
        k(  208) = (   0.0714286  -0.2142857   0.2142857), wk =   0.0029155
        k(  209) = (   0.0714286  -0.2142857   0.2857143), wk =   0.0058309
        k(  210) = (   0.0714286  -0.2142857   0.3571429), wk =   0.0058309
        k(  211) = (   0.0714286  -0.2142857   0.4285714), wk =   0.0058309
        k(  212) = (   0.0714286  -0.2142857  -0.5000000), wk =   0.0058309
        k(  213) = (   0.0714286  -0.2142857  -0.4285714), wk =   0.0058309
        k(  214) = (   0.0714286  -0.2142857  -0.3571429), wk =   0.0058309
        k(  215) = (   0.0714286  -0.2142857  -0.2857143), wk =   0.0058309
        k(  216) = (   0.0714286  -0.2142857  -0.2142857), wk =   0.0058309
        k(  217) = (   0.0714286  -0.2142857  -0.1428571), wk =   0.0058309
        k(  218) = (   0.0714286  -0.2142857  -0.0714286), wk =   0.0029155
        k(  219) = (   0.0714286  -0.1428571   0.1428571), wk =   0.0029155
        k(  220) = (   0.0714286  -0.1428571   0.2142857), wk =   0.0058309
        k(  221) = (   0.0714286  -0.1428571   0.2857143), wk =   0.0058309
        k(  222) = (   0.0714286  -0.1428571   0.3571429), wk =   0.0058309
        k(  223) = (   0.0714286  -0.1428571   0.4285714), wk =   0.0058309
        k(  224) = (   0.0714286  -0.1428571  -0.5000000), wk =   0.0058309
        k(  225) = (   0.0714286  -0.1428571  -0.4285714), wk =   0.0058309
        k(  226) = (   0.0714286  -0.1428571  -0.3571429), wk =   0.0058309
        k(  227) = (   0.0714286  -0.1428571  -0.2857143), wk =   0.0058309
        k(  228) = (   0.0714286  -0.1428571  -0.2142857), wk =   0.0058309
        k(  229) = (   0.0714286  -0.1428571  -0.1428571), wk =   0.0058309
        k(  230) = (   0.0714286  -0.1428571  -0.0714286), wk =   0.0029155
        k(  231) = (   0.0714286  -0.0714286   0.0714286), wk =   0.0014577
        k(  232) = (   0.0714286  -0.0714286   0.1428571), wk =   0.0029155
        k(  233) = (   0.0714286  -0.0714286   0.2142857), wk =   0.0029155
        k(  234) = (   0.0714286  -0.0714286   0.2857143), wk =   0.0029155
        k(  235) = (   0.0714286  -0.0714286   0.3571429), wk =   0.0029155
        k(  236) = (   0.0714286  -0.0714286   0.4285714), wk =   0.0029155
        k(  237) = (   0.0714286  -0.0714286  -0.5000000), wk =   0.0029155
        k(  238) = (   0.0714286  -0.0714286  -0.4285714), wk =   0.0029155
        k(  239) = (   0.0714286  -0.0714286  -0.3571429), wk =   0.0029155
        k(  240) = (   0.0714286  -0.0714286  -0.2857143), wk =   0.0029155
        k(  241) = (   0.0714286  -0.0714286  -0.2142857), wk =   0.0029155
        k(  242) = (   0.0714286  -0.0714286  -0.1428571), wk =   0.0029155
        k(  243) = (   0.0714286  -0.0714286  -0.0714286), wk =   0.0014577
        k(  244) = (   0.1428571   0.1428571   0.1428571), wk =   0.0058309
        k(  245) = (   0.1428571   0.1428571   0.2142857), wk =   0.0058309
        k(  246) = (   0.1428571   0.1428571   0.2857143), wk =   0.0058309
        k(  247) = (   0.1428571   0.1428571   0.3571429), wk =   0.0029155
        k(  248) = (   0.1428571   0.1428571  -0.1428571), wk =   0.0014577
        k(  249) = (   0.1428571   0.2142857   0.1428571), wk =   0.0058309
        k(  250) = (   0.1428571   0.2142857   0.2142857), wk =   0.0058309
        k(  251) = (   0.1428571   0.2142857   0.2857143), wk =   0.0058309
        k(  252) = (   0.1428571   0.2142857   0.3571429), wk =   0.0058309
        k(  253) = (   0.1428571   0.2142857   0.4285714), wk =   0.0058309
        k(  254) = (   0.1428571   0.2142857  -0.5000000), wk =   0.0058309
        k(  255) = (   0.1428571   0.2142857  -0.2142857), wk =   0.0029155
        k(  256) = (   0.1428571   0.2142857  -0.1428571), wk =   0.0029155
        k(  257) = (   0.1428571   0.2857143   0.1428571), wk =   0.0058309
        k(  258) = (   0.1428571   0.2857143   0.2142857), wk =   0.0058309
        k(  259) = (   0.1428571   0.2857143   0.2857143), wk =   0.0058309
        k(  260) = (   0.1428571   0.2857143   0.3571429), wk =   0.0058309
        k(  261) = (   0.1428571   0.2857143   0.4285714), wk =   0.0058309
        k(  262) = (   0.1428571   0.2857143  -0.2857143), wk =   0.0029155
        k(  263) = (   0.1428571   0.2857143  -0.2142857), wk =   0.0058309
        k(  264) = (   0.1428571   0.2857143  -0.1428571), wk =   0.0029155
        k(  265) = (   0.1428571   0.3571429   0.1428571), wk =   0.0029155
        k(  266) = (   0.1428571   0.3571429   0.2142857), wk =   0.0058309
        k(  267) = (   0.1428571   0.3571429   0.2857143), wk =   0.0058309
        k(  268) = (   0.1428571   0.3571429   0.3571429), wk =   0.0029155
        k(  269) = (   0.1428571   0.3571429  -0.3571429), wk =   0.0029155
        k(  270) = (   0.1428571   0.3571429  -0.2857143), wk =   0.0058309
        k(  271) = (   0.1428571   0.3571429  -0.2142857), wk =   0.0058309
        k(  272) = (   0.1428571   0.3571429  -0.1428571), wk =   0.0029155
        k(  273) = (   0.1428571   0.4285714   0.2142857), wk =   0.0058309
        k(  274) = (   0.1428571   0.4285714  -0.4285714), wk =   0.0029155
        k(  275) = (   0.1428571   0.4285714  -0.3571429), wk =   0.0058309
        k(  276) = (   0.1428571   0.4285714  -0.2857143), wk =   0.0058309
        k(  277) = (   0.1428571   0.4285714  -0.2142857), wk =   0.0058309
        k(  278) = (   0.1428571   0.4285714  -0.1428571), wk =   0.0029155
        k(  279) = (   0.1428571  -0.5000000  -0.5000000), wk =   0.0029155
        k(  280) = (   0.1428571  -0.5000000  -0.4285714), wk =   0.0058309
        k(  281) = (   0.1428571  -0.5000000  -0.3571429), wk =   0.0058309
        k(  282) = (   0.1428571  -0.5000000  -0.2857143), wk =   0.0058309
        k(  283) = (   0.1428571  -0.5000000  -0.2142857), wk =   0.0058309
        k(  284) = (   0.1428571  -0.5000000  -0.1428571), wk =   0.0029155
        k(  285) = (   0.1428571  -0.4285714   0.4285714), wk =   0.0029155
        k(  286) = (   0.1428571  -0.4285714  -0.5000000), wk =   0.0058309
        k(  287) = (   0.1428571  -0.4285714  -0.4285714), wk =   0.0058309
        k(  288) = (   0.1428571  -0.4285714  -0.3571429), wk =   0.0058309
        k(  289) = (   0.1428571  -0.4285714  -0.2857143), wk =   0.0058309
        k(  290) = (   0.1428571  -0.4285714  -0.2142857), wk =   0.0058309
        k(  291) = (   0.1428571  -0.4285714  -0.1428571), wk =   0.0029155
        k(  292) = (   0.1428571  -0.3571429   0.3571429), wk =   0.0029155
        k(  293) = (   0.1428571  -0.3571429   0.4285714), wk =   0.0058309
        k(  294) = (   0.1428571  -0.3571429  -0.5000000), wk =   0.0058309
        k(  295) = (   0.1428571  -0.3571429  -0.4285714), wk =   0.0058309
        k(  296) = (   0.1428571  -0.3571429  -0.3571429), wk =   0.0058309
        k(  297) = (   0.1428571  -0.3571429  -0.2857143), wk =   0.0058309
        k(  298) = (   0.1428571  -0.3571429  -0.2142857), wk =   0.0058309
        k(  299) = (   0.1428571  -0.3571429  -0.1428571), wk =   0.0029155
        k(  300) = (   0.1428571  -0.2857143   0.2857143), wk =   0.0029155
        k(  301) = (   0.1428571  -0.2857143   0.3571429), wk =   0.0058309
        k(  302) = (   0.1428571  -0.2857143   0.4285714), wk =   0.0058309
        k(  303) = (   0.1428571  -0.2857143  -0.5000000), wk =   0.0058309
        k(  304) = (   0.1428571  -0.2857143  -0.4285714), wk =   0.0058309
        k(  305) = (   0.1428571  -0.2857143  -0.3571429), wk =   0.0058309
        k(  306) = (   0.1428571  -0.2857143  -0.2857143), wk =   0.0058309
        k(  307) = (   0.1428571  -0.2857143  -0.2142857), wk =   0.0058309
        k(  308) = (   0.1428571  -0.2857143  -0.1428571), wk =   0.0029155
        k(  309) = (   0.1428571  -0.2142857   0.2142857), wk =   0.0029155
        k(  310) = (   0.1428571  -0.2142857   0.2857143), wk =   0.0058309
        k(  311) = (   0.1428571  -0.2142857   0.3571429), wk =   0.0058309
        k(  312) = (   0.1428571  -0.2142857   0.4285714), wk =   0.0058309
        k(  313) = (   0.1428571  -0.2142857  -0.5000000), wk =   0.0058309
        k(  314) = (   0.1428571  -0.2142857  -0.4285714), wk =   0.0058309
        k(  315) = (   0.1428571  -0.2142857  -0.3571429), wk =   0.0058309
        k(  316) = (   0.1428571  -0.2142857  -0.2857143), wk =   0.0058309
        k(  317) = (   0.1428571  -0.2142857  -0.2142857), wk =   0.0058309
        k(  318) = (   0.1428571  -0.2142857  -0.1428571), wk =   0.0029155
        k(  319) = (   0.1428571  -0.1428571   0.1428571), wk =   0.0014577
        k(  320) = (   0.1428571  -0.1428571   0.2142857), wk =   0.0029155
        k(  321) = (   0.1428571  -0.1428571   0.2857143), wk =   0.0029155
        k(  322) = (   0.1428571  -0.1428571   0.3571429), wk =   0.0029155
        k(  323) = (   0.1428571  -0.1428571   0.4285714), wk =   0.0029155
        k(  324) = (   0.1428571  -0.1428571  -0.5000000), wk =   0.0029155
        k(  325) = (   0.1428571  -0.1428571  -0.4285714), wk =   0.0029155
        k(  326) = (   0.1428571  -0.1428571  -0.3571429), wk =   0.0029155
        k(  327) = (   0.1428571  -0.1428571  -0.2857143), wk =   0.0029155
        k(  328) = (   0.1428571  -0.1428571  -0.2142857), wk =   0.0029155
        k(  329) = (   0.1428571  -0.1428571  -0.1428571), wk =   0.0014577
        k(  330) = (   0.2142857   0.2142857   0.2142857), wk =   0.0058309
        k(  331) = (   0.2142857   0.2142857   0.2857143), wk =   0.0029155
        k(  332) = (   0.2142857   0.2142857  -0.2142857), wk =   0.0014577
        k(  333) = (   0.2142857   0.2857143   0.2142857), wk =   0.0029155
        k(  334) = (   0.2142857   0.2857143   0.2857143), wk =   0.0029155
        k(  335) = (   0.2142857   0.2857143  -0.2857143), wk =   0.0029155
        k(  336) = (   0.2142857   0.2857143  -0.2142857), wk =   0.0029155
        k(  337) = (   0.2142857   0.3571429  -0.3571429), wk =   0.0029155
        k(  338) = (   0.2142857   0.3571429  -0.2857143), wk =   0.0058309
        k(  339) = (   0.2142857   0.3571429  -0.2142857), wk =   0.0029155
        k(  340) = (   0.2142857   0.4285714  -0.4285714), wk =   0.0029155
        k(  341) = (   0.2142857   0.4285714  -0.3571429), wk =   0.0058309
        k(  342) = (   0.2142857   0.4285714  -0.2857143), wk =   0.0058309
        k(  343) = (   0.2142857   0.4285714  -0.2142857), wk =   0.0029155
        k(  344) = (   0.2142857  -0.5000000  -0.5000000), wk =   0.0029155
        k(  345) = (   0.2142857  -0.5000000  -0.4285714), wk =   0.0058309
        k(  346) = (   0.2142857  -0.5000000  -0.3571429), wk =   0.0058309
        k(  347) = (   0.2142857  -0.5000000  -0.2857143), wk =   0.0058309
        k(  348) = (   0.2142857  -0.5000000  -0.2142857), wk =   0.0029155
        k(  349) = (   0.2142857  -0.4285714   0.4285714), wk =   0.0029155
        k(  350) = (   0.2142857  -0.4285714  -0.5000000), wk =   0.0058309
        k(  351) = (   0.2142857  -0.4285714  -0.4285714), wk =   0.0058309
        k(  352) = (   0.2142857  -0.4285714  -0.3571429), wk =   0.0058309
        k(  353) = (   0.2142857  -0.4285714  -0.2857143), wk =   0.0058309
        k(  354) = (   0.2142857  -0.4285714  -0.2142857), wk =   0.0029155
        k(  355) = (   0.2142857  -0.3571429   0.3571429), wk =   0.0029155
        k(  356) = (   0.2142857  -0.3571429   0.4285714), wk =   0.0058309
        k(  357) = (   0.2142857  -0.3571429  -0.5000000), wk =   0.0058309
        k(  358) = (   0.2142857  -0.3571429  -0.4285714), wk =   0.0058309
        k(  359) = (   0.2142857  -0.3571429  -0.3571429), wk =   0.0058309
        k(  360) = (   0.2142857  -0.3571429  -0.2857143), wk =   0.0058309
        k(  361) = (   0.2142857  -0.3571429  -0.2142857), wk =   0.0029155
        k(  362) = (   0.2142857  -0.2857143   0.2857143), wk =   0.0029155
        k(  363) = (   0.2142857  -0.2857143   0.3571429), wk =   0.0058309
        k(  364) = (   0.2142857  -0.2857143   0.4285714), wk =   0.0058309
        k(  365) = (   0.2142857  -0.2857143  -0.5000000), wk =   0.0058309
        k(  366) = (   0.2142857  -0.2857143  -0.4285714), wk =   0.0058309
        k(  367) = (   0.2142857  -0.2857143  -0.3571429), wk =   0.0058309
        k(  368) = (   0.2142857  -0.2857143  -0.2857143), wk =   0.0058309
        k(  369) = (   0.2142857  -0.2857143  -0.2142857), wk =   0.0029155
        k(  370) = (   0.2142857  -0.2142857   0.2142857), wk =   0.0014577
        k(  371) = (   0.2142857  -0.2142857   0.2857143), wk =   0.0029155
        k(  372) = (   0.2142857  -0.2142857   0.3571429), wk =   0.0029155
        k(  373) = (   0.2142857  -0.2142857   0.4285714), wk =   0.0029155
        k(  374) = (   0.2142857  -0.2142857  -0.5000000), wk =   0.0029155
        k(  375) = (   0.2142857  -0.2142857  -0.4285714), wk =   0.0029155
        k(  376) = (   0.2142857  -0.2142857  -0.3571429), wk =   0.0029155
        k(  377) = (   0.2142857  -0.2142857  -0.2857143), wk =   0.0029155
        k(  378) = (   0.2142857  -0.2142857  -0.2142857), wk =   0.0014577
        k(  379) = (   0.2857143   0.2857143  -0.2857143), wk =   0.0014577
        k(  380) = (   0.2857143   0.3571429  -0.3571429), wk =   0.0029155
        k(  381) = (   0.2857143   0.3571429  -0.2857143), wk =   0.0029155
        k(  382) = (   0.2857143   0.4285714  -0.4285714), wk =   0.0029155
        k(  383) = (   0.2857143   0.4285714  -0.3571429), wk =   0.0058309
        k(  384) = (   0.2857143   0.4285714  -0.2857143), wk =   0.0029155
        k(  385) = (   0.2857143  -0.5000000  -0.5000000), wk =   0.0029155
        k(  386) = (   0.2857143  -0.5000000  -0.4285714), wk =   0.0058309
        k(  387) = (   0.2857143  -0.5000000  -0.3571429), wk =   0.0058309
        k(  388) = (   0.2857143  -0.5000000  -0.2857143), wk =   0.0029155
        k(  389) = (   0.2857143  -0.4285714   0.4285714), wk =   0.0029155
        k(  390) = (   0.2857143  -0.4285714  -0.5000000), wk =   0.0058309
        k(  391) = (   0.2857143  -0.4285714  -0.4285714), wk =   0.0058309
        k(  392) = (   0.2857143  -0.4285714  -0.3571429), wk =   0.0058309
        k(  393) = (   0.2857143  -0.4285714  -0.2857143), wk =   0.0029155
        k(  394) = (   0.2857143  -0.3571429   0.3571429), wk =   0.0029155
        k(  395) = (   0.2857143  -0.3571429   0.4285714), wk =   0.0058309
        k(  396) = (   0.2857143  -0.3571429  -0.5000000), wk =   0.0058309
        k(  397) = (   0.2857143  -0.3571429  -0.4285714), wk =   0.0058309
        k(  398) = (   0.2857143  -0.3571429  -0.3571429), wk =   0.0058309
        k(  399) = (   0.2857143  -0.3571429  -0.2857143), wk =   0.0029155
        k(  400) = (   0.2857143  -0.2857143   0.2857143), wk =   0.0014577
        k(  401) = (   0.2857143  -0.2857143   0.3571429), wk =   0.0029155
        k(  402) = (   0.2857143  -0.2857143   0.4285714), wk =   0.0029155
        k(  403) = (   0.2857143  -0.2857143  -0.5000000), wk =   0.0029155
        k(  404) = (   0.2857143  -0.2857143  -0.4285714), wk =   0.0029155
        k(  405) = (   0.2857143  -0.2857143  -0.3571429), wk =   0.0029155
        k(  406) = (   0.2857143  -0.2857143  -0.2857143), wk =   0.0014577
        k(  407) = (   0.3571429   0.3571429  -0.3571429), wk =   0.0014577
        k(  408) = (   0.3571429   0.4285714  -0.4285714), wk =   0.0029155
        k(  409) = (   0.3571429   0.4285714  -0.3571429), wk =   0.0029155
        k(  410) = (   0.3571429  -0.5000000  -0.5000000), wk =   0.0029155
        k(  411) = (   0.3571429  -0.5000000  -0.4285714), wk =   0.0058309
        k(  412) = (   0.3571429  -0.5000000  -0.3571429), wk =   0.0029155
        k(  413) = (   0.3571429  -0.4285714   0.4285714), wk =   0.0029155
        k(  414) = (   0.3571429  -0.4285714  -0.5000000), wk =   0.0058309
        k(  415) = (   0.3571429  -0.4285714  -0.4285714), wk =   0.0058309
        k(  416) = (   0.3571429  -0.4285714  -0.3571429), wk =   0.0029155
        k(  417) = (   0.3571429  -0.3571429   0.3571429), wk =   0.0014577
        k(  418) = (   0.3571429  -0.3571429   0.4285714), wk =   0.0029155
        k(  419) = (   0.3571429  -0.3571429  -0.5000000), wk =   0.0029155
        k(  420) = (   0.3571429  -0.3571429  -0.4285714), wk =   0.0029155
        k(  421) = (   0.3571429  -0.3571429  -0.3571429), wk =   0.0014577
        k(  422) = (   0.4285714   0.4285714  -0.4285714), wk =   0.0014577
        k(  423) = (   0.4285714  -0.5000000  -0.5000000), wk =   0.0029155
        k(  424) = (   0.4285714  -0.5000000  -0.4285714), wk =   0.0029155
        k(  425) = (   0.4285714  -0.4285714   0.4285714), wk =   0.0014577
        k(  426) = (   0.4285714  -0.4285714  -0.5000000), wk =   0.0029155
        k(  427) = (   0.4285714  -0.4285714  -0.4285714), wk =   0.0014577
        k(  428) = (  -0.5000000  -0.5000000  -0.5000000), wk =   0.0007289

     Dense  grid:   384583 G-vectors     FFT dimensions: ( 144, 144, 144)

     Smooth grid:    97215 G-vectors     FFT dimensions: (  90,  90,  90)

     Dynamical RAM for                 wfc:       0.08 MB

     Dynamical RAM for     wfc (w. buffer):      34.78 MB

     Dynamical RAM for           str. fact:       0.37 MB

     Dynamical RAM for           local pot:       0.00 MB

     Dynamical RAM for          nlocal pot:       0.16 MB

     Dynamical RAM for                qrad:       8.33 MB

     Dynamical RAM for          rho,v,vnew:       1.79 MB

     Dynamical RAM for               rhoin:       0.60 MB

     Dynamical RAM for            rho*nmix:       1.96 MB

     Dynamical RAM for           G-vectors:       0.47 MB

     Dynamical RAM for          h,s,v(r/c):       0.08 MB

     Dynamical RAM for          <psi|beta>:       0.01 MB

     Dynamical RAM for                 psi:       0.16 MB

     Dynamical RAM for                hpsi:       0.16 MB

     Dynamical RAM for                spsi:       0.16 MB

     Dynamical RAM for      wfcinit/wfcrot:       0.21 MB

     Dynamical RAM for           addusdens:      22.98 MB

     Dynamical RAM for          addusforce:      23.30 MB

     Dynamical RAM for         addusstress:      24.57 MB

     Estimated static dynamical RAM per process >      51.32 MB

     Estimated max dynamical RAM per process >      75.89 MB

     Estimated total dynamical RAM >       3.56 GB

     Initial potential from superposition of free atoms

     starting charge   32.99867, renormalised to   33.00000
     Starting wfcs are   25 randomized atomic wfcs
     Checking if some PAW data can be deallocated... 
       PAW data deallocated on   36 nodes for type:  1
       PAW data deallocated on   24 nodes for type:  2
       PAW data deallocated on   36 nodes for type:  3

     total cpu time spent up to now is        9.6 secs

     Self-consistent Calculation

     iteration #  1     ecut=   120.00 Ry     beta= 0.70
     Davidson diagonalization with overlap
     ethr =  1.00E-02,  avg # of iterations =  2.3

     total cpu time spent up to now is       29.6 secs

     total energy              =    -534.52647893 Ry
     estimated scf accuracy    <       0.76257274 Ry

     iteration #  2     ecut=   120.00 Ry     beta= 0.70
     Davidson diagonalization with overlap
     ethr =  2.31E-03,  avg # of iterations =  3.6

     total cpu time spent up to now is       53.2 secs

     total energy              =    -533.62711567 Ry
     estimated scf accuracy    <       8.40429990 Ry

     iteration #  3     ecut=   120.00 Ry     beta= 0.70
     Davidson diagonalization with overlap
     ethr =  2.31E-03,  avg # of iterations =  3.5

     total cpu time spent up to now is       75.3 secs

     total energy              =    -534.97428804 Ry
     estimated scf accuracy    <       0.12416801 Ry

     iteration #  4     ecut=   120.00 Ry     beta= 0.70
     Davidson diagonalization with overlap
     ethr =  3.76E-04,  avg # of iterations =  1.3

     total cpu time spent up to now is       93.2 secs

     total energy              =    -534.96772373 Ry
     estimated scf accuracy    <       0.05959793 Ry

     iteration #  5     ecut=   120.00 Ry     beta= 0.70
     Davidson diagonalization with overlap
     ethr =  1.81E-04,  avg # of iterations =  1.5

     total cpu time spent up to now is      111.0 secs

     total energy              =    -534.96416216 Ry
     estimated scf accuracy    <       0.02383092 Ry

     iteration #  6     ecut=   120.00 Ry     beta= 0.70
     Davidson diagonalization with overlap
     ethr =  7.22E-05,  avg # of iterations =  1.9

     total cpu time spent up to now is      129.5 secs

     total energy              =    -534.96686480 Ry
     estimated scf accuracy    <       0.00061646 Ry

     iteration #  7     ecut=   120.00 Ry     beta= 0.70
     Davidson diagonalization with overlap
     ethr =  1.87E-06,  avg # of iterations =  3.6

     total cpu time spent up to now is      153.5 secs

     total energy              =    -534.96705208 Ry
     estimated scf accuracy    <       0.00010979 Ry

     iteration #  8     ecut=   120.00 Ry     beta= 0.70
     Davidson diagonalization with overlap
     ethr =  3.33E-07,  avg # of iterations =  2.0

     total cpu time spent up to now is      172.2 secs

     total energy              =    -534.96704670 Ry
     estimated scf accuracy    <       0.00003578 Ry

     iteration #  9     ecut=   120.00 Ry     beta= 0.70
     Davidson diagonalization with overlap
     ethr =  1.08E-07,  avg # of iterations =  2.0

     total cpu time spent up to now is      191.1 secs

     total energy              =    -534.96705293 Ry
     estimated scf accuracy    <       0.00000009 Ry

     iteration # 10     ecut=   120.00 Ry     beta= 0.70
     Davidson diagonalization with overlap
     ethr =  2.61E-10,  avg # of iterations =  5.8

     total cpu time spent up to now is      226.2 secs

     total energy              =    -534.96705318 Ry
     estimated scf accuracy    <       0.00000022 Ry

     iteration # 11     ecut=   120.00 Ry     beta= 0.70
     Davidson diagonalization with overlap
     ethr =  2.61E-10,  avg # of iterations =  2.7

     total cpu time spent up to now is      248.3 secs

     total energy              =    -534.96705323 Ry
     estimated scf accuracy    <          8.4E-09 Ry

     iteration # 12     ecut=   120.00 Ry     beta= 0.70
     Davidson diagonalization with overlap
     ethr =  2.53E-11,  avg # of iterations =  2.0

     total cpu time spent up to now is      266.9 secs

[...]

   -49.8724 -26.1540 -25.7947 -25.7101 -12.3759  -9.2868  -9.0471   1.2996
     2.2536   2.6547   2.6685   2.8574   3.2890   3.5760   3.8640   4.0191
     5.5806   7.3308   7.5731   8.9780  10.0005

     occupation numbers 
     1.0000   1.0000   1.0000   1.0000   1.0000   1.0000   1.0000   1.0000
     1.0000   1.0000   1.0000   1.0000   1.0000   1.0000   1.0000   1.0000
     1.0000  -0.0000  -0.0000  -0.0000  -0.0000

          k = 0.1426 0.0000 0.4255 ( 12135 PWs)   bands (ev):

   -49.8718 -26.1438 -25.7932 -25.7212 -12.4297  -9.2773  -9.0351   1.3296
     2.1337   2.6695   2.7749   3.1752   3.3457   3.4812   3.8293   3.9508
     5.7763   7.1347   7.4665   8.8844   9.8879

     occupation numbers 
     1.0000   1.0000   1.0000   1.0000   1.0000   1.0000   1.0000   1.0000
     1.0000   1.0000   1.0000   1.0000   1.0000   1.0000   1.0000   1.0000
     1.0000  -0.0000  -0.0000  -0.0000  -0.0000

          k =-1.9966-0.2453-0.0774 ( 12175 PWs)   bands (ev):

   -49.8719 -26.1800 -25.7938 -25.7093 -12.2051  -9.2344  -9.0777   1.3409
     2.1160   2.2355   2.4077   2.6862   3.1589   3.3122   3.9054   4.1409
     5.5982   7.7174   7.8002   8.9907  10.3603

     occupation numbers 
     1.0000   1.0000   1.0000   1.0000   1.0000   1.0000   1.0000   1.0000
     1.0000   1.0000   1.0000   1.0000   1.0000   1.0000   1.0000   1.0000
     1.0000  -0.0000  -0.0000  -0.0000  -0.0000

          k =-1.8540-0.1227-0.0774 ( 12138 PWs)   bands (ev):

   -49.8717 -26.1532 -25.7928 -25.7209 -12.3701  -9.2413  -9.0648   1.4086
     2.0474   2.5929   2.6595   3.0237   3.1475   3.5923   3.8719   3.8742
     5.7837   7.2830   7.5476   8.9044  10.0572

     occupation numbers 
     1.0000   1.0000   1.0000   1.0000   1.0000   1.0000   1.0000   1.0000
     1.0000   1.0000   1.0000   1.0000   1.0000   1.0000   1.0000   1.0000
     1.0000  -0.0000  -0.0000  -0.0000  -0.0000

          k =-1.7114 0.0000-0.0774 ( 12140 PWs)   bands (ev):

   -49.8698 -26.1415 -25.7879 -25.7513 -12.4137  -9.2120  -9.0170   1.4392
     1.8030   2.6339   2.7768   2.8082   3.4570   3.6737   3.7751   3.7983
     6.2098   7.0129   7.3639   8.7298   9.9374

     occupation numbers 
     1.0000   1.0000   1.0000   1.0000   1.0000   1.0000   1.0000   1.0000
     1.0000   1.0000   1.0000   1.0000   1.0000   1.0000   1.0000   1.0000
     1.0000  -0.0000  -0.0000  -0.0000  -0.0000

          k =-0.0000 1.3493-0.0387 ( 12185 PWs)   bands (ev):

   -49.8712 -26.2172 -25.7924 -25.7081 -11.9468  -9.1738  -9.1044   1.2171
     1.5917   1.8308   2.2596   2.6963   2.9584   3.0766   3.8361   4.3172
     5.6223   8.1694   8.2284   8.9877  10.6884

     occupation numbers 
     1.0000   1.0000   1.0000   1.0000   1.0000   1.0000   1.0000   1.0000
     1.0000   1.0000   1.0000   1.0000   1.0000   1.0000   1.0000   1.0000
     1.0000  -0.0000  -0.0000  -0.0000  -0.0000

          k =-1.8540-0.2453-0.0387 ( 12160 PWs)   bands (ev):

   -49.8712 -26.1791 -25.7919 -25.7201 -12.1994  -9.1927  -9.0905   1.4222
     2.0053   2.2293   2.2655   2.8910   2.9999   3.3520   3.7246   4.1605
     5.7992   7.6706   7.7741   8.9169  10.4107

     occupation numbers 
     1.0000   1.0000   1.0000   1.0000   1.0000   1.0000   1.0000   1.0000
     1.0000   1.0000   1.0000   1.0000   1.0000   1.0000   1.0000   1.0000
     1.0000  -0.0000  -0.0000  -0.0000  -0.0000

          k =-1.7114-0.1227-0.0387 ( 12138 PWs)   bands (ev):

   -49.8696 -26.1508 -25.7875 -25.7510 -12.3542  -9.1884  -9.0330   1.5209
     1.7078   2.5842   2.6456   2.7481   3.2664   3.5351   3.7393   3.9575
     6.2179   7.1603   7.4476   8.7412  10.0941

     occupation numbers 
     1.0000   1.0000   1.0000   1.0000   1.0000   1.0000   1.0000   1.0000
     1.0000   1.0000   1.0000   1.0000   1.0000   1.0000   1.0000   1.0000
     1.0000  -0.0000  -0.0000  -0.0000  -0.0000

          k =-1.5688 0.0000-0.0387 ( 12144 PWs)   bands (ev):

   -49.8669 -26.1381 -25.7945 -25.7802 -12.3907  -9.1562  -8.9476   1.3322
     1.6298   2.2567   2.6553   2.8649   3.6009   3.6648   3.7153   3.8646
     6.7220   6.8670   7.1901   8.6659   9.9030

     occupation numbers 
     1.0000   1.0000   1.0000   1.0000   1.0000   1.0000   1.0000   1.0000
     1.0000   1.0000   1.0000   1.0000   1.0000   1.0000   1.0000   1.0000
     0.4095  -0.0000  -0.0000  -0.0000  -0.0000

          k = 0.0000 1.2266 0.0000 ( 12201 PWs)   bands (ev):

   -49.8705 -26.2579 -25.7908 -25.7067 -11.6414  -9.1474  -9.0922   0.5995
     1.3487   1.4288   2.3334   2.6970   2.7382   2.9153   3.8245   4.3624
     5.6459   8.6300   8.7607   8.9694  10.8739

     occupation numbers 
     1.0000   1.0000   1.0000   1.0000   1.0000   1.0000   1.0000   1.0000
     1.0000   1.0000   1.0000   1.0000   1.0000   1.0000   1.0000   1.0000
     1.0000  -0.0000  -0.0000  -0.0000  -0.0000

          k = 0.1426 1.3493 0.0000 ( 12176 PWs)   bands (ev):

   -49.8705 -26.2163 -25.7905 -25.7188 -11.9413  -9.1379  -9.1106   1.2456
     1.6303   1.8252   2.0597   2.7737   2.8708   3.1948   3.6170   4.3162
     5.8183   8.1439   8.1841   8.9208  10.7396

     occupation numbers 
     1.0000   1.0000   1.0000   1.0000   1.0000   1.0000   1.0000   1.0000
     1.0000   1.0000   1.0000   1.0000   1.0000   1.0000   1.0000   1.0000
     1.0000  -0.0000  -0.0000  -0.0000  -0.0000

          k =-1.7114-0.2453 0.0000 ( 12158 PWs)   bands (ev):

   -49.8692 -26.1767 -25.7866 -25.7501 -12.1838  -9.1569  -9.0409   1.5234
     1.6623   2.2529   2.2987   2.6352   3.1232   3.2559   3.5833   4.1907
     6.2281   7.5496   7.6926   8.7622  10.4506

     occupation numbers 
     1.0000   1.0000   1.0000   1.0000   1.0000   1.0000   1.0000   1.0000
     1.0000   1.0000   1.0000   1.0000   1.0000   1.0000   1.0000   1.0000
     1.0000  -0.0000  -0.0000  -0.0000  -0.0000

          k =-1.5688-0.1227 0.0000 ( 12151 PWs)   bands (ev):

   -49.8667 -26.1473 -25.7942 -25.7799 -12.3313  -9.1459  -8.9497   1.3497
     1.6078   2.2251   2.5788   2.7470   3.4277   3.4322   3.7188   4.0331
     6.7264   7.0124   7.2900   8.6736  10.0568

     occupation numbers 
     1.0000   1.0000   1.0000   1.0000   1.0000   1.0000   1.0000   1.0000
     1.0000   1.0000   1.0000   1.0000   1.0000   1.0000   1.0000   1.0000
     0.3228  -0.0000  -0.0000  -0.0000  -0.0000

          k =-1.4261 0.0000 0.0000 ( 12171 PWs)   bands (ev):

   -49.8637 -26.1343 -25.8421 -25.7717 -12.3651  -9.1079  -8.8537   1.1376
     1.3483   2.0680   2.5748   2.9446   3.6361   3.6425   3.7614   3.8878
     6.7489   6.9757   7.2722   8.8004   9.8007

     occupation numbers 
     1.0000   1.0000   1.0000   1.0000   1.0000   1.0000   1.0000   1.0000
     1.0000   1.0000   1.0000   1.0000   1.0000   1.0000   1.0000   1.0000
     0.0195  -0.0000  -0.0000  -0.0000  -0.0000

          k =-0.0000 0.0000 0.4642 ( 12108 PWs)   bands (ev):

   -49.8725 -26.1447 -25.7951 -25.7104 -12.4353  -9.2632  -9.0818   1.3911
     2.2008   2.6826   2.7583   3.3155   3.3288   3.3526   3.7987   4.0592
     5.5751   7.1823   7.5152   9.0009   9.8785

     occupation numbers 
     1.0000   1.0000   1.0000   1.0000   1.0000   1.0000   1.0000   1.0000
     1.0000   1.0000   1.0000   1.0000   1.0000   1.0000   1.0000   1.0000
     1.0000  -0.0000  -0.0000  -0.0000  -0.0000

          k =-1.9966-0.1227-0.0387 ( 12144 PWs)   bands (ev):

   -49.8724 -26.1540 -25.7947 -25.7101 -12.3757  -9.2277  -9.1102   1.4406
     2.1453   2.6348   2.6935   2.8326   3.2730   3.5963   3.8160   3.9960
     5.5817   7.3308   7.5900   9.0111  10.0470

     occupation numbers 
     1.0000   1.0000   1.0000   1.0000   1.0000   1.0000   1.0000   1.0000
     1.0000   1.0000   1.0000   1.0000   1.0000   1.0000   1.0000   1.0000
     1.0000  -0.0000  -0.0000  -0.0000  -0.0000

          k =-1.8540 0.0000-0.0387 ( 12121 PWs)   bands (ev):

   -49.8718 -26.1438 -25.7932 -25.7212 -12.4295  -9.2255  -9.0905   1.4882
     1.9784   2.6978   2.7687   3.1516   3.4038   3.4544   3.7677   3.9301
     5.7806   7.1340   7.4829   8.9151   9.9138

     occupation numbers 
     1.0000   1.0000   1.0000   1.0000   1.0000   1.0000   1.0000   1.0000
     1.0000   1.0000   1.0000   1.0000   1.0000   1.0000   1.0000   1.0000
     1.0000  -0.0000  -0.0000  -0.0000  -0.0000

          k =-0.0000 1.4719-0.0000 ( 12177 PWs)   bands (ev):

   -49.8719 -26.1800 -25.7938 -25.7093 -12.2049  -9.1872  -9.1268   1.4056
     2.1483   2.2117   2.3315   2.6983   3.1538   3.2952   3.8917   4.1439
     5.5995   7.7174   7.8064   9.0064  10.3884

     occupation numbers 
     1.0000   1.0000   1.0000   1.0000   1.0000   1.0000   1.0000   1.0000
     1.0000   1.0000   1.0000   1.0000   1.0000   1.0000   1.0000   1.0000
     1.0000  -0.0000  -0.0000  -0.0000  -0.0000

          k =-1.8540-0.1227-0.0000 ( 12146 PWs)   bands (ev):

   -49.8717 -26.1532 -25.7928 -25.7209 -12.3700  -9.2061  -9.1018   1.5003
     1.9612   2.6154   2.6432   3.0379   3.1226   3.5995   3.8523   3.8619
     5.7862   7.2827   7.5548   8.9197  10.0723

     occupation numbers 
     1.0000   1.0000   1.0000   1.0000   1.0000   1.0000   1.0000   1.0000
     1.0000   1.0000   1.0000   1.0000   1.0000   1.0000   1.0000   1.0000
     1.0000  -0.0000  -0.0000  -0.0000  -0.0000

          k =-1.7114 0.0000-0.0000 ( 12141 PWs)   bands (ev):

   -49.8698 -26.1415 -25.7879 -25.7513 -12.4136  -9.1911  -9.0392   1.6007
     1.6351   2.6931   2.7216   2.8044   3.4940   3.6993   3.7391   3.7643
     6.2170   7.0111   7.3691   8.7354   9.9358

     occupation numbers 
     1.0000   1.0000   1.0000   1.0000   1.0000   1.0000   1.0000   1.0000
     1.0000   1.0000   1.0000   1.0000   1.0000   1.0000   1.0000   1.0000
     1.0000  -0.0000  -0.0000  -0.0000  -0.0000

          k =-1.9966-1.7173-0.5415 ( 12132 PWs)   bands (ev):

   -49.8725 -26.1447 -25.7951 -25.7104 -12.4352  -9.2236  -9.1234   1.4804
     2.1136   2.6963   2.7556   3.3052   3.3110   3.3845   3.7638   4.0484
     5.5750   7.1824   7.5250   9.0183   9.8996

     occupation numbers 
     1.0000   1.0000   1.0000   1.0000   1.0000   1.0000   1.0000   1.0000
     1.0000   1.0000   1.0000   1.0000   1.0000   1.0000   1.0000   1.0000
     1.0000  -0.0000  -0.0000  -0.0000  -0.0000

     the Fermi energy is     6.7176 ev

!    total energy              =    -534.96705323 Ry

     total all-electron energy =     -9636.857296 Ry
     estimated scf accuracy    <          9.0E-12 Ry
     smearing contrib. (-TS)   =      -0.00002125 Ry
     internal energy E=F+TS    =    -534.96703198 Ry

     The total energy is F=E-TS. E is the sum of the following terms:
     one-electron contribution =     -93.93009718 Ry
     hartree contribution      =      61.19913104 Ry
     xc contribution           =     -39.53672468 Ry
     ewald contribution        =    -135.48921389 Ry
     one-center paw contrib.   =    -327.21012727 Ry
      -> PAW hartree energy AE =      29.12457894 Ry
      -> PAW hartree energy PS =     -29.09450251 Ry
      -> PAW xc energy AE      =     -17.04296771 Ry
      -> PAW xc energy PS      =       7.41882139 Ry
      -> total E_H with PAW    =      61.22920747 Ry
      -> total E_XC with PAW   =     -49.16087100 Ry

     convergence has been achieved in  13 iterations

     Forces acting on atoms (cartesian axes, Ry/au):

     atom    1 type  1   force =     0.00000000    0.00000000    0.00000000
     atom    2 type  2   force =     0.00000000    0.00000000    0.03588772
     atom    3 type  2   force =     0.00000000    0.00000000   -0.03588772
     atom    4 type  3   force =    -0.00000000   -0.00000000    0.00000000
     The non-local contrib.  to forces
     atom    1 type  1   force =    -0.00000000   -0.00000000    0.00000000
     atom    2 type  2   force =     0.00000000    0.00000000    0.06474166
     atom    3 type  2   force =     0.00000000    0.00000000   -0.06474166
     atom    4 type  3   force =    -0.00000000   -0.00000000   -0.00000000
     The ionic contribution  to forces
     atom    1 type  1   force =    -0.00000000   -0.00000000    0.00000000
     atom    2 type  2   force =     0.00000001    0.00000000  -10.07462875
     atom    3 type  2   force =    -0.00000001   -0.00000000   10.07462875
     atom    4 type  3   force =    -0.00000000   -0.00000000    0.00000000
     The local contribution  to forces
     atom    1 type  1   force =     0.00000000    0.00000000    0.00000000
     atom    2 type  2   force =     0.00000002   -0.00000003   10.04426575
     atom    3 type  2   force =    -0.00000002    0.00000003  -10.04426575
     atom    4 type  3   force =     0.00000000    0.00000000    0.00000000
     The core correction contribution to forces
     atom    1 type  1   force =     0.00000000    0.00000000    0.00000000
     atom    2 type  2   force =    -0.00000000    0.00000000    0.00150457
     atom    3 type  2   force =     0.00000000   -0.00000000   -0.00150457
     atom    4 type  3   force =     0.00000000    0.00000000    0.00000000
     The Hubbard contrib.    to forces
     atom    1 type  1   force =     0.00000000    0.00000000    0.00000000
     atom    2 type  2   force =     0.00000000    0.00000000    0.00000000
     atom    3 type  2   force =     0.00000000    0.00000000    0.00000000
     atom    4 type  3   force =     0.00000000    0.00000000    0.00000000
     The SCF correction term to forces
     atom    1 type  1   force =     0.00000000    0.00000000   -0.00000000
     atom    2 type  2   force =    -0.00000000    0.00000000    0.00000449
     atom    3 type  2   force =     0.00000000   -0.00000000   -0.00000449
     atom    4 type  3   force =    -0.00000000   -0.00000000   -0.00000000

     Total force =     0.050753     Total SCF correction =     0.000006


     Computing stress (Cartesian axis) and pressure

          total   stress  (Ry/bohr**3)                   (kbar)     P=      -38.95
  -0.00028041  -0.00000000   0.00000000          -41.25       -0.00        0.00
   0.00000000  -0.00025636   0.00000000            0.00      -37.71        0.00
   0.00000000   0.00000000  -0.00025764            0.00        0.00      -37.90

     kinetic stress (kbar)  14780.27     -0.00     -0.00
                               -0.00  14777.69     -0.00
                                0.00      0.00  14791.85

     local   stress (kbar) -18930.49      0.00      0.00
                                0.00 -24141.85      0.00
                                0.00      0.00   4074.35

     nonloc. stress (kbar)   8008.69      0.00      0.00
                                0.00   7931.76     -0.00
                               -0.00     -0.00   8006.91

     hartree stress (kbar)   8385.73      0.00     -0.00
                                0.00  10087.03     -0.00
                               -0.00     -0.00  -2042.41

     exc-cor stress (kbar)  -1130.81      0.00     -0.00
                                0.00  -1122.08     -0.00
                               -0.00     -0.00  -1130.42

     corecor stress (kbar)  -2029.51      0.00      0.00
                                0.00  -2028.82      0.00
                                0.00      0.00  -2029.49

     ewald   stress (kbar)  -9125.13      0.00     -0.00
                                0.00  -5541.44     -0.00
                               -0.00     -0.00 -21708.70

     hubbard stress (kbar)      0.00      0.00      0.00
                                0.00      0.00      0.00
                                0.00      0.00      0.00

     DFT-D   stress (kbar)      0.00      0.00      0.00
                                0.00      0.00      0.00
                                0.00      0.00      0.00

     XDM     stress (kbar)      0.00      0.00      0.00
                                0.00      0.00      0.00
                                0.00      0.00      0.00

     dft-nl  stress (kbar)      0.00      0.00      0.00
                                0.00      0.00      0.00
                                0.00      0.00      0.00

     TS-vdW  stress (kbar)      0.00      0.00      0.00
                                0.00      0.00      0.00
                                0.00      0.00      0.00



     Writing output data file /zfs_data/gutierre/Scratch/Cl2NbO/smearing/14x14x14/0.003/tmp/Cl2NbO.save/
 
     init_run     :      9.04s CPU      9.35s WALL (       1 calls)
     electrons    :    276.70s CPU    283.48s WALL (       1 calls)
     forces       :      1.20s CPU      1.22s WALL (       1 calls)
     stress       :      3.23s CPU      3.26s WALL (       1 calls)

     Called by init_run:
     wfcinit      :      7.83s CPU      8.07s WALL (       1 calls)
     wfcinit:atom :      0.06s CPU      0.06s WALL (     428 calls)
     wfcinit:wfcr :      7.53s CPU      7.76s WALL (     428 calls)
     potinit      :      0.37s CPU      0.39s WALL (       1 calls)
     hinit0       :      0.48s CPU      0.49s WALL (       1 calls)

     Called by electrons:
     c_bands      :    227.47s CPU    233.07s WALL (      13 calls)
     sum_band     :     46.01s CPU     47.11s WALL (      13 calls)
     v_of_rho     :      1.26s CPU      1.30s WALL (      14 calls)
     v_h          :      0.10s CPU      0.10s WALL (      14 calls)
     v_xc         :      1.33s CPU      1.37s WALL (      16 calls)
     newd         :      1.08s CPU      1.10s WALL (      14 calls)
     PAW_pot      :      0.73s CPU      0.74s WALL (      14 calls)
     mix_rho      :      0.18s CPU      0.19s WALL (      13 calls)

     Called by c_bands:
     init_us_2    :      3.01s CPU      3.17s WALL (   12412 calls)
     cegterg      :    221.13s CPU    226.32s WALL (    5564 calls)

     Called by sum_band:
     sum_band:wei :      0.16s CPU      0.16s WALL (      13 calls)
     sum_band:loo :     44.63s CPU     45.67s WALL (      13 calls)
     sum_band:buf :      0.43s CPU      0.45s WALL (    5564 calls)
     sum_band:ini :      1.41s CPU      1.45s WALL (    5564 calls)
     sum_band:cal :      1.54s CPU      1.57s WALL (    5564 calls)
     sum_band:bec :      0.16s CPU      0.16s WALL (    5564 calls)
     addusdens    :      1.06s CPU      1.11s WALL (      13 calls)
     addusd:skk   :      0.01s CPU      0.01s WALL (      39 calls)
     addusd:dgemm :      0.29s CPU      0.33s WALL (      39 calls)
     addusd:qvan2 :      0.72s CPU      0.72s WALL (      39 calls)

     Called by *egterg:
     cdiaghg      :     12.36s CPU     12.73s WALL (   21111 calls)
     cegterg:over :      4.31s CPU      4.42s WALL (   15547 calls)
     cegterg:upda :      1.29s CPU      1.32s WALL (   15547 calls)
     cegterg:last :      2.27s CPU      2.31s WALL (   11860 calls)
     h_psi        :    202.50s CPU    207.32s WALL (   21539 calls)
     s_psi        :      1.40s CPU      1.42s WALL (   21539 calls)
     g_psi        :      0.28s CPU      0.29s WALL (   15547 calls)

     Called by h_psi:
     h_psi:calbec :      5.13s CPU      5.26s WALL (   21539 calls)
     vloc_psi     :    194.45s CPU    199.09s WALL (   21539 calls)
     add_vuspsi   :      2.19s CPU      2.25s WALL (   21539 calls)

     General routines
     calbec       :      6.85s CPU      7.03s WALL (   29243 calls)
     fft          :      1.07s CPU      1.09s WALL (     205 calls)
     ffts         :      0.02s CPU      0.02s WALL (      27 calls)
     fftw         :    210.73s CPU    215.91s WALL (  728724 calls)
     interpolate  :      0.10s CPU      0.10s WALL (      14 calls)
 
     Parallel routines
     fft_scatt_xy :     28.02s CPU     28.51s WALL (  728956 calls)
     fft_scatt_yz :     92.85s CPU     95.23s WALL (  728956 calls)

     PAW routines
     PAW_pot      :      0.73s CPU      0.74s WALL (      14 calls)
     PAW_symme    :      0.02s CPU      0.02s WALL (      27 calls)
 
     PWSCF        :   4m52.84s CPU   5m 5.44s WALL

 
   This run was terminated on:  17:46: 9  18May2022            

=------------------------------------------------------------------------------=
   JOB DONE.
=------------------------------------------------------------------------------=
