MPI startup(): Warning: I_MPI_PMI_LIBRARY will be ignored since the hydra process manager was found
MPI startup(): Warning: I_MPI_PMI_LIBRARY will be ignored since the hydra process manager was found
MPI startup(): Warning: I_MPI_PMI_LIBRARY will be ignored since the hydra process manager was found
MPI startup(): Warning: I_MPI_PMI_LIBRARY will be ignored since the hydra process manager was found
MPI startup(): Warning: I_MPI_PMI_LIBRARY will be ignored since the hydra process manager was found
MPI startup(): Warning: I_MPI_PMI_LIBRARY will be ignored since the hydra process manager was found
MPI startup(): Warning: I_MPI_PMI_LIBRARY will be ignored since the hydra process manager was found
MPI startup(): Warning: I_MPI_PMI_LIBRARY will be ignored since the hydra process manager was found
MPI startup(): Warning: I_MPI_PMI_LIBRARY will be ignored since the hydra process manager was found
MPI startup(): Warning: I_MPI_PMI_LIBRARY will be ignored since the hydra process manager was found
MPI startup(): Warning: I_MPI_PMI_LIBRARY will be ignored since the hydra process manager was found
MPI startup(): Warning: I_MPI_PMI_LIBRARY will be ignored since the hydra process manager was found
MPI startup(): Warning: I_MPI_PMI_LIBRARY will be ignored since the hydra process manager was found
MPI startup(): Warning: I_MPI_PMI_LIBRARY will be ignored since the hydra process manager was found
MPI startup(): Warning: I_MPI_PMI_LIBRARY will be ignored since the hydra process manager was found
MPI startup(): Warning: I_MPI_PMI_LIBRARY will be ignored since the hydra process manager was found
MPI startup(): Warning: I_MPI_PMI_LIBRARY will be ignored since the hydra process manager was found
MPI startup(): Warning: I_MPI_PMI_LIBRARY will be ignored since the hydra process manager was found
MPI startup(): Warning: I_MPI_PMI_LIBRARY will be ignored since the hydra process manager was found
MPI startup(): Warning: I_MPI_PMI_LIBRARY will be ignored since the hydra process manager was found
MPI startup(): Warning: I_MPI_PMI_LIBRARY will be ignored since the hydra process manager was found
MPI startup(): Warning: I_MPI_PMI_LIBRARY will be ignored since the hydra process manager was found
MPI startup(): Warning: I_MPI_PMI_LIBRARY will be ignored since the hydra process manager was found
MPI startup(): Warning: I_MPI_PMI_LIBRARY will be ignored since the hydra process manager was found

     Program PWSCF v.6.7MaX starts on  1Aug2021 at 12:33:52 

     This program is part of the open-source Quantum ESPRESSO suite
     for quantum simulation of materials; please cite
         "P. Giannozzi et al., J. Phys.:Condens. Matter 21 395502 (2009);
         "P. Giannozzi et al., J. Phys.:Condens. Matter 29 465901 (2017);
          URL http://www.quantum-espresso.org", 
     in publications or presentations arising from this work. More details at
     http://www.quantum-espresso.org/quote

     Parallel version (MPI), running on    24 processors

     MPI processes distributed on     1 nodes
     R & G space division:  proc/nbgrp/npool/nimage =      24
     Waiting for input...
     Reading input from standard input

     Current dimensions of program PWSCF are:
     Max number of different atomic species (ntypx) = 10
     Max number of k-points (npk) =  40000
     Max angular momentum in pseudopotentials (lmaxx) =  3
     file Cr.rel-pbe-spn-kjpaw_psl.1.0.0.UPF: wavefunction(s)  3S 3P 3P 3D 3D renormalized
     file Si.rel-pbe-n-kjpaw_psl.1.0.0.UPF: wavefunction(s)  3S 3P 3P renormalized

     Subspace diagonalization in iterative solution of the eigenvalue problem:
     a serial algorithm will be used

     Message from routine setup:
     using ibrav=0 with symmetry is DISCOURAGED, use correct ibrav instead
 
     Parallelization info
     --------------------
     sticks:   dense  smooth     PW     G-vecs:    dense   smooth      PW
     Min         228      91     25                12702     3210     487
     Max         229      93     26                12704     3214     492
     Sum        5473    2201    621               304867    77053   11753
 


     bravais-lattice index     =            0
     lattice parameter (alat)  =       8.7475  a.u.
     unit-cell volume          =     669.3575 (a.u.)^3
     number of atoms/cell      =            8
     number of atomic types    =            2
     number of electrons       =        72.00
     number of Kohn-Sham states=           86
     kinetic-energy cutoff     =      90.0000  Ry
     charge density cutoff     =     900.0000  Ry
     scf convergence threshold =      1.0E-06
     mixing beta               =       0.7000
     number of iterations used =            8  plain     mixing
     Exchange-correlation= SLA  PW   PBX  PBC
                           (   1   4   3   4   0   0   0)
     Non magnetic calculation with spin-orbit


     celldm(1)=   8.747542  celldm(2)=   0.000000  celldm(3)=   0.000000
     celldm(4)=   0.000000  celldm(5)=   0.000000  celldm(6)=   0.000000

     crystal axes: (cart. coord. in units of alat)
               a(1) = (   1.000000   0.000000   0.000000 )  
               a(2) = (   0.000000   1.000000   0.000000 )  
               a(3) = (   0.000000   0.000000   1.000000 )  

     reciprocal axes: (cart. coord. in units 2 pi/alat)
               b(1) = (  1.000000  0.000000  0.000000 )  
               b(2) = (  0.000000  1.000000  0.000000 )  
               b(3) = (  0.000000  0.000000  1.000000 )  


     PseudoPot. # 1 for Cr read from file:
     ../../../../pseudo/Cr.rel-pbe-spn-kjpaw_psl.1.0.0.UPF
     MD5 check sum: 1e24e2b5251376a8b945118fca0c7981
     Pseudo is Projector augmented-wave + core cor, Zval = 14.0
     Generated using &quot;atomic&quot; code by A. Dal Corso  v.6.3
     Shape of augmentation charge: PSQ
     Using radial grid of 1183 points, 10 beta functions with: 
                l(1) =   0
                l(2) =   0
                l(3) =   1
                l(4) =   1
                l(5) =   1
                l(6) =   1
                l(7) =   2
                l(8) =   2
                l(9) =   2
               l(10) =   2
     Q(r) pseudized with 0 coefficients 


     PseudoPot. # 2 for Si read from file:
     ../../../../pseudo/Si.rel-pbe-n-kjpaw_psl.1.0.0.UPF
     MD5 check sum: d74f6caf6830ea4c2076867160cab1b0
     Pseudo is Projector augmented-wave + core cor, Zval =  4.0
     Generated using &quot;atomic&quot; code by A. Dal Corso  v.6.3
     Shape of augmentation charge: PSQ
     Using radial grid of 1141 points, 10 beta functions with: 
                l(1) =   0
                l(2) =   0
                l(3) =   1
                l(4) =   1
                l(5) =   1
                l(6) =   1
                l(7) =   2
                l(8) =   2
                l(9) =   2
               l(10) =   2
     Q(r) pseudized with 0 coefficients 


     atomic species   valence    mass     pseudopotential
        Cr            14.00    51.99600     Cr( 1.00)
        Si             4.00    28.08500     Si( 1.00)

     12 Sym. Ops. (no inversion) found ( 9 have fractional translation)


                                    s                        frac. trans.

      isym =  1     identity                                     

 cryst.   s( 1) = (     1          0          0      )
                  (     0          1          0      )
                  (     0          0          1      )

 cart.    s( 1) = (  1.0000000  0.0000000  0.0000000 )
                  (  0.0000000  1.0000000  0.0000000 )
                  (  0.0000000  0.0000000  1.0000000 )


      isym =  2     180 deg rotation - cart. axis [0,0,1]        

 cryst.   s( 2) = (    -1          0          0      )    f =(  0.5000000 )
                  (     0         -1          0      )       (  0.0000000 )
                  (     0          0          1      )       ( -0.5000000 )

 cart.    s( 2) = ( -1.0000000  0.0000000  0.0000000 )    f =(  0.5000000 )
                  (  0.0000000 -1.0000000  0.0000000 )       (  0.0000000 )
                  (  0.0000000  0.0000000  1.0000000 )       ( -0.5000000 )


      isym =  3     180 deg rotation - cart. axis [0,1,0]        

 cryst.   s( 3) = (    -1          0          0      )    f =(  0.0000000 )
                  (     0          1          0      )       ( -0.5000000 )
                  (     0          0         -1      )       (  0.5000000 )

 cart.    s( 3) = ( -1.0000000  0.0000000  0.0000000 )    f =(  0.0000000 )
                  (  0.0000000  1.0000000  0.0000000 )       ( -0.5000000 )
                  (  0.0000000  0.0000000 -1.0000000 )       (  0.5000000 )


      isym =  4     180 deg rotation - cart. axis [1,0,0]        

 cryst.   s( 4) = (     1          0          0      )    f =(  0.5000000 )
                  (     0         -1          0      )       (  0.5000000 )
                  (     0          0         -1      )       (  0.0000000 )

 cart.    s( 4) = (  1.0000000  0.0000000  0.0000000 )    f =(  0.5000000 )
                  (  0.0000000 -1.0000000  0.0000000 )       (  0.5000000 )
                  (  0.0000000  0.0000000 -1.0000000 )       (  0.0000000 )


      isym =  5     120 deg rotation - cart. axis [-1,-1,-1]     

 cryst.   s( 5) = (     0          0          1      )
                  (     1          0          0      )
                  (     0          1          0      )

 cart.    s( 5) = (  0.0000000  1.0000000  0.0000000 )
                  (  0.0000000  0.0000000  1.0000000 )
                  (  1.0000000  0.0000000  0.0000000 )


      isym =  6     120 deg rotation - cart. axis [-1,1,1]       

 cryst.   s( 6) = (     0          0         -1      )    f =(  0.0000000 )
                  (    -1          0          0      )       ( -0.5000000 )
                  (     0          1          0      )       (  0.5000000 )

 cart.    s( 6) = (  0.0000000 -1.0000000  0.0000000 )    f =(  0.0000000 )
                  (  0.0000000  0.0000000  1.0000000 )       ( -0.5000000 )
                  ( -1.0000000  0.0000000  0.0000000 )       (  0.5000000 )


      isym =  7     120 deg rotation - cart. axis [1,1,-1]       

 cryst.   s( 7) = (     0          0         -1      )    f =(  0.5000000 )
                  (     1          0          0      )       (  0.5000000 )
                  (     0         -1          0      )       (  0.0000000 )

 cart.    s( 7) = (  0.0000000  1.0000000  0.0000000 )    f =(  0.5000000 )
                  (  0.0000000  0.0000000 -1.0000000 )       (  0.5000000 )
                  ( -1.0000000  0.0000000  0.0000000 )       (  0.0000000 )


      isym =  8     120 deg rotation - cart. axis [1,-1,1]       

 cryst.   s( 8) = (     0          0          1      )    f =(  0.5000000 )
                  (    -1          0          0      )       (  0.0000000 )
                  (     0         -1          0      )       ( -0.5000000 )

 cart.    s( 8) = (  0.0000000 -1.0000000  0.0000000 )    f =(  0.5000000 )
                  (  0.0000000  0.0000000 -1.0000000 )       (  0.0000000 )
                  (  1.0000000  0.0000000  0.0000000 )       ( -0.5000000 )


      isym =  9     120 deg rotation - cart. axis [1,1,1]        

 cryst.   s( 9) = (     0          1          0      )
                  (     0          0          1      )
                  (     1          0          0      )

 cart.    s( 9) = (  0.0000000  0.0000000  1.0000000 )
                  (  1.0000000  0.0000000  0.0000000 )
                  (  0.0000000  1.0000000  0.0000000 )


      isym = 10     120 deg rotation - cart. axis [-1,1,-1]      

 cryst.   s(10) = (     0         -1          0      )    f =(  0.5000000 )
                  (     0          0         -1      )       (  0.5000000 )
                  (     1          0          0      )       (  0.0000000 )

 cart.    s(10) = (  0.0000000  0.0000000  1.0000000 )    f =(  0.5000000 )
                  ( -1.0000000  0.0000000  0.0000000 )       (  0.5000000 )
                  (  0.0000000 -1.0000000  0.0000000 )       (  0.0000000 )


      isym = 11     120 deg rotation - cart. axis [1,-1,-1]      

 cryst.   s(11) = (     0         -1          0      )    f =(  0.5000000 )
                  (     0          0          1      )       (  0.0000000 )
                  (    -1          0          0      )       ( -0.5000000 )

 cart.    s(11) = (  0.0000000  0.0000000 -1.0000000 )    f =(  0.5000000 )
                  ( -1.0000000  0.0000000  0.0000000 )       (  0.0000000 )
                  (  0.0000000  1.0000000  0.0000000 )       ( -0.5000000 )


      isym = 12     120 deg rotation - cart. axis [-1,-1,1]      

 cryst.   s(12) = (     0          1          0      )    f =(  0.0000000 )
                  (     0          0         -1      )       ( -0.5000000 )
                  (    -1          0          0      )       (  0.5000000 )

 cart.    s(12) = (  0.0000000  0.0000000 -1.0000000 )    f =(  0.0000000 )
                  (  1.0000000  0.0000000  0.0000000 )       ( -0.5000000 )
                  (  0.0000000 -1.0000000  0.0000000 )       (  0.5000000 )


   Cartesian axes

     site n.     atom                  positions (alat units)
         1           Cr  tau(   1) = (   0.8640000   0.3640000   0.1360000  )
         2           Cr  tau(   2) = (   0.3640000   0.1360000   0.8640000  )
         3           Cr  tau(   3) = (   0.1360000   0.8640000   0.3640000  )
         4           Cr  tau(   4) = (   0.6360000   0.6360000   0.6360000  )
         5           Si  tau(   5) = (   0.1540000   0.6540000   0.8460000  )
         6           Si  tau(   6) = (   0.6540000   0.8460000   0.1540000  )
         7           Si  tau(   7) = (   0.8460000   0.1540000   0.6540000  )
         8           Si  tau(   8) = (   0.3460000   0.3460000   0.3460000  )

   Crystallographic axes

     site n.     atom                  positions (cryst. coord.)
         1           Cr  tau(   1) = (  0.8640000  0.3640000  0.1360000  )
         2           Cr  tau(   2) = (  0.3640000  0.1360000  0.8640000  )
         3           Cr  tau(   3) = (  0.1360000  0.8640000  0.3640000  )
         4           Cr  tau(   4) = (  0.6360000  0.6360000  0.6360000  )
         5           Si  tau(   5) = (  0.1540000  0.6540000  0.8460000  )
         6           Si  tau(   6) = (  0.6540000  0.8460000  0.1540000  )
         7           Si  tau(   7) = (  0.8460000  0.1540000  0.6540000  )
         8           Si  tau(   8) = (  0.3460000  0.3460000  0.3460000  )

     number of k points=    76  Methfessel-Paxton smearing, width (Ry)=  0.0180
                       cart. coord. in units 2pi/alat
        k(    1) = (   0.0000000   0.0000000   0.0000000), wk =   0.0010000
        k(    2) = (   0.0000000   0.0000000   0.1000000), wk =   0.0060000
        k(    3) = (   0.0000000   0.0000000   0.2000000), wk =   0.0060000
        k(    4) = (   0.0000000   0.0000000   0.3000000), wk =   0.0060000
        k(    5) = (   0.0000000   0.0000000   0.4000000), wk =   0.0060000
        k(    6) = (   0.0000000   0.0000000  -0.5000000), wk =   0.0030000
        k(    7) = (   0.0000000   0.1000000   0.1000000), wk =   0.0120000
        k(    8) = (   0.0000000   0.1000000   0.2000000), wk =   0.0120000
        k(    9) = (   0.0000000   0.1000000   0.3000000), wk =   0.0120000
        k(   10) = (   0.0000000   0.1000000   0.4000000), wk =   0.0120000
        k(   11) = (   0.0000000   0.1000000  -0.5000000), wk =   0.0060000
        k(   12) = (   0.0000000   0.2000000   0.2000000), wk =   0.0120000
        k(   13) = (   0.0000000   0.2000000   0.3000000), wk =   0.0120000
        k(   14) = (   0.0000000   0.2000000   0.4000000), wk =   0.0120000
        k(   15) = (   0.0000000   0.2000000  -0.5000000), wk =   0.0060000
        k(   16) = (   0.0000000   0.3000000   0.3000000), wk =   0.0120000
        k(   17) = (   0.0000000   0.3000000   0.4000000), wk =   0.0120000
        k(   18) = (   0.0000000   0.3000000  -0.5000000), wk =   0.0060000
        k(   19) = (   0.0000000   0.4000000   0.4000000), wk =   0.0120000
        k(   20) = (   0.0000000   0.4000000  -0.5000000), wk =   0.0060000
        k(   21) = (   0.0000000  -0.5000000  -0.5000000), wk =   0.0030000
        k(   22) = (   0.1000000   0.1000000   0.1000000), wk =   0.0080000
        k(   23) = (   0.1000000   0.1000000   0.2000000), wk =   0.0240000
        k(   24) = (   0.1000000   0.1000000   0.3000000), wk =   0.0240000
        k(   25) = (   0.1000000   0.1000000   0.4000000), wk =   0.0240000
        k(   26) = (   0.1000000   0.1000000  -0.5000000), wk =   0.0120000
        k(   27) = (   0.1000000   0.2000000   0.2000000), wk =   0.0240000
        k(   28) = (   0.1000000   0.2000000   0.3000000), wk =   0.0240000
        k(   29) = (   0.1000000   0.2000000   0.4000000), wk =   0.0240000
        k(   30) = (   0.1000000   0.2000000  -0.5000000), wk =   0.0120000
        k(   31) = (   0.1000000   0.3000000   0.3000000), wk =   0.0240000
        k(   32) = (   0.1000000   0.3000000   0.4000000), wk =   0.0240000
        k(   33) = (   0.1000000   0.3000000  -0.5000000), wk =   0.0120000
        k(   34) = (   0.1000000   0.4000000   0.4000000), wk =   0.0240000
        k(   35) = (   0.1000000   0.4000000  -0.5000000), wk =   0.0120000
        k(   36) = (   0.1000000  -0.5000000  -0.5000000), wk =   0.0060000
        k(   37) = (   0.2000000   0.2000000   0.2000000), wk =   0.0080000
        k(   38) = (   0.2000000   0.2000000   0.3000000), wk =   0.0240000
        k(   39) = (   0.2000000   0.2000000   0.4000000), wk =   0.0240000
        k(   40) = (   0.2000000   0.2000000  -0.5000000), wk =   0.0120000
        k(   41) = (   0.2000000   0.3000000   0.3000000), wk =   0.0240000
        k(   42) = (   0.2000000   0.3000000   0.4000000), wk =   0.0240000
        k(   43) = (   0.2000000   0.3000000  -0.5000000), wk =   0.0120000
        k(   44) = (   0.2000000   0.4000000   0.4000000), wk =   0.0240000
        k(   45) = (   0.2000000   0.4000000  -0.5000000), wk =   0.0120000
        k(   46) = (   0.2000000  -0.5000000  -0.5000000), wk =   0.0060000
        k(   47) = (   0.3000000   0.3000000   0.3000000), wk =   0.0080000
        k(   48) = (   0.3000000   0.3000000   0.4000000), wk =   0.0240000
        k(   49) = (   0.3000000   0.3000000  -0.5000000), wk =   0.0120000
        k(   50) = (   0.3000000   0.4000000   0.4000000), wk =   0.0240000
        k(   51) = (   0.3000000   0.4000000  -0.5000000), wk =   0.0120000
        k(   52) = (   0.3000000  -0.5000000  -0.5000000), wk =   0.0060000
        k(   53) = (   0.4000000   0.4000000   0.4000000), wk =   0.0080000
        k(   54) = (   0.4000000   0.4000000  -0.5000000), wk =   0.0120000
        k(   55) = (   0.4000000  -0.5000000  -0.5000000), wk =   0.0060000
        k(   56) = (  -0.5000000  -0.5000000  -0.5000000), wk =   0.0010000
        k(   57) = (   0.0000000   0.2000000   0.1000000), wk =   0.0120000
        k(   58) = (   0.0000000   0.3000000   0.1000000), wk =   0.0120000
        k(   59) = (   0.0000000   0.4000000   0.1000000), wk =   0.0120000
        k(   60) = (   0.0000000  -0.5000000   0.1000000), wk =   0.0060000
        k(   61) = (   0.0000000   0.3000000   0.2000000), wk =   0.0120000
        k(   62) = (   0.0000000   0.4000000   0.2000000), wk =   0.0120000
        k(   63) = (   0.0000000  -0.5000000   0.2000000), wk =   0.0060000
        k(   64) = (   0.0000000   0.4000000   0.3000000), wk =   0.0120000
        k(   65) = (   0.0000000  -0.5000000   0.3000000), wk =   0.0060000
        k(   66) = (   0.0000000  -0.5000000   0.4000000), wk =   0.0060000
        k(   67) = (  -0.1000000   0.3000000   0.2000000), wk =   0.0240000
        k(   68) = (  -0.1000000   0.4000000   0.2000000), wk =   0.0240000
        k(   69) = (  -0.1000000  -0.5000000   0.2000000), wk =   0.0120000
        k(   70) = (  -0.1000000   0.4000000   0.3000000), wk =   0.0240000
        k(   71) = (  -0.1000000  -0.5000000   0.3000000), wk =   0.0120000
        k(   72) = (  -0.1000000  -0.5000000   0.4000000), wk =   0.0120000
        k(   73) = (  -0.2000000   0.4000000   0.3000000), wk =   0.0240000
        k(   74) = (  -0.2000000  -0.5000000   0.3000000), wk =   0.0120000
        k(   75) = (  -0.2000000  -0.5000000   0.4000000), wk =   0.0120000
        k(   76) = (  -0.3000000  -0.5000000   0.4000000), wk =   0.0120000

                       cryst. coord.
        k(    1) = (   0.0000000   0.0000000   0.0000000), wk =   0.0010000
        k(    2) = (   0.0000000   0.0000000   0.1000000), wk =   0.0060000
        k(    3) = (   0.0000000   0.0000000   0.2000000), wk =   0.0060000
        k(    4) = (   0.0000000   0.0000000   0.3000000), wk =   0.0060000
        k(    5) = (   0.0000000   0.0000000   0.4000000), wk =   0.0060000
        k(    6) = (   0.0000000   0.0000000  -0.5000000), wk =   0.0030000
        k(    7) = (   0.0000000   0.1000000   0.1000000), wk =   0.0120000
        k(    8) = (   0.0000000   0.1000000   0.2000000), wk =   0.0120000
        k(    9) = (   0.0000000   0.1000000   0.3000000), wk =   0.0120000
        k(   10) = (   0.0000000   0.1000000   0.4000000), wk =   0.0120000
        k(   11) = (   0.0000000   0.1000000  -0.5000000), wk =   0.0060000
        k(   12) = (   0.0000000   0.2000000   0.2000000), wk =   0.0120000
        k(   13) = (   0.0000000   0.2000000   0.3000000), wk =   0.0120000
        k(   14) = (   0.0000000   0.2000000   0.4000000), wk =   0.0120000
        k(   15) = (   0.0000000   0.2000000  -0.5000000), wk =   0.0060000
        k(   16) = (   0.0000000   0.3000000   0.3000000), wk =   0.0120000
        k(   17) = (   0.0000000   0.3000000   0.4000000), wk =   0.0120000
        k(   18) = (   0.0000000   0.3000000  -0.5000000), wk =   0.0060000
        k(   19) = (   0.0000000   0.4000000   0.4000000), wk =   0.0120000
        k(   20) = (   0.0000000   0.4000000  -0.5000000), wk =   0.0060000
        k(   21) = (   0.0000000  -0.5000000  -0.5000000), wk =   0.0030000
        k(   22) = (   0.1000000   0.1000000   0.1000000), wk =   0.0080000
        k(   23) = (   0.1000000   0.1000000   0.2000000), wk =   0.0240000
        k(   24) = (   0.1000000   0.1000000   0.3000000), wk =   0.0240000
        k(   25) = (   0.1000000   0.1000000   0.4000000), wk =   0.0240000
        k(   26) = (   0.1000000   0.1000000  -0.5000000), wk =   0.0120000
        k(   27) = (   0.1000000   0.2000000   0.2000000), wk =   0.0240000
        k(   28) = (   0.1000000   0.2000000   0.3000000), wk =   0.0240000
        k(   29) = (   0.1000000   0.2000000   0.4000000), wk =   0.0240000
        k(   30) = (   0.1000000   0.2000000  -0.5000000), wk =   0.0120000
        k(   31) = (   0.1000000   0.3000000   0.3000000), wk =   0.0240000
        k(   32) = (   0.1000000   0.3000000   0.4000000), wk =   0.0240000
        k(   33) = (   0.1000000   0.3000000  -0.5000000), wk =   0.0120000
        k(   34) = (   0.1000000   0.4000000   0.4000000), wk =   0.0240000
        k(   35) = (   0.1000000   0.4000000  -0.5000000), wk =   0.0120000
        k(   36) = (   0.1000000  -0.5000000  -0.5000000), wk =   0.0060000
        k(   37) = (   0.2000000   0.2000000   0.2000000), wk =   0.0080000
        k(   38) = (   0.2000000   0.2000000   0.3000000), wk =   0.0240000
        k(   39) = (   0.2000000   0.2000000   0.4000000), wk =   0.0240000
        k(   40) = (   0.2000000   0.2000000  -0.5000000), wk =   0.0120000
        k(   41) = (   0.2000000   0.3000000   0.3000000), wk =   0.0240000
        k(   42) = (   0.2000000   0.3000000   0.4000000), wk =   0.0240000
        k(   43) = (   0.2000000   0.3000000  -0.5000000), wk =   0.0120000
        k(   44) = (   0.2000000   0.4000000   0.4000000), wk =   0.0240000
        k(   45) = (   0.2000000   0.4000000  -0.5000000), wk =   0.0120000
        k(   46) = (   0.2000000  -0.5000000  -0.5000000), wk =   0.0060000
        k(   47) = (   0.3000000   0.3000000   0.3000000), wk =   0.0080000
        k(   48) = (   0.3000000   0.3000000   0.4000000), wk =   0.0240000
        k(   49) = (   0.3000000   0.3000000  -0.5000000), wk =   0.0120000
        k(   50) = (   0.3000000   0.4000000   0.4000000), wk =   0.0240000
        k(   51) = (   0.3000000   0.4000000  -0.5000000), wk =   0.0120000
        k(   52) = (   0.3000000  -0.5000000  -0.5000000), wk =   0.0060000
        k(   53) = (   0.4000000   0.4000000   0.4000000), wk =   0.0080000
        k(   54) = (   0.4000000   0.4000000  -0.5000000), wk =   0.0120000
        k(   55) = (   0.4000000  -0.5000000  -0.5000000), wk =   0.0060000
        k(   56) = (  -0.5000000  -0.5000000  -0.5000000), wk =   0.0010000
        k(   57) = (   0.0000000   0.2000000   0.1000000), wk =   0.0120000
        k(   58) = (   0.0000000   0.3000000   0.1000000), wk =   0.0120000
        k(   59) = (   0.0000000   0.4000000   0.1000000), wk =   0.0120000
        k(   60) = (   0.0000000  -0.5000000   0.1000000), wk =   0.0060000
        k(   61) = (   0.0000000   0.3000000   0.2000000), wk =   0.0120000
        k(   62) = (   0.0000000   0.4000000   0.2000000), wk =   0.0120000
        k(   63) = (   0.0000000  -0.5000000   0.2000000), wk =   0.0060000
        k(   64) = (   0.0000000   0.4000000   0.3000000), wk =   0.0120000
        k(   65) = (   0.0000000  -0.5000000   0.3000000), wk =   0.0060000
        k(   66) = (   0.0000000  -0.5000000   0.4000000), wk =   0.0060000
        k(   67) = (  -0.1000000   0.3000000   0.2000000), wk =   0.0240000
        k(   68) = (  -0.1000000   0.4000000   0.2000000), wk =   0.0240000
        k(   69) = (  -0.1000000  -0.5000000   0.2000000), wk =   0.0120000
        k(   70) = (  -0.1000000   0.4000000   0.3000000), wk =   0.0240000
        k(   71) = (  -0.1000000  -0.5000000   0.3000000), wk =   0.0120000
        k(   72) = (  -0.1000000  -0.5000000   0.4000000), wk =   0.0120000
        k(   73) = (  -0.2000000   0.4000000   0.3000000), wk =   0.0240000
        k(   74) = (  -0.2000000  -0.5000000   0.3000000), wk =   0.0120000
        k(   75) = (  -0.2000000  -0.5000000   0.4000000), wk =   0.0120000
        k(   76) = (  -0.3000000  -0.5000000   0.4000000), wk =   0.0120000

     Dense  grid:   304867 G-vectors     FFT dimensions: (  90,  90,  90)

     Smooth grid:    77053 G-vectors     FFT dimensions: (  54,  54,  54)

     Dynamical RAM for                 wfc:       1.06 MB

     Dynamical RAM for     wfc (w. buffer):      81.24 MB

     Dynamical RAM for           str. fact:       0.39 MB

     Dynamical RAM for           local pot:       0.00 MB

     Dynamical RAM for          nlocal pot:       1.67 MB

     Dynamical RAM for                qrad:      12.61 MB

     Dynamical RAM for          rho,v,vnew:       5.29 MB

     Dynamical RAM for               rhoin:       1.76 MB

     Dynamical RAM for            rho*nmix:      12.41 MB

     Dynamical RAM for           G-vectors:       0.75 MB

     Dynamical RAM for          h,s,v(r/c):       1.35 MB

     Dynamical RAM for          <psi|beta>:       0.71 MB

     Dynamical RAM for                 psi:       2.11 MB

     Dynamical RAM for                hpsi:       2.11 MB

     Dynamical RAM for                spsi:       2.11 MB

     Dynamical RAM for      wfcinit/wfcrot:       2.35 MB

     Dynamical RAM for           addusdens:     119.02 MB

     Dynamical RAM for          addusforce:     120.34 MB

     Dynamical RAM for         addusstress:     121.74 MB

     Estimated static dynamical RAM per process >     118.67 MB

     Estimated max dynamical RAM per process >     240.41 MB

     Estimated total dynamical RAM >       5.63 GB

     Initial potential from superposition of free atoms

     starting charge   71.99469, renormalised to   72.00000
     Starting wfcs are  112 randomized atomic wfcs
     Checking if some PAW data can be deallocated... 
       PAW data deallocated on   12 nodes for type:  1
       PAW data deallocated on   12 nodes for type:  2

     total cpu time spent up to now is       16.2 secs

     Self-consistent Calculation

     iteration #  1     ecut=    90.00 Ry     beta= 0.70
     Davidson diagonalization with overlap
     ethr =  1.00E-02,  avg # of iterations =  2.0

     Threshold (ethr) on eigenvalues was too large:
     Diagonalizing with lowered threshold

     Davidson diagonalization with overlap
     ethr =  2.09E-04,  avg # of iterations =  4.3

     total cpu time spent up to now is       94.4 secs

     total energy              =   -1180.30993964 Ry
     estimated scf accuracy    <       0.18900416 Ry

     iteration #  2     ecut=    90.00 Ry     beta= 0.70
     Davidson diagonalization with overlap
     ethr =  2.63E-04,  avg # of iterations =  3.2

     total cpu time spent up to now is      133.9 secs

     total energy              =   -1180.31508409 Ry
     estimated scf accuracy    <       0.08043194 Ry

     iteration #  3     ecut=    90.00 Ry     beta= 0.70
     Davidson diagonalization with overlap
     ethr =  1.12E-04,  avg # of iterations =  5.1

     total cpu time spent up to now is      182.5 secs

     total energy              =   -1180.32608368 Ry
     estimated scf accuracy    <       0.16195745 Ry

     iteration #  4     ecut=    90.00 Ry     beta= 0.70
     Davidson diagonalization with overlap
     ethr =  1.12E-04,  avg # of iterations =  4.1

     total cpu time spent up to now is      221.5 secs

     total energy              =   -1180.34992025 Ry
     estimated scf accuracy    <       0.00034073 Ry

     iteration #  5     ecut=    90.00 Ry     beta= 0.70
     Davidson diagonalization with overlap
     ethr =  4.73E-07,  avg # of iterations =  8.3

     total cpu time spent up to now is      281.7 secs

     total energy              =   -1180.35053532 Ry
     estimated scf accuracy    <       0.00030338 Ry

     iteration #  6     ecut=    90.00 Ry     beta= 0.70
     Davidson diagonalization with overlap
     ethr =  4.21E-07,  avg # of iterations =  2.6

     total cpu time spent up to now is      315.2 secs

     total energy              =   -1180.35058405 Ry
     estimated scf accuracy    <       0.00000425 Ry

     iteration #  7     ecut=    90.00 Ry     beta= 0.70
     Davidson diagonalization with overlap
     ethr =  5.91E-09,  avg # of iterations =  6.3

     total cpu time spent up to now is      368.7 secs

     total energy              =   -1180.35058723 Ry
     estimated scf accuracy    <       0.00003494 Ry

     iteration #  8     ecut=    90.00 Ry     beta= 0.70
     Davidson diagonalization with overlap
     ethr =  5.91E-09,  avg # of iterations =  5.1

     total cpu time spent up to now is      418.9 secs

     End of self-consistent calculation

          k = 0.0000 0.0000 0.0000 (  9771 PWs)   bands (ev):

   -56.5149 -56.5149 -56.4802 -56.4802 -56.4802 -56.4802 -56.4802 -56.4802
   -28.5804 -28.5804 -28.5728 -28.5728 -28.5728 -28.5728 -28.4835 -28.4835
   -27.6150 -27.6150 -27.6150 -27.6150 -27.5382 -27.5382 -27.5382 -27.5382
   -27.5328 -27.5328 -27.4503 -27.4503 -27.4503 -27.4503 -27.4502 -27.4502
     2.6985   2.6985   7.4568   7.4568   7.4568   7.4568   7.4660   7.4660
    10.5369  10.5369  10.5449  10.5449  10.5449  10.5449  11.9115  11.9115
    11.9115  11.9115  11.9226  11.9226  12.6026  12.6026  12.7721  12.7721
    12.7721  12.7721  13.1439  13.1439  13.1439  13.1439  13.1450  13.1450
    13.6719  13.6719  13.6719  13.6719  13.6757  13.6757  15.5520  15.5520
    15.5833  15.5833  15.5833  15.5833  15.7663  15.7663  15.7663  15.7663
    16.6656  16.6656  16.6960  16.6960  16.6960  16.6960

     occupation numbers 
     1.0000   1.0000   1.0000   1.0000   1.0000   1.0000   1.0000   1.0000
     1.0000   1.0000   1.0000   1.0000   1.0000   1.0000   1.0000   1.0000
     1.0000   1.0000   1.0000   1.0000   1.0000   1.0000   1.0000   1.0000
     1.0000   1.0000   1.0000   1.0000   1.0000   1.0000   1.0000   1.0000
     1.0000   1.0000   1.0000   1.0000   1.0000   1.0000   1.0000   1.0000
     1.0000   1.0000   1.0000   1.0000   1.0000   1.0000   1.0000   1.0000
     1.0000   1.0000   1.0000   1.0000   1.0000   1.0000   1.0000   1.0000
     1.0000   1.0000   1.0000   1.0000   1.0000   1.0000   1.0000   1.0000
     1.0000   1.0000   1.0000   1.0000   1.0000   1.0000  -0.0015  -0.0015
    -0.0008  -0.0008  -0.0008  -0.0008  -0.0000  -0.0000  -0.0000  -0.0000
    -0.0000  -0.0000  -0.0000  -0.0000  -0.0000  -0.0000

          k = 0.0000 0.0000 0.1000 (  9695 PWs)   bands (ev):

   -56.5143 -56.5143 -56.4834 -56.4834 -56.4800 -56.4800 -56.4780 -56.4780
   -28.5855 -28.5784 -28.5767 -28.5752 -28.5680 -28.5651 -28.4853 -28.4853
   -27.6260 -27.6205 -27.6078 -27.6023 -27.5454 -27.5430 -27.5392 -27.5336
   -27.5323 -27.5231 -27.4566 -27.4548 -27.4531 -27.4490 -27.4483 -27.4450
     2.7679   2.7679   6.9405   6.9442   7.4970   7.4981   7.8788   7.8871
    10.1586  10.1641  10.5886  10.5898  10.9494  10.9523  11.4177  11.4187
    11.7324  11.7357  12.4391  12.4546  12.5670  12.5712  12.7701  12.7778
    12.8726  12.8731  13.1182  13.1199  13.1685  13.1688  13.1958  13.1963
    13.5357  13.5419  13.6615  13.6625  13.8563  13.8569  15.4471  15.4691
    15.4707  15.4758  15.7039  15.7195  15.7385  15.7525  15.7569  15.7700
    16.5147  16.5329  16.6526  16.6556  16.8459  16.8662

     occupation numbers 
     1.0000   1.0000   1.0000   1.0000   1.0000   1.0000   1.0000   1.0000
     1.0000   1.0000   1.0000   1.0000   1.0000   1.0000   1.0000   1.0000
     1.0000   1.0000   1.0000   1.0000   1.0000   1.0000   1.0000   1.0000
     1.0000   1.0000   1.0000   1.0000   1.0000   1.0000   1.0000   1.0000
     1.0000   1.0000   1.0000   1.0000   1.0000   1.0000   1.0000   1.0000
     1.0000   1.0000   1.0000   1.0000   1.0000   1.0000   1.0000   1.0000
     1.0000   1.0000   1.0000   1.0000   1.0000   1.0000   1.0000   1.0000
     1.0000   1.0000   1.0000   1.0000   1.0000   1.0000   1.0000   1.0000
     1.0000   1.0000   1.0000   1.0000   1.0000   1.0000  -0.0077  -0.0057
    -0.0055  -0.0051  -0.0001  -0.0000  -0.0000  -0.0000  -0.0000  -0.0000
    -0.0000  -0.0000  -0.0000  -0.0000  -0.0000  -0.0000

          k = 0.0000 0.0000 0.2000 (  9663 PWs)   bands (ev):

   -56.5124 -56.5124 -56.4872 -56.4872 -56.4794 -56.4794 -56.4766 -56.4766
   -28.5890 -28.5820 -28.5781 -28.5767 -28.5589 -28.5557 -28.4907 -28.4905
   -27.6340 -27.6253 -27.5983 -27.5904 -27.5532 -27.5455 -27.5397 -27.5320
   -27.5284 -27.5119 -27.4636 -27.4606 -27.4573 -27.4492 -27.4477 -27.4417
     2.9743   2.9743   6.3256   6.3276   7.6079   7.6102   8.2280   8.2377
     9.8575   9.8607  10.7051  10.7085  10.9851  10.9908  11.3745  11.3804
    11.3908  11.3910  12.3761  12.3886  12.8259  12.8323  12.8458  12.8703
    13.0742  13.0797  13.1056  13.1086  13.2180  13.2217  13.2385  13.2385
    13.5736  13.5848  13.6071  13.6108  14.0042  14.0050  15.2043  15.2283
    15.4004  15.4049  15.6646  15.6768  15.7442  15.7651  15.8244  15.8492
    16.3559  16.3707  16.5583  16.5676  17.0729  17.0935

     occupation numbers 
     1.0000   1.0000   1.0000   1.0000   1.0000   1.0000   1.0000   1.0000
     1.0000   1.0000   1.0000   1.0000   1.0000   1.0000   1.0000   1.0000
     1.0000   1.0000   1.0000   1.0000   1.0000   1.0000   1.0000   1.0000
     1.0000   1.0000   1.0000   1.0000   1.0000   1.0000   1.0000   1.0000
     1.0000   1.0000   1.0000   1.0000   1.0000   1.0000   1.0000   1.0000
     1.0000   1.0000   1.0000   1.0000   1.0000   1.0000   1.0000   1.0000
     1.0000   1.0000   1.0000   1.0000   1.0000   1.0000   1.0000   1.0000
     1.0000   1.0000   1.0000   1.0000   1.0000   1.0000   1.0000   1.0000
     1.0000   1.0000   1.0000   1.0000   1.0000   1.0000  -0.0272  -0.0335
    -0.0136  -0.0129  -0.0002  -0.0001  -0.0000  -0.0000  -0.0000  -0.0000
    -0.0000  -0.0000  -0.0000  -0.0000  -0.0000  -0.0000

          k = 0.0000 0.0000 0.3000 (  9638 PWs)   bands (ev):

   -56.5094 -56.5094 -56.4916 -56.4916 -56.4786 -56.4786 -56.4760 -56.4760
   -28.5906 -28.5837 -28.5816 -28.5783 -28.5475 -28.5448 -28.4991 -28.4987
   -27.6387 -27.6301 -27.5870 -27.5814 -27.5607 -27.5447 -27.5358 -27.5328
   -27.5277 -27.5003 -27.4744 -27.4629 -27.4625 -27.4508 -27.4472 -27.4406
     3.3113   3.3113   5.6494   5.6504   7.7870   7.7906   8.4734   8.4834
     9.6691   9.6695  10.7382  10.7432  10.7929  10.8042  11.0721  11.0787
    11.7459  11.7475  12.1735  12.1894  12.8833  12.9007  12.9086  12.9164
    13.1317  13.1372  13.1527  13.1587  13.2602  13.2624  13.3810  13.3816
    13.4580  13.4629  13.8465  13.8505  14.0775  14.0795  14.9573  14.9897
    15.3642  15.3696  15.5684  15.5857  15.7403  15.7673  15.8580  15.8817
    16.2266  16.2421  16.4212  16.4343  17.2684  17.2871

     occupation numbers 
     1.0000   1.0000   1.0000   1.0000   1.0000   1.0000   1.0000   1.0000
     1.0000   1.0000   1.0000   1.0000   1.0000   1.0000   1.0000   1.0000
     1.0000   1.0000   1.0000   1.0000   1.0000   1.0000   1.0000   1.0000
     1.0000   1.0000   1.0000   1.0000   1.0000   1.0000   1.0000   1.0000
     1.0000   1.0000   1.0000   1.0000   1.0000   1.0000   1.0000   1.0000
     1.0000   1.0000   1.0000   1.0000   1.0000   1.0000   1.0000   1.0000
     1.0000   1.0000   1.0000   1.0000   1.0000   1.0000   1.0000   1.0000
     1.0000   1.0000   1.0000   1.0000   1.0000   1.0000   1.0000   1.0000
     1.0000   1.0000   1.0000   1.0000   1.0000   1.0000   0.4889   0.3782
    -0.0197  -0.0187  -0.0011  -0.0008  -0.0000  -0.0000  -0.0000  -0.0000
    -0.0000  -0.0000  -0.0000  -0.0000  -0.0000  -0.0000

          k = 0.0000 0.0000 0.4000 (  9654 PWs)   bands (ev):

   -56.5056 -56.5056 -56.4964 -56.4964 -56.4776 -56.4776 -56.4761 -56.4761
   -28.5902 -28.5851 -28.5837 -28.5804 -28.5350 -28.5329 -28.5099 -28.5090
   -27.6400 -27.6347 -27.5779 -27.5717 -27.5672 -27.5452 -27.5408 -27.5303
   -27.5197 -27.4890 -27.4882 -27.4701 -27.4608 -27.4536 -27.4458 -27.4415
     3.7683   3.7683   4.9674   4.9678   8.0219   8.0268   8.4870   8.4954
     9.7175   9.7209  10.4130  10.4148  10.7853  10.7986  11.0146  11.0190
    12.0860  12.0882  12.1326  12.1463  12.7242  12.7395  12.9199  12.9327
    13.0716  13.0779  13.1924  13.1955  13.2345  13.2380  13.2958  13.2993
    13.5919  13.5931  13.9168  13.9211  14.2939  14.3108  14.7677  14.8023
    15.3610  15.3743  15.4754  15.4945  15.7627  15.7926  15.8406  15.8668
    16.1535  16.1690  16.2727  16.2866  17.3792  17.3870

     occupation numbers 
     1.0000   1.0000   1.0000   1.0000   1.0000   1.0000   1.0000   1.0000
     1.0000   1.0000   1.0000   1.0000   1.0000   1.0000   1.0000   1.0000
     1.0000   1.0000   1.0000   1.0000   1.0000   1.0000   1.0000   1.0000
     1.0000   1.0000   1.0000   1.0000   1.0000   1.0000   1.0000   1.0000
     1.0000   1.0000   1.0000   1.0000   1.0000   1.0000   1.0000   1.0000
     1.0000   1.0000   1.0000   1.0000   1.0000   1.0000   1.0000   1.0000
     1.0000   1.0000   1.0000   1.0000   1.0000   1.0000   1.0000   1.0000
     1.0000   1.0000   1.0000   1.0000   1.0000   1.0000   1.0000   1.0000
     1.0000   1.0000   1.0000   1.0000   1.0005   1.0006   0.9794   0.9286
    -0.0202  -0.0179  -0.0052  -0.0039  -0.0000  -0.0000  -0.0000  -0.0000
    -0.0000  -0.0000  -0.0000  -0.0000  -0.0000  -0.0000

          k = 0.0000 0.0000-0.5000 (  9658 PWs)   bands (ev):

   -56.5011 -56.5011 -56.5011 -56.5011 -56.4767 -56.4767 -56.4767 -56.4767
   -28.5882 -28.5882 -28.5824 -28.5824 -28.5221 -28.5221 -28.5207 -28.5207
   -27.6384 -27.6384 -27.5728 -27.5728 -27.5580 -27.5580 -27.5353 -27.5353
   -27.5039 -27.5039 -27.4789 -27.4789 -27.4573 -27.4573 -27.4436 -27.4436
     4.3285   4.3285   4.3287   4.3287   8.2825   8.2825   8.2890   8.2890
    10.0169  10.0169  10.0209  10.0209  10.8980  10.8980  10.9092  10.9092
    12.2473  12.2473  12.2539  12.2539  12.6854  12.6854  12.6978  12.6978
    13.1422  13.1422  13.1426  13.1426  13.2374  13.2374  13.2411  13.2411
    13.7828  13.7828  13.7859  13.7859  14.5655  14.5655  14.5940  14.5940
    15.4017  15.4017  15.4195  15.4195  15.8063  15.8063  15.8361  15.8361
    16.1661  16.1661  16.1798  16.1798  17.5424  17.5468

     occupation numbers 
     1.0000   1.0000   1.0000   1.0000   1.0000   1.0000   1.0000   1.0000
     1.0000   1.0000   1.0000   1.0000   1.0000   1.0000   1.0000   1.0000
     1.0000   1.0000   1.0000   1.0000   1.0000   1.0000   1.0000   1.0000
     1.0000   1.0000   1.0000   1.0000   1.0000   1.0000   1.0000   1.0000
     1.0000   1.0000   1.0000   1.0000   1.0000   1.0000   1.0000   1.0000
     1.0000   1.0000   1.0000   1.0000   1.0000   1.0000   1.0000   1.0000
     1.0000   1.0000   1.0000   1.0000   1.0000   1.0000   1.0000   1.0000
     1.0000   1.0000   1.0000   1.0000   1.0000   1.0000   1.0000   1.0000
     1.0000   1.0000   1.0000   1.0000   1.0237   1.0237   1.0290   1.0290
    -0.0134  -0.0134  -0.0109  -0.0109  -0.0000  -0.0000  -0.0000  -0.0000
    -0.0000  -0.0000  -0.0000  -0.0000  -0.0000  -0.0000

          k = 0.0000 0.1000 0.1000 (  9675 PWs)   bands (ev):

   -56.5137 -56.5137 -56.4846 -56.4846 -56.4802 -56.4802 -56.4772 -56.4772
   -28.5873 -28.5809 -28.5756 -28.5744 -28.5659 -28.5621 -28.4871 -28.4871
   -27.6279 -27.6245 -27.6022 -27.5986 -27.5481 -27.5436 -27.5411 -27.5369
   -27.5270 -27.5181 -27.4596 -27.4591 -27.4542 -27.4494 -27.4462 -27.4430
     2.8371   2.8371   6.8016   6.8068   7.3666   7.3700   8.0831   8.0892
    10.0375  10.0430  10.6307  10.6346  11.0119  11.0163  11.1728  11.1745
    11.8328  11.8341  12.4245  12.4392  12.5993  12.6057  12.8433  12.8516
    12.9294  12.9360  13.1417  13.1441  13.1616  13.1652  13.2346  13.2370
    13.4843  13.4895  13.6681  13.6771  13.9358  13.9397  15.3916  15.4005
    15.4512  15.4551  15.6586  15.6677  15.7384  15.7503  15.7753  15.7916
    16.4353  16.4540  16.6621  16.6678  16.8852  16.9118

     occupation numbers 
     1.0000   1.0000   1.0000   1.0000   1.0000   1.0000   1.0000   1.0000
     1.0000   1.0000   1.0000   1.0000   1.0000   1.0000   1.0000   1.0000
     1.0000   1.0000   1.0000   1.0000   1.0000   1.0000   1.0000   1.0000
     1.0000   1.0000   1.0000   1.0000   1.0000   1.0000   1.0000   1.0000
     1.0000   1.0000   1.0000   1.0000   1.0000   1.0000   1.0000   1.0000
     1.0000   1.0000   1.0000   1.0000   1.0000   1.0000   1.0000   1.0000
     1.0000   1.0000   1.0000   1.0000   1.0000   1.0000   1.0000   1.0000
     1.0000   1.0000   1.0000   1.0000   1.0000   1.0000   1.0000   1.0000
     1.0000   1.0000   1.0000   1.0000   1.0000   1.0000  -0.0150  -0.0136
    -0.0072  -0.0069  -0.0002  -0.0001  -0.0000  -0.0000  -0.0000  -0.0000
    -0.0000  -0.0000  -0.0000  -0.0000  -0.0000  -0.0000

          k = 0.0000 0.1000 0.2000 (  9636 PWs)   bands (ev):

   -56.5118 -56.5118 -56.4877 -56.4877 -56.4799 -56.4799 -56.4763 -56.4763
   -28.5896 -28.5834 -28.5763 -28.5756 -28.5582 -28.5547 -28.4923 -28.4923
   -27.6336 -27.6272 -27.5948 -27.5888 -27.5533 -27.5467 -27.5418 -27.5361
   -27.5235 -27.5084 -27.4680 -27.4636 -27.4572 -27.4511 -27.4445 -27.4399
     3.0424   3.0425   6.3254   6.3285   7.3967   7.3993   8.3524   8.3585
     9.8333   9.8364  10.6450  10.6479  10.7649  10.7688  11.4220  11.4236
    11.6070  11.6118  12.3952  12.4034  12.6322  12.6357  13.0050  13.0160
    13.0986  13.1051  13.1360  13.1374  13.2148  13.2175  13.3013  13.3036
    13.4901  13.4955  13.7060  13.7194  14.0459  14.0524  15.2135  15.2369
    15.3454  15.3590  15.5960  15.6110  15.7119  15.7298  15.8280  15.8516
    16.3030  16.3201  16.5830  16.5940  17.0594  17.0891

     occupation numbers 
     1.0000   1.0000   1.0000   1.0000   1.0000   1.0000   1.0000   1.0000
     1.0000   1.0000   1.0000   1.0000   1.0000   1.0000   1.0000   1.0000
     1.0000   1.0000   1.0000   1.0000   1.0000   1.0000   1.0000   1.0000
     1.0000   1.0000   1.0000   1.0000   1.0000   1.0000   1.0000   1.0000
     1.0000   1.0000   1.0000   1.0000   1.0000   1.0000   1.0000   1.0000
     1.0000   1.0000   1.0000   1.0000   1.0000   1.0000   1.0000   1.0000
     1.0000   1.0000   1.0000   1.0000   1.0000   1.0000   1.0000   1.0000
     1.0000   1.0000   1.0000   1.0000   1.0000   1.0000   1.0000   1.0000
     1.0000   1.0000   1.0000   1.0000   1.0000   1.0000  -0.0302  -0.0346
    -0.0232  -0.0206  -0.0007  -0.0005  -0.0001  -0.0000  -0.0000  -0.0000
    -0.0000  -0.0000  -0.0000  -0.0000  -0.0000  -0.0000

          k = 0.0000 0.1000 0.3000 (  9642 PWs)   bands (ev):

   -56.5089 -56.5089 -56.4917 -56.4917 -56.4790 -56.4790 -56.4759 -56.4759
   -28.5905 -28.5845 -28.5795 -28.5771 -28.5476 -28.5448 -28.5006 -28.5003
   -27.6375 -27.6301 -27.5855 -27.5803 -27.5602 -27.5461 -27.5395 -27.5346
   -27.5241 -27.4976 -27.4789 -27.4662 -27.4611 -27.4541 -27.4430 -27.4384
     3.3778   3.3779   5.6879   5.6894   7.5760   7.5779   8.5076   8.5134
     9.6887   9.6901  10.3940  10.3984  10.9285  10.9301  11.2913  11.3019
    11.7041  11.7072  12.2164  12.2295  12.7190  12.7226  13.0169  13.0272
    13.0330  13.0360  13.2280  13.2340  13.2989  13.3005  13.4134  13.4174
    13.5156  13.5243  13.8861  13.8983  14.1187  14.1242  14.9669  14.9983
    15.3139  15.3266  15.4916  15.5066  15.7011  15.7254  15.8523  15.8781
    16.1924  16.2059  16.4503  16.4637  17.2314  17.2598

     occupation numbers 
     1.0000   1.0000   1.0000   1.0000   1.0000   1.0000   1.0000   1.0000
     1.0000   1.0000   1.0000   1.0000   1.0000   1.0000   1.0000   1.0000
     1.0000   1.0000   1.0000   1.0000   1.0000   1.0000   1.0000   1.0000
     1.0000   1.0000   1.0000   1.0000   1.0000   1.0000   1.0000   1.0000
     1.0000   1.0000   1.0000   1.0000   1.0000   1.0000   1.0000   1.0000
     1.0000   1.0000   1.0000   1.0000   1.0000   1.0000   1.0000   1.0000
     1.0000   1.0000   1.0000   1.0000   1.0000   1.0000   1.0000   1.0000
     1.0000   1.0000   1.0000   1.0000   1.0000   1.0000   1.0000   1.0000
     1.0000   1.0000   1.0000   1.0000   1.0000   1.0000   0.4556   0.3500
    -0.0290  -0.0267  -0.0040  -0.0032  -0.0001  -0.0000  -0.0000  -0.0000
    -0.0000  -0.0000  -0.0000  -0.0000  -0.0000  -0.0000

          k = 0.0000 0.1000 0.4000 (  9650 PWs)   bands (ev):

   -56.5051 -56.5051 -56.4962 -56.4962 -56.4780 -56.4780 -56.4762 -56.4762
   -28.5896 -28.5849 -28.5823 -28.5794 -28.5356 -28.5336 -28.5111 -28.5104
   -27.6384 -27.6337 -27.5777 -27.5708 -27.5668 -27.5478 -27.5407 -27.5295
   -27.5217 -27.4931 -27.4862 -27.4697 -27.4627 -27.4573 -27.4416 -27.4386
     3.8322   3.8324   5.0203   5.0211   7.8361   7.8385   8.4142   8.4187
     9.7546   9.7580  10.2267  10.2306  11.0029  11.0076  11.0663  11.0791
    11.9590  11.9647  12.1920  12.2007  12.6472  12.6522  12.8523  12.8613
    13.0644  13.0691  13.2690  13.2729  13.3075  13.3099  13.3729  13.3747
    13.6273  13.6315  13.9420  13.9472  14.3353  14.3548  14.7769  14.8111
    15.3091  15.3243  15.3983  15.4128  15.7220  15.7489  15.8311  15.8595
    16.1462  16.1552  16.3080  16.3210  17.3507  17.3686

     occupation numbers 
     1.0000   1.0000   1.0000   1.0000   1.0000   1.0000   1.0000   1.0000
     1.0000   1.0000   1.0000   1.0000   1.0000   1.0000   1.0000   1.0000
     1.0000   1.0000   1.0000   1.0000   1.0000   1.0000   1.0000   1.0000
     1.0000   1.0000   1.0000   1.0000   1.0000   1.0000   1.0000   1.0000
     1.0000   1.0000   1.0000   1.0000   1.0000   1.0000   1.0000   1.0000
     1.0000   1.0000   1.0000   1.0000   1.0000   1.0000   1.0000   1.0000
     1.0000   1.0000   1.0000   1.0000   1.0000   1.0000   1.0000   1.0000
     1.0000   1.0000   1.0000   1.0000   1.0000   1.0000   1.0000   1.0000
     1.0000   1.0000   1.0000   1.0000   1.0010   1.0015   0.9677   0.9126
    -0.0298  -0.0271  -0.0139  -0.0118  -0.0000  -0.0000  -0.0000  -0.0000
    -0.0000  -0.0000  -0.0000  -0.0000  -0.0000  -0.0000

          k = 0.0000 0.1000-0.5000 (  9676 PWs)   bands (ev):

   -56.5008 -56.5008 -56.5008 -56.5008 -56.4770 -56.4770 -56.4770 -56.4770
   -28.5873 -28.5873 -28.5816 -28.5816 -28.5235 -28.5235 -28.5215 -28.5215
   -27.6368 -27.6368 -27.5725 -27.5725 -27.5586 -27.5586 -27.5351 -27.5351
   -27.5074 -27.5074 -27.4772 -27.4772 -27.4604 -27.4604 -27.4400 -27.4400
     4.3883   4.3883   4.3888   4.3888   8.1376   8.1376   8.1444   8.1444
     9.9954   9.9954   9.9998   9.9998  10.9953  10.9953  11.0090  11.0090
    12.1786  12.1786  12.1845  12.1845  12.6278  12.6278  12.6439  12.6439
    13.1993  13.1993  13.2031  13.2031  13.3017  13.3017  13.3033  13.3033
    13.8130  13.8130  13.8165  13.8165  14.5874  14.5874  14.6173  14.6173
    15.3363  15.3363  15.3528  15.3528  15.7768  15.7768  15.8065  15.8065
    16.1900  16.1900  16.2016  16.2016  17.5343  17.5377

     occupation numbers 
     1.0000   1.0000   1.0000   1.0000   1.0000   1.0000   1.0000   1.0000
     1.0000   1.0000   1.0000   1.0000   1.0000   1.0000   1.0000   1.0000
     1.0000   1.0000   1.0000   1.0000   1.0000   1.0000   1.0000   1.0000
     1.0000   1.0000   1.0000   1.0000   1.0000   1.0000   1.0000   1.0000
     1.0000   1.0000   1.0000   1.0000   1.0000   1.0000   1.0000   1.0000
     1.0000   1.0000   1.0000   1.0000   1.0000   1.0000   1.0000   1.0000
     1.0000   1.0000   1.0000   1.0000   1.0000   1.0000   1.0000   1.0000
     1.0000   1.0000   1.0000   1.0000   1.0000   1.0000   1.0000   1.0000
     1.0000   1.0000   1.0000   1.0000   1.0278   1.0278   1.0326   1.0326
    -0.0249  -0.0249  -0.0218  -0.0218  -0.0000  -0.0000  -0.0000  -0.0000
    -0.0000  -0.0000  -0.0000  -0.0000  -0.0000  -0.0000

          k = 0.0000 0.2000 0.2000 (  9629 PWs)   bands (ev):

   -56.5101 -56.5101 -56.4893 -56.4893 -56.4803 -56.4803 -56.4760 -56.4760
   -28.5902 -28.5846 -28.5748 -28.5744 -28.5548 -28.5511 -28.4973 -28.4971
   -27.6334 -27.6295 -27.5877 -27.5847 -27.5529 -27.5514 -27.5439 -27.5381
   -27.5197 -27.5012 -27.4757 -27.4695 -27.4618 -27.4498 -27.4414 -27.4370
     3.2448   3.2449   6.2130   6.2170   7.1062   7.1106   8.4946   8.4998
     9.7694   9.7713  10.3191  10.3229  10.8497  10.8516  11.3879  11.3900
    11.7951  11.7965  12.3655  12.3692  12.5708  12.5787  12.9923  12.9997
    13.1300  13.1412  13.1931  13.1964  13.3269  13.3292  13.4092  13.4215
    13.4900  13.4964  13.8251  13.8391  14.1260  14.1334  15.1684  15.1896
    15.2399  15.2613  15.4452  15.4579  15.6668  15.6902  15.8102  15.8362
    16.2126  16.2276  16.5667  16.5776  17.1084  17.1476

     occupation numbers 
     1.0000   1.0000   1.0000   1.0000   1.0000   1.0000   1.0000   1.0000
     1.0000   1.0000   1.0000   1.0000   1.0000   1.0000   1.0000   1.0000
     1.0000   1.0000   1.0000   1.0000   1.0000   1.0000   1.0000   1.0000
     1.0000   1.0000   1.0000   1.0000   1.0000   1.0000   1.0000   1.0000
     1.0000   1.0000   1.0000   1.0000   1.0000   1.0000   1.0000   1.0000
     1.0000   1.0000   1.0000   1.0000   1.0000   1.0000   1.0000   1.0000
     1.0000   1.0000   1.0000   1.0000   1.0000   1.0000   1.0000   1.0000
     1.0000   1.0000   1.0000   1.0000   1.0000   1.0000   1.0000   1.0000
     1.0000   1.0000   1.0000   1.0000   1.0000   1.0000  -0.0068  -0.0207
    -0.0349  -0.0353  -0.0078  -0.0066  -0.0002  -0.0001  -0.0000  -0.0000
    -0.0000  -0.0000  -0.0000  -0.0000  -0.0000  -0.0000

          k = 0.0000 0.2000 0.3000 (  9653 PWs)   bands (ev):

   -56.5074 -56.5074 -56.4922 -56.4922 -56.4799 -56.4799 -56.4761 -56.4761
   -28.5897 -28.5845 -28.5765 -28.5749 -28.5472 -28.5443 -28.5050 -28.5047
   -27.6342 -27.6297 -27.5824 -27.5777 -27.5592 -27.5505 -27.5421 -27.5370
   -27.5204 -27.4943 -27.4863 -27.4732 -27.4650 -27.4503 -27.4389 -27.4350
     3.5750   3.5752   5.7760   5.7785   7.1290   7.1325   8.4352   8.4390
     9.7417   9.7450  10.1778  10.1824  10.9540  10.9558  11.4459  11.4494
    11.7626  11.7642  12.2215  12.2265  12.5370  12.5450  12.8825  12.8905
    13.1669  13.1792  13.2264  13.2304  13.4079  13.4084  13.5508  13.5614
    13.5862  13.5978  13.9905  14.0031  14.2290  14.2379  14.9839  15.0112
    15.1736  15.1953  15.3183  15.3282  15.6314  15.6559  15.7849  15.8150
    16.1559  16.1662  16.4877  16.4994  17.1991  17.2382

     occupation numbers 
     1.0000   1.0000   1.0000   1.0000   1.0000   1.0000   1.0000   1.0000
     1.0000   1.0000   1.0000   1.0000   1.0000   1.0000   1.0000   1.0000
     1.0000   1.0000   1.0000   1.0000   1.0000   1.0000   1.0000   1.0000
     1.0000   1.0000   1.0000   1.0000   1.0000   1.0000   1.0000   1.0000
     1.0000   1.0000   1.0000   1.0000   1.0000   1.0000   1.0000   1.0000
     1.0000   1.0000   1.0000   1.0000   1.0000   1.0000   1.0000   1.0000
     1.0000   1.0000   1.0000   1.0000   1.0000   1.0000   1.0000   1.0000
     1.0000   1.0000   1.0000   1.0000   1.0000   1.0000   1.0000   1.0000
     1.0000   1.0000   1.0000   1.0000   1.0001   1.0001   0.3977   0.3084
    -0.0108  -0.0235  -0.0282  -0.0264  -0.0003  -0.0002  -0.0000  -0.0000
    -0.0000  -0.0000  -0.0000  -0.0000  -0.0000  -0.0000

          k = 0.0000 0.2000 0.4000 (  9651 PWs)   bands (ev):

   -56.5039 -56.5039 -56.4959 -56.4959 -56.4789 -56.4789 -56.4768 -56.4768
   -28.5878 -28.5836 -28.5794 -28.5770 -28.5371 -28.5352 -28.5147 -28.5142
   -27.6339 -27.6305 -27.5786 -27.5713 -27.5638 -27.5512 -27.5405 -27.5293
   -27.5241 -27.5002 -27.4872 -27.4774 -27.4628 -27.4533 -27.4368 -27.4345
     4.0212   4.0216   5.1710   5.1723   7.3844   7.3870   8.1321   8.1349
     9.8717   9.8752  10.1407  10.1441  11.0538  11.0605  11.3119  11.3240
    11.8756  11.8799  12.0991  12.1052  12.4987  12.5094  12.6809  12.6916
    13.2252  13.2307  13.2772  13.2824  13.4068  13.4091  13.5617  13.5640
    13.7419  13.7460  14.0117  14.0193  14.4426  14.4678  14.7925  14.8240
    15.1675  15.1854  15.2261  15.2310  15.6302  15.6563  15.7349  15.7669
    16.1808  16.1869  16.3890  16.4015  17.2692  17.2941

     occupation numbers 
     1.0000   1.0000   1.0000   1.0000   1.0000   1.0000   1.0000   1.0000
     1.0000   1.0000   1.0000   1.0000   1.0000   1.0000   1.0000   1.0000
     1.0000   1.0000   1.0000   1.0000   1.0000   1.0000   1.0000   1.0000
     1.0000   1.0000   1.0000   1.0000   1.0000   1.0000   1.0000   1.0000
     1.0000   1.0000   1.0000   1.0000   1.0000   1.0000   1.0000   1.0000
     1.0000   1.0000   1.0000   1.0000   1.0000   1.0000   1.0000   1.0000
     1.0000   1.0000   1.0000   1.0000   1.0000   1.0000   1.0000   1.0000
     1.0000   1.0000   1.0000   1.0000   1.0000   1.0000   1.0000   1.0000
     1.0000   1.0000   1.0000   1.0000   1.0059   1.0084   0.9449   0.8866
    -0.0061  -0.0184  -0.0331  -0.0339  -0.0003  -0.0002  -0.0000  -0.0000
    -0.0000  -0.0000  -0.0000  -0.0000  -0.0000  -0.0000

          k = 0.0000 0.2000-0.5000 (  9650 PWs)   bands (ev):

   -56.5000 -56.5000 -56.5000 -56.5000 -56.4778 -56.4778 -56.4778 -56.4778
   -28.5849 -28.5849 -28.5794 -28.5794 -28.5267 -28.5267 -28.5239 -28.5239
   -27.6323 -27.6323 -27.5743 -27.5743 -27.5579 -27.5579 -27.5342 -27.5342
   -27.5135 -27.5135 -27.4822 -27.4822 -27.4579 -27.4579 -27.4352 -27.4352
     4.5641   4.5641   4.5649   4.5649   7.7409   7.7409   7.7476   7.7476
    10.0484  10.0484  10.0521  10.0521  11.1493  11.1493  11.1628  11.1628
    12.0404  12.0404  12.0440  12.0440  12.4899  12.4899  12.5047  12.5047
    13.3101  13.3101  13.3132  13.3132  13.4392  13.4392  13.4419  13.4419
    13.9065  13.9065  13.9111  13.9111  14.6378  14.6378  14.6696  14.6696
    15.1787  15.1787  15.1923  15.1923  15.6725  15.6725  15.7021  15.7021
    16.2738  16.2738  16.2845  16.2845  17.4439  17.4482

     occupation numbers 
     1.0000   1.0000   1.0000   1.0000   1.0000   1.0000   1.0000   1.0000
     1.0000   1.0000   1.0000   1.0000   1.0000   1.0000   1.0000   1.0000
     1.0000   1.0000   1.0000   1.0000   1.0000   1.0000   1.0000   1.0000
     1.0000   1.0000   1.0000   1.0000   1.0000   1.0000   1.0000   1.0000
     1.0000   1.0000   1.0000   1.0000   1.0000   1.0000   1.0000   1.0000
     1.0000   1.0000   1.0000   1.0000   1.0000   1.0000   1.0000   1.0000
     1.0000   1.0000   1.0000   1.0000   1.0000   1.0000   1.0000   1.0000
     1.0000   1.0000   1.0000   1.0000   1.0000   1.0000   1.0000   1.0000
     1.0000   1.0000   1.0000   1.0000   1.0348   1.0348   1.0348   1.0348
    -0.0143  -0.0143  -0.0221  -0.0221  -0.0001  -0.0001  -0.0001  -0.0001
    -0.0000  -0.0000  -0.0000  -0.0000  -0.0000  -0.0000

          k = 0.0000 0.3000 0.3000 (  9641 PWs)   bands (ev):

   -56.5050 -56.5050 -56.4935 -56.4935 -56.4803 -56.4803 -56.4767 -56.4767
   -28.5877 -28.5832 -28.5748 -28.5739 -28.5445 -28.5418 -28.5120 -28.5114
   -27.6302 -27.6281 -27.5812 -27.5759 -27.5591 -27.5515 -27.5403 -27.5385
   -27.5198 -27.4970 -27.4937 -27.4816 -27.4628 -27.4463 -27.4363 -27.4328
     3.8958   3.8961   5.7558   5.7583   6.7776   6.7809   8.1198   8.1242
     9.8827   9.8861  10.2219  10.2261  10.9528  10.9551  11.2879  11.2892
    11.9118  11.9183  12.2055  12.2108  12.3904  12.4011  12.7569  12.7641
    13.1529  13.1617  13.3639  13.3729  13.4951  13.5002  13.6399  13.6462
    13.7468  13.7585  14.0596  14.0726  14.3831  14.4034  14.9282  14.9453
    15.0238  15.0469  15.1478  15.1595  15.5599  15.5846  15.6735  15.7039
    16.1815  16.1901  16.4872  16.4958  17.1818  17.2190

     occupation numbers 
     1.0000   1.0000   1.0000   1.0000   1.0000   1.0000   1.0000   1.0000
     1.0000   1.0000   1.0000   1.0000   1.0000   1.0000   1.0000   1.0000
     1.0000   1.0000   1.0000   1.0000   1.0000   1.0000   1.0000   1.0000
     1.0000   1.0000   1.0000   1.0000   1.0000   1.0000   1.0000   1.0000
     1.0000   1.0000   1.0000   1.0000   1.0000   1.0000   1.0000   1.0000
     1.0000   1.0000   1.0000   1.0000   1.0000   1.0000   1.0000   1.0000
     1.0000   1.0000   1.0000   1.0000   1.0000   1.0000   1.0000   1.0000
     1.0000   1.0000   1.0000   1.0000   1.0000   1.0000   1.0000   1.0000
     1.0000   1.0000   1.0000   1.0000   1.0024   1.0033   0.5887   0.5302
     0.2695   0.2032   0.0123   0.0007  -0.0013  -0.0008  -0.0001  -0.0001
    -0.0000  -0.0000  -0.0000  -0.0000  -0.0000  -0.0000

          k = 0.0000 0.3000 0.4000 (  9635 PWs)   bands (ev):

   -56.5021 -56.5021 -56.4959 -56.4959 -56.4799 -56.4799 -56.4777 -56.4777
   -28.5847 -28.5811 -28.5762 -28.5746 -28.5383 -28.5365 -28.5203 -28.5197
   -27.6270 -27.6255 -27.5829 -27.5775 -27.5573 -27.5498 -27.5387 -27.5311
   -27.5244 -27.5058 -27.4968 -27.4887 -27.4561 -27.4461 -27.4343 -27.4320
     4.3264   4.3270   5.3790   5.3809   6.8557   6.8587   7.6666   7.6698
    10.0825  10.0850  10.2804  10.2830  11.0336  11.0370  11.3611  11.3685
    11.8664  11.8701  11.9501  11.9527  12.3438  12.3532  12.5150  12.5250
    13.2544  13.2630  13.4285  13.4297  13.4875  13.4878  13.7142  13.7183
    13.9459  13.9518  14.1241  14.1330  14.5478  14.5758  14.7623  14.7840
    14.9734  14.9930  15.0384  15.0512  15.5268  15.5495  15.5911  15.6217
    16.2737  16.2822  16.4809  16.4889  17.1366  17.1600

     occupation numbers 
     1.0000   1.0000   1.0000   1.0000   1.0000   1.0000   1.0000   1.0000
     1.0000   1.0000   1.0000   1.0000   1.0000   1.0000   1.0000   1.0000
     1.0000   1.0000   1.0000   1.0000   1.0000   1.0000   1.0000   1.0000
     1.0000   1.0000   1.0000   1.0000   1.0000   1.0000   1.0000   1.0000
     1.0000   1.0000   1.0000   1.0000   1.0000   1.0000   1.0000   1.0000
     1.0000   1.0000   1.0000   1.0000   1.0000   1.0000   1.0000   1.0000
     1.0000   1.0000   1.0000   1.0000   1.0000   1.0000   1.0000   1.0000
     1.0000   1.0000   1.0000   1.0000   1.0000   1.0000   1.0000   1.0000
     1.0000   1.0000   1.0000   1.0000   1.0204   1.0256   0.9856   0.9579
     0.4333   0.3672   0.2269   0.1917  -0.0023  -0.0016  -0.0007  -0.0004
    -0.0000  -0.0000  -0.0000  -0.0000  -0.0000  -0.0000

          k = 0.0000 0.3000-0.5000 (  9642 PWs)   bands (ev):

   -56.4989 -56.4989 -56.4989 -56.4989 -56.4789 -56.4789 -56.4789 -56.4789
   -28.5813 -28.5813 -28.5766 -28.5766 -28.5306 -28.5306 -28.5276 -28.5276
   -27.6250 -27.6250 -27.5816 -27.5816 -27.5525 -27.5525 -27.5328 -27.5328
   -27.5185 -27.5185 -27.4939 -27.4939 -27.4498 -27.4498 -27.4327 -27.4327
     4.8408   4.8408   4.8420   4.8420   7.2105   7.2105   7.2159   7.2159
    10.2420  10.2420  10.2444  10.2444  11.2286  11.2286  11.2381  11.2381
    11.8472  11.8472  11.8507  11.8507  12.3616  12.3616  12.3710  12.3710
    13.3640  13.3640  13.3715  13.3715  13.6061  13.6061  13.6142  13.6142
    14.0918  14.0918  14.0978  14.0978  14.6427  14.6427  14.6679  14.6679
    14.9961  14.9961  15.0080  15.0080  15.5369  15.5369  15.5636  15.5636
    16.3971  16.3971  16.4081  16.4081  17.2632  17.2666

     occupation numbers 
     1.0000   1.0000   1.0000   1.0000   1.0000   1.0000   1.0000   1.0000
     1.0000   1.0000   1.0000   1.0000   1.0000   1.0000   1.0000   1.0000
     1.0000   1.0000   1.0000   1.0000   1.0000   1.0000   1.0000   1.0000
     1.0000   1.0000   1.0000   1.0000   1.0000   1.0000   1.0000   1.0000
     1.0000   1.0000   1.0000   1.0000   1.0000   1.0000   1.0000   1.0000
     1.0000   1.0000   1.0000   1.0000   1.0000   1.0000   1.0000   1.0000
     1.0000   1.0000   1.0000   1.0000   1.0000   1.0000   1.0000   1.0000
     1.0000   1.0000   1.0000   1.0000   1.0000   1.0000   1.0000   1.0000
     1.0000   1.0000   1.0000   1.0000   1.0351   1.0351   1.0349   1.0349
     0.3569   0.3569   0.3186   0.3186  -0.0019  -0.0019  -0.0012  -0.0012
    -0.0000  -0.0000  -0.0000  -0.0000  -0.0000  -0.0000

          k = 0.0000 0.4000 0.4000 (  9636 PWs)   bands (ev):

   -56.4999 -56.4999 -56.4964 -56.4964 -56.4803 -56.4803 -56.4789 -56.4789
   -28.5808 -28.5781 -28.5746 -28.5738 -28.5373 -28.5359 -28.5269 -28.5260
   -27.6195 -27.6194 -27.5893 -27.5863 -27.5497 -27.5457 -27.5352 -27.5303
   -27.5266 -27.5095 -27.5077 -27.4991 -27.4481 -27.4410 -27.4342 -27.4316
     4.7276   4.7282   5.4686   5.4699   6.5216   6.5232   7.1467   7.1493
    10.3761  10.3765  10.5507  10.5516  10.9051  10.9055  11.2351  11.2385
    11.6919  11.6927  11.9448  11.9501  12.2653  12.2658  12.3943  12.4007
    13.2714  13.2782  13.3825  13.3832  13.7483  13.7501  13.8780  13.8828
    14.1463  14.1550  14.2000  14.2058  14.5515  14.5599  14.6742  14.6925
    14.8203  14.8366  14.9033  14.9276  15.4556  15.4716  15.4770  15.5003
    16.3838  16.3953  16.5294  16.5345  17.0567  17.0744

     occupation numbers 
     1.0000   1.0000   1.0000   1.0000   1.0000   1.0000   1.0000   1.0000
     1.0000   1.0000   1.0000   1.0000   1.0000   1.0000   1.0000   1.0000
     1.0000   1.0000   1.0000   1.0000   1.0000   1.0000   1.0000   1.0000
     1.0000   1.0000   1.0000   1.0000   1.0000   1.0000   1.0000   1.0000
     1.0000   1.0000   1.0000   1.0000   1.0000   1.0000   1.0000   1.0000
     1.0000   1.0000   1.0000   1.0000   1.0000   1.0000   1.0000   1.0000
     1.0000   1.0000   1.0000   1.0000   1.0000   1.0000   1.0000   1.0000
     1.0000   1.0000   1.0000   1.0000   1.0000   1.0000   1.0000   1.0000
     1.0000   1.0000   1.0001   1.0001   1.0211   1.0226   1.0343   1.0308
     0.8944   0.8587   0.6713   0.5908  -0.0068  -0.0055  -0.0050  -0.0035
    -0.0000  -0.0000  -0.0000  -0.0000  -0.0000  -0.0000

          k = 0.0000 0.4000-0.5000 (  9646 PWs)   bands (ev):

   -56.4979 -56.4979 -56.4979 -56.4979 -56.4799 -56.4799 -56.4799 -56.4799
   -28.5774 -28.5774 -28.5745 -28.5745 -28.5337 -28.5337 -28.5315 -28.5315
   -27.6154 -27.6154 -27.5924 -27.5924 -27.5444 -27.5444 -27.5326 -27.5326
   -27.5203 -27.5203 -27.5062 -27.5062 -27.4421 -27.4421 -27.4330 -27.4330
     5.1719   5.1719   5.1733   5.1733   6.6924   6.6924   6.6959   6.6959
    10.5221  10.5221  10.5231  10.5231  11.2416  11.2416  11.2501  11.2501
    11.5670  11.5670  11.5761  11.5761  12.2997  12.2997  12.3036  12.3036
    13.3640  13.3640  13.3687  13.3687  13.8279  13.8279  13.8370  13.8370
    14.3264  14.3264  14.3299  14.3299  14.4975  14.4975  14.5057  14.5057
    14.8518  14.8518  14.8717  14.8717  15.4414  15.4414  15.4577  15.4577
    16.5209  16.5209  16.5301  16.5301  17.0717  17.0729

     occupation numbers 
     1.0000   1.0000   1.0000   1.0000   1.0000   1.0000   1.0000   1.0000
     1.0000   1.0000   1.0000   1.0000   1.0000   1.0000   1.0000   1.0000
     1.0000   1.0000   1.0000   1.0000   1.0000   1.0000   1.0000   1.0000
     1.0000   1.0000   1.0000   1.0000   1.0000   1.0000   1.0000   1.0000
     1.0000   1.0000   1.0000   1.0000   1.0000   1.0000   1.0000   1.0000
     1.0000   1.0000   1.0000   1.0000   1.0000   1.0000   1.0000   1.0000
     1.0000   1.0000   1.0000   1.0000   1.0000   1.0000   1.0000   1.0000
     1.0000   1.0000   1.0000   1.0000   1.0000   1.0000   1.0000   1.0000
     1.0009   1.0009   1.0009   1.0009   1.0121   1.0121   1.0133   1.0133
     0.8214   0.8214   0.7676   0.7676  -0.0083  -0.0083  -0.0066  -0.0066
    -0.0000  -0.0000  -0.0000  -0.0000  -0.0000  -0.0000

          k = 0.0000-0.5000-0.5000 (  9580 PWs)   bands (ev):

   -56.4975 -56.4975 -56.4975 -56.4975 -56.4803 -56.4803 -56.4803 -56.4803
   -28.5747 -28.5747 -28.5747 -28.5747 -28.5340 -28.5340 -28.5340 -28.5340
   -27.6042 -27.6042 -27.6042 -27.6042 -27.5366 -27.5366 -27.5366 -27.5366
   -27.5160 -27.5160 -27.5160 -27.5160 -27.4363 -27.4363 -27.4363 -27.4363
     5.3713   5.3713   5.3713   5.3713   6.4277   6.4277   6.4277   6.4277
    10.7057  10.7057  10.7057  10.7057  11.2426  11.2426  11.2426  11.2426
    11.3851  11.3851  11.3851  11.3851  12.2844  12.2844  12.2844  12.2844
    13.3620  13.3620  13.3620  13.3620  14.0071  14.0071  14.0071  14.0071
    14.2937  14.2937  14.2937  14.2937  14.5253  14.5253  14.5253  14.5253
    14.7577  14.7577  14.7577  14.7577  15.4172  15.4172  15.4172  15.4172
    16.5874  16.5874  16.5874  16.5874  16.9843  16.9843

     occupation numbers 
     1.0000   1.0000   1.0000   1.0000   1.0000   1.0000   1.0000   1.0000
     1.0000   1.0000   1.0000   1.0000   1.0000   1.0000   1.0000   1.0000
     1.0000   1.0000   1.0000   1.0000   1.0000   1.0000   1.0000   1.0000
     1.0000   1.0000   1.0000   1.0000   1.0000   1.0000   1.0000   1.0000
     1.0000   1.0000   1.0000   1.0000   1.0000   1.0000   1.0000   1.0000
     1.0000   1.0000   1.0000   1.0000   1.0000   1.0000   1.0000   1.0000
     1.0000   1.0000   1.0000   1.0000   1.0000   1.0000   1.0000   1.0000
     1.0000   1.0000   1.0000   1.0000   1.0000   1.0000   1.0000   1.0000
     1.0005   1.0005   1.0005   1.0005   1.0164   1.0164   1.0164   1.0164
     0.9905   0.9905   0.9905   0.9905  -0.0112  -0.0112  -0.0112  -0.0112
    -0.0000  -0.0000  -0.0000  -0.0000  -0.0000  -0.0000

          k = 0.1000 0.1000 0.1000 (  9669 PWs)   bands (ev):

   -56.5130 -56.5130 -56.4854 -56.4854 -56.4805 -56.4805 -56.4767 -56.4767
   -28.5884 -28.5823 -28.5747 -28.5736 -28.5643 -28.5600 -28.4889 -28.4888
   -27.6285 -27.6273 -27.5988 -27.5951 -27.5498 -27.5433 -27.5425 -27.5400
   -27.5236 -27.5141 -27.4649 -27.4595 -27.4540 -27.4522 -27.4439 -27.4416
     2.9059   2.9059   6.7162   6.7227   7.2684   7.2746   8.1856   8.1905
     9.9891   9.9947  10.6193  10.6199  10.8706  10.8707  11.1921  11.1975
    11.9273  11.9284  12.3620  12.3754  12.6863  12.6876  12.8055  12.8139
    13.0089  13.0096  13.1675  13.1679  13.2145  13.2195  13.2411  13.2444
    13.4580  13.4617  13.6799  13.6836  13.9971  14.0022  15.3612  15.3654
    15.4277  15.4290  15.6223  15.6280  15.6890  15.7018  15.8021  15.8111
    16.3815  16.4013  16.6656  16.6718  16.9084  16.9398

     occupation numbers 
     1.0000   1.0000   1.0000   1.0000   1.0000   1.0000   1.0000   1.0000
     1.0000   1.0000   1.0000   1.0000   1.0000   1.0000   1.0000   1.0000
     1.0000   1.0000   1.0000   1.0000   1.0000   1.0000   1.0000   1.0000
     1.0000   1.0000   1.0000   1.0000   1.0000   1.0000   1.0000   1.0000
     1.0000   1.0000   1.0000   1.0000   1.0000   1.0000   1.0000   1.0000
     1.0000   1.0000   1.0000   1.0000   1.0000   1.0000   1.0000   1.0000
     1.0000   1.0000   1.0000   1.0000   1.0000   1.0000   1.0000   1.0000
     1.0000   1.0000   1.0000   1.0000   1.0000   1.0000   1.0000   1.0000
     1.0000   1.0000   1.0000   1.0000   1.0000   1.0000  -0.0202  -0.0194
    -0.0098  -0.0097  -0.0004  -0.0003  -0.0001  -0.0001  -0.0000  -0.0000
    -0.0000  -0.0000  -0.0000  -0.0000  -0.0000  -0.0000

          k = 0.1000 0.1000 0.2000 (  9653 PWs)   bands (ev):

   -56.5112 -56.5112 -56.4880 -56.4880 -56.4803 -56.4803 -56.4761 -56.4761
   -28.5900 -28.5841 -28.5749 -28.5746 -28.5577 -28.5539 -28.4941 -28.4939
   -27.6331 -27.6283 -27.5928 -27.5866 -27.5532 -27.5472 -27.5432 -27.5396
   -27.5203 -27.5055 -27.4728 -27.4634 -27.4575 -27.4538 -27.4416 -27.4390
     3.1103   3.1103   6.3280   6.3319   7.2717   7.2761   8.3625   8.3675
     9.8303   9.8335  10.5502  10.5524  10.6974  10.7004  11.3544  11.3593
    11.8166  11.8212  12.3554  12.3582  12.7042  12.7079  12.9589  12.9601
    13.0702  13.0781  13.1347  13.1380  13.2696  13.2741  13.3461  13.3585
    13.5135  13.5285  13.7248  13.7339  14.0858  14.0929  15.2035  15.2269
    15.3343  15.3489  15.5477  15.5612  15.6489  15.6651  15.8256  15.8430
    16.2724  16.2905  16.5959  16.6077  17.0410  17.0742

     occupation numbers 
     1.0000   1.0000   1.0000   1.0000   1.0000   1.0000   1.0000   1.0000
     1.0000   1.0000   1.0000   1.0000   1.0000   1.0000   1.0000   1.0000
     1.0000   1.0000   1.0000   1.0000   1.0000   1.0000   1.0000   1.0000
     1.0000   1.0000   1.0000   1.0000   1.0000   1.0000   1.0000   1.0000
     1.0000   1.0000   1.0000   1.0000   1.0000   1.0000   1.0000   1.0000
     1.0000   1.0000   1.0000   1.0000   1.0000   1.0000   1.0000   1.0000
     1.0000   1.0000   1.0000   1.0000   1.0000   1.0000   1.0000   1.0000
     1.0000   1.0000   1.0000   1.0000   1.0000   1.0000   1.0000   1.0000
     1.0000   1.0000   1.0000   1.0000   1.0000   1.0000  -0.0270  -0.0333
    -0.0253  -0.0225  -0.0016  -0.0013  -0.0002  -0.0002  -0.0000  -0.0000
    -0.0000  -0.0000  -0.0000  -0.0000  -0.0000  -0.0000

          k = 0.1000 0.1000 0.3000 (  9634 PWs)   bands (ev):

   -56.5084 -56.5084 -56.4918 -56.4918 -56.4795 -56.4795 -56.4760 -56.4760
   -28.5902 -28.5847 -28.5780 -28.5761 -28.5478 -28.5449 -28.5022 -28.5017
   -27.6363 -27.6300 -27.5845 -27.5789 -27.5595 -27.5470 -27.5421 -27.5372
   -27.5211 -27.4965 -27.4815 -27.4668 -27.4617 -27.4564 -27.4401 -27.4373
     3.4440   3.4441   5.7260   5.7276   7.4469   7.4492   8.4625   8.4680
     9.6441   9.6452  10.3739  10.3784  10.8191  10.8228  11.3609  11.3655
    11.7650  11.7660  12.2468  12.2547  12.7656  12.7689  13.0174  13.0256
    13.0596  13.0662  13.1626  13.1679  13.3276  13.3312  13.3870  13.3934
    13.5970  13.5998  13.9092  13.9185  14.1568  14.1618  14.9664  14.9967
    15.2982  15.3124  15.4399  15.4549  15.6404  15.6613  15.8297  15.8515
    16.1784  16.1927  16.4654  16.4804  17.1982  17.2274

     occupation numbers 
     1.0000   1.0000   1.0000   1.0000   1.0000   1.0000   1.0000   1.0000
     1.0000   1.0000   1.0000   1.0000   1.0000   1.0000   1.0000   1.0000
     1.0000   1.0000   1.0000   1.0000   1.0000   1.0000   1.0000   1.0000
     1.0000   1.0000   1.0000   1.0000   1.0000   1.0000   1.0000   1.0000
     1.0000   1.0000   1.0000   1.0000   1.0000   1.0000   1.0000   1.0000
     1.0000   1.0000   1.0000   1.0000   1.0000   1.0000   1.0000   1.0000
     1.0000   1.0000   1.0000   1.0000   1.0000   1.0000   1.0000   1.0000
     1.0000   1.0000   1.0000   1.0000   1.0000   1.0000   1.0000   1.0000
     1.0000   1.0000   1.0000   1.0000   1.0000   1.0000   0.4573   0.3552
    -0.0316  -0.0293  -0.0084  -0.0069  -0.0003  -0.0002  -0.0000  -0.0000
    -0.0000  -0.0000  -0.0000  -0.0000  -0.0000  -0.0000

          k = 0.1000 0.1000 0.4000 (  9660 PWs)   bands (ev):

   -56.5047 -56.5047 -56.4961 -56.4961 -56.4784 -56.4784 -56.4764 -56.4764
   -28.5890 -28.5846 -28.5810 -28.5785 -28.5363 -28.5342 -28.5125 -28.5116
   -27.6369 -27.6326 -27.5769 -27.5708 -27.5659 -27.5500 -27.5410 -27.5300
   -27.5222 -27.4979 -27.4825 -27.4695 -27.4640 -27.4598 -27.4389 -27.4371
     3.8957   3.8959   5.0727   5.0734   7.7151   7.7175   8.3338   8.3387
     9.6760   9.6774  10.1904  10.1942  10.9269  10.9309  11.2408  11.2472
    11.8799  11.8843  12.2198  12.2237  12.7276  12.7308  12.9305  12.9381
    13.0631  13.0700  13.2322  13.2380  13.3083  13.3101  13.3802  13.3863
    13.6679  13.6711  13.9459  13.9518  14.3705  14.3917  14.7822  14.8161
    15.2819  15.2981  15.3491  15.3648  15.6677  15.6904  15.7928  15.8171
    16.1493  16.1588  16.3234  16.3373  17.3632  17.3810

     occupation numbers 
     1.0000   1.0000   1.0000   1.0000   1.0000   1.0000   1.0000   1.0000
     1.0000   1.0000   1.0000   1.0000   1.0000   1.0000   1.0000   1.0000
     1.0000   1.0000   1.0000   1.0000   1.0000   1.0000   1.0000   1.0000
     1.0000   1.0000   1.0000   1.0000   1.0000   1.0000   1.0000   1.0000
     1.0000   1.0000   1.0000   1.0000   1.0000   1.0000   1.0000   1.0000
     1.0000   1.0000   1.0000   1.0000   1.0000   1.0000   1.0000   1.0000
     1.0000   1.0000   1.0000   1.0000   1.0000   1.0000   1.0000   1.0000
     1.0000   1.0000   1.0000   1.0000   1.0000   1.0000   1.0000   1.0000
     1.0000   1.0000   1.0000   1.0000   1.0019   1.0027   0.9604   0.9028
    -0.0338  -0.0316  -0.0225  -0.0196  -0.0001  -0.0001  -0.0000  -0.0000
    -0.0000  -0.0000  -0.0000  -0.0000  -0.0000  -0.0000

          k = 0.1000 0.1000-0.5000 (  9662 PWs)   bands (ev):

   -56.5005 -56.5005 -56.5005 -56.5005 -56.4773 -56.4773 -56.4773 -56.4773
   -28.5865 -28.5865 -28.5808 -28.5808 -28.5247 -28.5247 -28.5222 -28.5222
   -27.6354 -27.6354 -27.5717 -27.5717 -27.5598 -27.5598 -27.5347 -27.5347
   -27.5105 -27.5105 -27.4752 -27.4752 -27.4627 -27.4627 -27.4378 -27.4378
     4.4477   4.4477   4.4482   4.4482   8.0328   8.0328   8.0392   8.0392
     9.9190   9.9190   9.9217   9.9217  11.0689  11.0689  11.0795  11.0795
    12.1015  12.1015  12.1058  12.1058  12.7603  12.7603  12.7735  12.7735
    13.1697  13.1697  13.1764  13.1764  13.3262  13.3262  13.3290  13.3290
    13.8213  13.8213  13.8263  13.8263  14.6060  14.6060  14.6369  14.6369
    15.2954  15.2954  15.3141  15.3141  15.7272  15.7272  15.7549  15.7549
    16.2038  16.2038  16.2147  16.2147  17.6024  17.6048

     occupation numbers 
     1.0000   1.0000   1.0000   1.0000   1.0000   1.0000   1.0000   1.0000
     1.0000   1.0000   1.0000   1.0000   1.0000   1.0000   1.0000   1.0000
     1.0000   1.0000   1.0000   1.0000   1.0000   1.0000   1.0000   1.0000
     1.0000   1.0000   1.0000   1.0000   1.0000   1.0000   1.0000   1.0000
     1.0000   1.0000   1.0000   1.0000   1.0000   1.0000   1.0000   1.0000
     1.0000   1.0000   1.0000   1.0000   1.0000   1.0000   1.0000   1.0000
     1.0000   1.0000   1.0000   1.0000   1.0000   1.0000   1.0000   1.0000
     1.0000   1.0000   1.0000   1.0000   1.0000   1.0000   1.0000   1.0000
     1.0000   1.0000   1.0000   1.0000   1.0310   1.0310   1.0348   1.0348
    -0.0320  -0.0320  -0.0290  -0.0290  -0.0000  -0.0000  -0.0000  -0.0000
    -0.0000  -0.0000  -0.0000  -0.0000  -0.0000  -0.0000

          k = 0.1000 0.2000 0.2000 (  9644 PWs)   bands (ev):

   -56.5095 -56.5095 -56.4895 -56.4895 -56.4806 -56.4806 -56.4759 -56.4759
   -28.5902 -28.5847 -28.5737 -28.5734 -28.5547 -28.5509 -28.4990 -28.4986
   -27.6328 -27.6295 -27.5882 -27.5811 -27.5527 -27.5510 -27.5452 -27.5419
   -27.5168 -27.5001 -27.4798 -27.4667 -27.4629 -27.4529 -27.4389 -27.4366
     3.3117   3.3118   6.2294   6.2344   7.0568   7.0632   8.3959   8.3995
     9.6895   9.6919  10.4529  10.4555  10.6343  10.6369  11.4238  11.4289
    11.8988  11.9023  12.3331  12.3374  12.6656  12.6722  13.0041  13.0064
    13.0646  13.0720  13.1669  13.1716  13.2567  13.2619  13.4825  13.4934
    13.6002  13.6092  13.8300  13.8391  14.1574  14.1648  15.1592  15.1770
    15.2426  15.2612  15.4257  15.4376  15.5795  15.5950  15.7959  15.8145
    16.2057  16.2214  16.5740  16.5862  17.0892  17.1294

     occupation numbers 
     1.0000   1.0000   1.0000   1.0000   1.0000   1.0000   1.0000   1.0000
     1.0000   1.0000   1.0000   1.0000   1.0000   1.0000   1.0000   1.0000
     1.0000   1.0000   1.0000   1.0000   1.0000   1.0000   1.0000   1.0000
     1.0000   1.0000   1.0000   1.0000   1.0000   1.0000   1.0000   1.0000
     1.0000   1.0000   1.0000   1.0000   1.0000   1.0000   1.0000   1.0000
     1.0000   1.0000   1.0000   1.0000   1.0000   1.0000   1.0000   1.0000
     1.0000   1.0000   1.0000   1.0000   1.0000   1.0000   1.0000   1.0000
     1.0000   1.0000   1.0000   1.0000   1.0000   1.0000   1.0000   1.0000
     1.0000   1.0000   1.0000   1.0000   1.0000   1.0000   0.0009  -0.0132
    -0.0351  -0.0353  -0.0101  -0.0087  -0.0009  -0.0007  -0.0000  -0.0000
    -0.0000  -0.0000  -0.0000  -0.0000  -0.0000  -0.0000

          k = 0.1000 0.2000 0.3000 (  9631 PWs)   bands (ev):

   -56.5069 -56.5069 -56.4922 -56.4922 -56.4803 -56.4803 -56.4763 -56.4763
   -28.5893 -28.5843 -28.5753 -28.5740 -28.5476 -28.5446 -28.5066 -28.5061
   -27.6332 -27.6290 -27.5829 -27.5755 -27.5588 -27.5505 -27.5438 -27.5401
   -27.5175 -27.4984 -27.4839 -27.4704 -27.4672 -27.4530 -27.4371 -27.4346
     3.6402   3.6403   5.8137   5.8166   7.0976   7.1020   8.3492   8.3525
     9.5026   9.5049  10.3404  10.3432  10.7928  10.7975  11.5156  11.5206
    11.8102  11.8162  12.2472  12.2499  12.5914  12.5996  12.9291  12.9365
    13.1510  13.1616  13.2109  13.2156  13.3136  13.3199  13.5201  13.5247
    13.7298  13.7349  13.9823  13.9913  14.2716  14.2812  14.9772  15.0022
    15.1798  15.1984  15.3024  15.3130  15.5605  15.5769  15.7533  15.7771
    16.1617  16.1728  16.4929  16.5061  17.1718  17.2092

     occupation numbers 
     1.0000   1.0000   1.0000   1.0000   1.0000   1.0000   1.0000   1.0000
     1.0000   1.0000   1.0000   1.0000   1.0000   1.0000   1.0000   1.0000
     1.0000   1.0000   1.0000   1.0000   1.0000   1.0000   1.0000   1.0000
     1.0000   1.0000   1.0000   1.0000   1.0000   1.0000   1.0000   1.0000
     1.0000   1.0000   1.0000   1.0000   1.0000   1.0000   1.0000   1.0000
     1.0000   1.0000   1.0000   1.0000   1.0000   1.0000   1.0000   1.0000
     1.0000   1.0000   1.0000   1.0000   1.0000   1.0000   1.0000   1.0000
     1.0000   1.0000   1.0000   1.0000   1.0000   1.0000   1.0000   1.0000
     1.0000   1.0000   1.0000   1.0000   1.0003   1.0004   0.4205   0.3371
    -0.0150  -0.0249  -0.0309  -0.0291  -0.0013  -0.0010  -0.0000  -0.0000
    -0.0000  -0.0000  -0.0000  -0.0000  -0.0000  -0.0000

          k = 0.1000 0.2000 0.4000 (  9656 PWs)   bands (ev):

   -56.5035 -56.5035 -56.4957 -56.4957 -56.4793 -56.4793 -56.4770 -56.4770
   -28.5871 -28.5830 -28.5783 -28.5761 -28.5379 -28.5359 -28.5161 -28.5153
   -27.6326 -27.6293 -27.5781 -27.5703 -27.5646 -27.5530 -27.5404 -27.5317
   -27.5220 -27.5052 -27.4827 -27.4752 -27.4648 -27.4555 -27.4356 -27.4339
     4.0836   4.0840   5.2219   5.2233   7.3545   7.3573   8.0847   8.0875
     9.5718   9.5732  10.1180  10.1202  11.0717  11.0769  11.5566  11.5627
    11.7333  11.7356  12.1000  12.1027  12.5622  12.5714  12.7863  12.7944
    13.1900  13.1979  13.2816  13.2866  13.3635  13.3679  13.5208  13.5270
    13.7985  13.8048  14.0211  14.0297  14.4746  14.5015  14.8016  14.8332
    15.1553  15.1697  15.2100  15.2164  15.5825  15.6019  15.6981  15.7243
    16.1854  16.1920  16.3894  16.4021  17.2758  17.2991

     occupation numbers 
     1.0000   1.0000   1.0000   1.0000   1.0000   1.0000   1.0000   1.0000
     1.0000   1.0000   1.0000   1.0000   1.0000   1.0000   1.0000   1.0000
     1.0000   1.0000   1.0000   1.0000   1.0000   1.0000   1.0000   1.0000
     1.0000   1.0000   1.0000   1.0000   1.0000   1.0000   1.0000   1.0000
     1.0000   1.0000   1.0000   1.0000   1.0000   1.0000   1.0000   1.0000
     1.0000   1.0000   1.0000   1.0000   1.0000   1.0000   1.0000   1.0000
     1.0000   1.0000   1.0000   1.0000   1.0000   1.0000   1.0000   1.0000
     1.0000   1.0000   1.0000   1.0000   1.0000   1.0000   1.0000   1.0000
[...]
    11.8850  11.8850  11.8889  11.8889  12.3763  12.3763  12.3838  12.3838
    13.2710  13.2710  13.2758  13.2758  13.8518  13.8518  13.8647  13.8647
    14.2116  14.2116  14.2187  14.2187  14.6454  14.6454  14.6729  14.6729
    14.8181  14.8181  14.8578  14.8578  15.4148  15.4148  15.4294  15.4294
    16.4547  16.4547  16.4659  16.4659  17.1061  17.1084

     occupation numbers 
     1.0000   1.0000   1.0000   1.0000   1.0000   1.0000   1.0000   1.0000
     1.0000   1.0000   1.0000   1.0000   1.0000   1.0000   1.0000   1.0000
     1.0000   1.0000   1.0000   1.0000   1.0000   1.0000   1.0000   1.0000
     1.0000   1.0000   1.0000   1.0000   1.0000   1.0000   1.0000   1.0000
     1.0000   1.0000   1.0000   1.0000   1.0000   1.0000   1.0000   1.0000
     1.0000   1.0000   1.0000   1.0000   1.0000   1.0000   1.0000   1.0000
     1.0000   1.0000   1.0000   1.0000   1.0000   1.0000   1.0000   1.0000
     1.0000   1.0000   1.0000   1.0000   1.0000   1.0000   1.0000   1.0000
     1.0001   1.0001   1.0001   1.0001   1.0353   1.0353   1.0345   1.0345
     0.8988   0.8988   0.8057   0.8057  -0.0115  -0.0115  -0.0096  -0.0096
    -0.0000  -0.0000  -0.0000  -0.0000  -0.0000  -0.0000

          k =-0.2000 0.4000 0.3000 (  9651 PWs)   bands (ev):

   -56.5005 -56.5005 -56.4948 -56.4948 -56.4814 -56.4814 -56.4789 -56.4789
   -28.5817 -28.5784 -28.5726 -28.5713 -28.5416 -28.5395 -28.5253 -28.5240
   -27.6229 -27.6204 -27.5800 -27.5747 -27.5644 -27.5591 -27.5404 -27.5309
   -27.5244 -27.5122 -27.4843 -27.4772 -27.4613 -27.4535 -27.4347 -27.4321
     4.5648   4.5652   5.5668   5.5689   6.8870   6.8913   7.6190   7.6223
     9.1376   9.1411   9.7833   9.7868  11.0154  11.0179  11.5300  11.5318
    11.7529  11.7560  12.2101  12.2133  12.6687  12.6741  12.8324  12.8390
    13.1088  13.1151  13.1939  13.2063  13.4205  13.4269  13.6487  13.6602
    13.9730  13.9835  14.2848  14.2948  14.6197  14.6455  14.8156  14.8313
    14.9765  14.9933  15.1258  15.1545  15.3626  15.3677  15.5067  15.5200
    16.2480  16.2560  16.4036  16.4124  17.1310  17.1472

     occupation numbers 
     1.0000   1.0000   1.0000   1.0000   1.0000   1.0000   1.0000   1.0000
     1.0000   1.0000   1.0000   1.0000   1.0000   1.0000   1.0000   1.0000
     1.0000   1.0000   1.0000   1.0000   1.0000   1.0000   1.0000   1.0000
     1.0000   1.0000   1.0000   1.0000   1.0000   1.0000   1.0000   1.0000
     1.0000   1.0000   1.0000   1.0000   1.0000   1.0000   1.0000   1.0000
     1.0000   1.0000   1.0000   1.0000   1.0000   1.0000   1.0000   1.0000
     1.0000   1.0000   1.0000   1.0000   1.0000   1.0000   1.0000   1.0000
     1.0000   1.0000   1.0000   1.0000   1.0000   1.0000   1.0000   1.0000
     1.0000   1.0000   1.0004   1.0005   1.0330   1.0353   0.9039   0.8708
     0.4227   0.3661   0.0396   0.0054  -0.0199  -0.0190  -0.0032  -0.0026
    -0.0000  -0.0000  -0.0000  -0.0000  -0.0000  -0.0000

          k =-0.2000-0.5000 0.3000 (  9660 PWs)   bands (ev):

   -56.4975 -56.4975 -56.4975 -56.4975 -56.4803 -56.4803 -56.4803 -56.4803
   -28.5780 -28.5780 -28.5734 -28.5734 -28.5349 -28.5349 -28.5313 -28.5313
   -27.6203 -27.6203 -27.5782 -27.5782 -27.5626 -27.5626 -27.5338 -27.5338
   -27.5198 -27.5198 -27.4823 -27.4823 -27.4558 -27.4558 -27.4334 -27.4334
     5.0598   5.0598   5.0609   5.0609   7.2215   7.2215   7.2264   7.2264
     9.4399   9.4399   9.4432   9.4432  11.2336  11.2336  11.2364  11.2364
    11.9948  11.9948  12.0020  12.0020  12.7539  12.7539  12.7645  12.7645
    13.1387  13.1387  13.1492  13.1492  13.5471  13.5471  13.5568  13.5568
    14.1607  14.1607  14.1701  14.1701  14.7346  14.7346  14.7604  14.7604
    15.0224  15.0224  15.0475  15.0475  15.4249  15.4249  15.4415  15.4415
    16.3236  16.3236  16.3340  16.3340  17.2494  17.2551

     occupation numbers 
     1.0000   1.0000   1.0000   1.0000   1.0000   1.0000   1.0000   1.0000
     1.0000   1.0000   1.0000   1.0000   1.0000   1.0000   1.0000   1.0000
     1.0000   1.0000   1.0000   1.0000   1.0000   1.0000   1.0000   1.0000
     1.0000   1.0000   1.0000   1.0000   1.0000   1.0000   1.0000   1.0000
     1.0000   1.0000   1.0000   1.0000   1.0000   1.0000   1.0000   1.0000
     1.0000   1.0000   1.0000   1.0000   1.0000   1.0000   1.0000   1.0000
     1.0000   1.0000   1.0000   1.0000   1.0000   1.0000   1.0000   1.0000
     1.0000   1.0000   1.0000   1.0000   1.0000   1.0000   1.0000   1.0000
     1.0000   1.0000   1.0000   1.0000   1.0107   1.0107   0.9876   0.9876
     0.2737   0.2737   0.2018   0.2018  -0.0102  -0.0102  -0.0082  -0.0082
    -0.0000  -0.0000  -0.0000  -0.0000  -0.0000  -0.0000

          k =-0.2000-0.5000 0.4000 (  9638 PWs)   bands (ev):

   -56.4963 -56.4963 -56.4963 -56.4963 -56.4814 -56.4814 -56.4814 -56.4814
   -28.5740 -28.5740 -28.5711 -28.5711 -28.5380 -28.5380 -28.5355 -28.5355
   -27.6117 -27.6117 -27.5885 -27.5885 -27.5585 -27.5585 -27.5374 -27.5374
   -27.5153 -27.5153 -27.4902 -27.4902 -27.4487 -27.4487 -27.4355 -27.4355
     5.3778   5.3778   5.3793   5.3793   6.8018   6.8018   6.8055   6.8055
     9.5481   9.5481   9.5521   9.5521  10.9114  10.9114  10.9139  10.9139
    12.1982  12.1982  12.2061  12.2061  12.5667  12.5667  12.5766  12.5766
    13.1593  13.1593  13.1653  13.1653  13.6491  13.6491  13.6622  13.6622
    14.3407  14.3407  14.3465  14.3465  14.7476  14.7476  14.7714  14.7714
    14.9079  14.9079  14.9459  14.9459  15.3619  15.3619  15.3742  15.3742
    16.3983  16.3983  16.4080  16.4080  17.0267  17.0308

     occupation numbers 
     1.0000   1.0000   1.0000   1.0000   1.0000   1.0000   1.0000   1.0000
     1.0000   1.0000   1.0000   1.0000   1.0000   1.0000   1.0000   1.0000
     1.0000   1.0000   1.0000   1.0000   1.0000   1.0000   1.0000   1.0000
     1.0000   1.0000   1.0000   1.0000   1.0000   1.0000   1.0000   1.0000
     1.0000   1.0000   1.0000   1.0000   1.0000   1.0000   1.0000   1.0000
     1.0000   1.0000   1.0000   1.0000   1.0000   1.0000   1.0000   1.0000
     1.0000   1.0000   1.0000   1.0000   1.0000   1.0000   1.0000   1.0000
     1.0000   1.0000   1.0000   1.0000   1.0000   1.0000   1.0000   1.0000
     1.0011   1.0011   1.0013   1.0013   1.0003   1.0003   0.9749   0.9749
     0.6564   0.6564   0.5282   0.5282  -0.0201  -0.0201  -0.0179  -0.0179
    -0.0000  -0.0000  -0.0000  -0.0000  -0.0000  -0.0000

          k =-0.3000-0.5000 0.4000 (  9654 PWs)   bands (ev):

   -56.4946 -56.4946 -56.4946 -56.4946 -56.4832 -56.4832 -56.4832 -56.4832
   -28.5701 -28.5701 -28.5672 -28.5672 -28.5426 -28.5426 -28.5400 -28.5400
   -27.6067 -27.6067 -27.5854 -27.5854 -27.5680 -27.5680 -27.5435 -27.5435
   -27.5074 -27.5074 -27.4798 -27.4798 -27.4547 -27.4547 -27.4395 -27.4395
     5.6188   5.6188   5.6209   5.6209   6.8415   6.8415   6.8467   6.8467
     9.1180   9.1180   9.1238   9.1238  10.4444  10.4444  10.4476  10.4476
    12.4413  12.4413  12.4495  12.4495  12.7826  12.7826  12.7916  12.7916
    13.0793  13.0793  13.0888  13.0888  13.4293  13.4293  13.4405  13.4405
    14.5087  14.5087  14.5158  14.5158  14.8784  14.8784  14.9007  14.9007
    15.0318  15.0318  15.0644  15.0644  15.2857  15.2857  15.3013  15.3013
    16.3479  16.3479  16.3569  16.3569  16.8711  16.8768

     occupation numbers 
     1.0000   1.0000   1.0000   1.0000   1.0000   1.0000   1.0000   1.0000
     1.0000   1.0000   1.0000   1.0000   1.0000   1.0000   1.0000   1.0000
     1.0000   1.0000   1.0000   1.0000   1.0000   1.0000   1.0000   1.0000
     1.0000   1.0000   1.0000   1.0000   1.0000   1.0000   1.0000   1.0000
     1.0000   1.0000   1.0000   1.0000   1.0000   1.0000   1.0000   1.0000
     1.0000   1.0000   1.0000   1.0000   1.0000   1.0000   1.0000   1.0000
     1.0000   1.0000   1.0000   1.0000   1.0000   1.0000   1.0000   1.0000
     1.0000   1.0000   1.0000   1.0000   1.0000   1.0000   1.0000   1.0000
     1.0137   1.0137   1.0148   1.0148   0.7480   0.7480   0.6795   0.6795
     0.2458   0.2458   0.1581   0.1581  -0.0333  -0.0333  -0.0311  -0.0311
    -0.0000  -0.0000  -0.0000  -0.0000  -0.0000  -0.0000

     the Fermi energy is    14.9540 ev

!    total energy              =   -1180.35059232 Ry

     total all-electron energy =    -10727.811429 Ry
     estimated scf accuracy    <       0.00000014 Ry
     smearing contrib. (-TS)   =      -0.00068258 Ry
     internal energy E=F+TS    =   -1180.34990975 Ry

     The total energy is F=E-TS. E is the sum of the following terms:
     one-electron contribution =    -336.79446726 Ry
     hartree contribution      =     207.03893951 Ry
     xc contribution           =    -114.36165896 Ry
     ewald contribution        =    -496.51183961 Ry
     one-center paw contrib.   =    -439.72088344 Ry
      -> PAW hartree energy AE =     126.71445760 Ry
      -> PAW hartree energy PS =    -125.74712175 Ry
      -> PAW xc energy AE      =     -96.23969531 Ry
      -> PAW xc energy PS      =      20.93234660 Ry
      -> total E_H with PAW    =     208.00627536 Ry
      -> total E_XC with PAW   =    -189.66900767 Ry

     convergence has been achieved in   8 iterations

     Forces acting on atoms (cartesian axes, Ry/au):

     atom    1 type  1   force =    -0.00290641   -0.00290641    0.00290641
     atom    2 type  1   force =    -0.00290641    0.00290641   -0.00290641
     atom    3 type  1   force =     0.00290641   -0.00290641   -0.00290641
     atom    4 type  1   force =     0.00290641    0.00290641    0.00290641
     atom    5 type  2   force =    -0.00420991   -0.00420991    0.00420991
     atom    6 type  2   force =    -0.00420991    0.00420991   -0.00420991
     atom    7 type  2   force =     0.00420991   -0.00420991   -0.00420991
     atom    8 type  2   force =     0.00420991    0.00420991    0.00420991
     The non-local contrib.  to forces
     atom    1 type  1   force =     0.05117062    0.05117062   -0.05117062
     atom    2 type  1   force =     0.05117062   -0.05117062    0.05117062
     atom    3 type  1   force =    -0.05117062    0.05117062    0.05117062
     atom    4 type  1   force =    -0.05117062   -0.05117062   -0.05117062
     atom    5 type  2   force =    -0.00807126   -0.00807126    0.00807126
     atom    6 type  2   force =    -0.00807126    0.00807126   -0.00807126
     atom    7 type  2   force =     0.00807126   -0.00807126   -0.00807126
     atom    8 type  2   force =     0.00807126    0.00807126    0.00807126
     The ionic contribution  to forces
     atom    1 type  1   force =    -0.85044630   -0.85044630    0.85044630
     atom    2 type  1   force =    -0.85044630    0.85044630   -0.85044630
     atom    3 type  1   force =     0.85044630   -0.85044630   -0.85044630
     atom    4 type  1   force =     0.85044630    0.85044630    0.85044630
     atom    5 type  2   force =    -0.24524978   -0.24524978    0.24524978
     atom    6 type  2   force =    -0.24524978    0.24524978   -0.24524978
     atom    7 type  2   force =     0.24524978   -0.24524978   -0.24524978
     atom    8 type  2   force =     0.24524978    0.24524978    0.24524978
     The local contribution  to forces
     atom    1 type  1   force =     0.79729355    0.79729355   -0.79729355
     atom    2 type  1   force =     0.79729355   -0.79729355    0.79729355
     atom    3 type  1   force =    -0.79729355    0.79729355    0.79729355
     atom    4 type  1   force =    -0.79729355   -0.79729355   -0.79729355
     atom    5 type  2   force =     0.24832165    0.24832165   -0.24832165
     atom    6 type  2   force =     0.24832165   -0.24832165    0.24832165
     atom    7 type  2   force =    -0.24832165    0.24832165    0.24832165
     atom    8 type  2   force =    -0.24832165   -0.24832165   -0.24832165
     The core correction contribution to forces
     atom    1 type  1   force =    -0.00103212   -0.00103212    0.00103212
     atom    2 type  1   force =    -0.00103212    0.00103212   -0.00103212
     atom    3 type  1   force =     0.00103212   -0.00103212   -0.00103212
     atom    4 type  1   force =     0.00103212    0.00103212    0.00103212
     atom    5 type  2   force =     0.00079616    0.00079616   -0.00079616
     atom    6 type  2   force =     0.00079616   -0.00079616    0.00079616
     atom    7 type  2   force =    -0.00079616    0.00079616    0.00079616
     atom    8 type  2   force =    -0.00079616   -0.00079616   -0.00079616
     The Hubbard contrib.    to forces
     atom    1 type  1   force =     0.00000000    0.00000000    0.00000000
     atom    2 type  1   force =     0.00000000    0.00000000    0.00000000
     atom    3 type  1   force =     0.00000000    0.00000000    0.00000000
     atom    4 type  1   force =     0.00000000    0.00000000    0.00000000
     atom    5 type  2   force =     0.00000000    0.00000000    0.00000000
     atom    6 type  2   force =     0.00000000    0.00000000    0.00000000
     atom    7 type  2   force =     0.00000000    0.00000000    0.00000000
     atom    8 type  2   force =     0.00000000    0.00000000    0.00000000
     The SCF correction term to forces
     atom    1 type  1   force =     0.00010784    0.00010784   -0.00010784
     atom    2 type  1   force =     0.00010784   -0.00010784    0.00010784
     atom    3 type  1   force =    -0.00010784    0.00010784    0.00010784
     atom    4 type  1   force =    -0.00010784   -0.00010784   -0.00010784
     atom    5 type  2   force =    -0.00000668   -0.00000668    0.00000668
     atom    6 type  2   force =    -0.00000668    0.00000668   -0.00000668
     atom    7 type  2   force =     0.00000668   -0.00000668   -0.00000668
     atom    8 type  2   force =     0.00000668    0.00000668    0.00000668

     Total force =     0.017721     Total SCF correction =     0.000374


     Computing stress (Cartesian axis) and pressure

          total   stress  (Ry/bohr**3)                   (kbar)     P=      -42.20
  -0.00028684   0.00000000   0.00000000          -42.20        0.00        0.00
   0.00000000  -0.00028684   0.00000000            0.00      -42.20        0.00
   0.00000000   0.00000000  -0.00028684            0.00        0.00      -42.20

     kinetic stress (kbar)  35759.67      0.00      0.00
                                0.00  35759.67      0.00
                                0.00      0.00  35759.67

     local   stress (kbar) -10012.42      0.00     -0.00
                                0.00 -10012.42     -0.00
                               -0.00     -0.00 -10012.42

     nonloc. stress (kbar)   2427.37      0.00      0.00
                                0.00   2427.37      0.00
                                0.00      0.00   2427.37

     hartree stress (kbar)  15167.02     -0.00     -0.00
                               -0.00  15167.02      0.00
                               -0.00      0.00  15167.02

     exc-cor stress (kbar)  -1706.57     -0.00     -0.00
                               -0.00  -1706.57     -0.00
                               -0.00     -0.00  -1706.57

     corecor stress (kbar)  -5304.38     -0.00      0.00
                               -0.00  -5304.38     -0.00
                                0.00     -0.00  -5304.38

     ewald   stress (kbar) -36372.90      0.00      0.00
                                0.00 -36372.90      0.00
                                0.00      0.00 -36372.90

     hubbard stress (kbar)      0.00      0.00      0.00
                                0.00      0.00      0.00
                                0.00      0.00      0.00

     DFT-D   stress (kbar)      0.00      0.00      0.00
                                0.00      0.00      0.00
                                0.00      0.00      0.00

     XDM     stress (kbar)      0.00      0.00      0.00
                                0.00      0.00      0.00
                                0.00      0.00      0.00

     dft-nl  stress (kbar)      0.00      0.00      0.00
                                0.00      0.00      0.00
                                0.00      0.00      0.00

     TS-vdW  stress (kbar)      0.00      0.00      0.00
                                0.00      0.00      0.00
                                0.00      0.00      0.00



     Writing output data file /zfs_data/vergnior/martin/Scratch/OAL/CrSi/convergence/smearing/10x10x10/0.018/tmp/CrSi.save/
 
     init_run     :     12.86s CPU     13.33s WALL (       1 calls)
     electrons    :    393.96s CPU    402.77s WALL (       1 calls)
     forces       :     12.34s CPU     12.45s WALL (       1 calls)
     stress       :     30.60s CPU     30.86s WALL (       1 calls)

     Called by init_run:
     wfcinit      :     11.62s CPU     11.93s WALL (       1 calls)
     wfcinit:atom :      0.10s CPU      0.10s WALL (      76 calls)
     wfcinit:wfcr :     11.09s CPU     11.39s WALL (      76 calls)
     potinit      :      0.20s CPU      0.27s WALL (       1 calls)
     hinit0       :      0.18s CPU      0.19s WALL (       1 calls)

     Called by electrons:
     c_bands      :    330.63s CPU    336.89s WALL (       9 calls)
     sum_band     :     57.76s CPU     59.49s WALL (       9 calls)
     v_of_rho     :      0.21s CPU      0.22s WALL (       9 calls)
     v_h          :      0.02s CPU      0.02s WALL (       9 calls)
     v_xc         :      0.24s CPU      0.25s WALL (      11 calls)
     newd         :      4.46s CPU      5.06s WALL (       9 calls)
     PAW_pot      :      1.26s CPU      1.29s WALL (       9 calls)
     mix_rho      :      0.13s CPU      0.13s WALL (       9 calls)

     Called by c_bands:
     init_us_2    :      1.94s CPU      1.97s WALL (    1596 calls)
     cegterg      :    303.70s CPU    309.32s WALL (     684 calls)

     Called by sum_band:
     sum_band:wei :      0.10s CPU      0.10s WALL (       9 calls)
     sum_band:loo :     54.41s CPU     55.34s WALL (       9 calls)
     sum_band:buf :      0.49s CPU      0.53s WALL (     684 calls)
     sum_band:ini :      0.89s CPU      0.90s WALL (     684 calls)
     sum_band:cal :      3.99s CPU      4.01s WALL (     684 calls)
     sum_band:bec :      9.38s CPU      9.41s WALL (     684 calls)
     addusdens    :      3.03s CPU      3.82s WALL (       9 calls)
     addusd:skk   :      0.01s CPU      0.01s WALL (      18 calls)
     addusd:dgemm :      1.15s CPU      1.92s WALL (      18 calls)
     addusd:qvan2 :      1.83s CPU      1.83s WALL (      18 calls)

     Called by *egterg:
     cdiaghg      :     29.01s CPU     29.12s WALL (    3716 calls)
     cegterg:over :     15.73s CPU     15.81s WALL (    3108 calls)
     cegterg:upda :      7.95s CPU      8.07s WALL (    3108 calls)
     cegterg:last :     16.29s CPU     16.36s WALL (    2009 calls)
     h_psi        :    209.37s CPU    214.60s WALL (    3868 calls)
     s_psi        :     28.90s CPU     29.00s WALL (    3868 calls)
     g_psi        :      0.52s CPU      0.52s WALL (    3108 calls)

     Called by h_psi:
     h_psi:calbec :     14.38s CPU     14.49s WALL (    3868 calls)
     vloc_psi     :    167.13s CPU    171.95s WALL (    3868 calls)
     add_vuspsi   :     26.92s CPU     27.12s WALL (    3868 calls)

     General routines
     calbec       :     20.30s CPU     20.45s WALL (    4932 calls)
     fft          :      0.23s CPU      0.23s WALL (     216 calls)
     ffts         :      0.02s CPU      0.08s WALL (      72 calls)
     fftw         :    155.41s CPU    159.85s WALL (  940192 calls)
     interpolate  :      0.05s CPU      0.11s WALL (      36 calls)
 
     Parallel routines
     fft_scatt_xy :     15.31s CPU     15.70s WALL (  940480 calls)
     fft_scatt_yz :     54.91s CPU     56.46s WALL (  940480 calls)

     PAW routines
     PAW_pot      :      1.26s CPU      1.29s WALL (       9 calls)
     PAW_symme    :      0.02s CPU      0.02s WALL (      18 calls)
 
     PWSCF        :   7m33.88s CPU   7m46.98s WALL

 
   This run was terminated on:  12:41:39   1Aug2021            

=------------------------------------------------------------------------------=
   JOB DONE.
=------------------------------------------------------------------------------=
