
     Program PHONON v.6.7MaX starts on  7Sep2021 at 11:39: 3 

     This program is part of the open-source Quantum ESPRESSO suite
     for quantum simulation of materials; please cite
         "P. Giannozzi et al., J. Phys.:Condens. Matter 21 395502 (2009);
         "P. Giannozzi et al., J. Phys.:Condens. Matter 29 465901 (2017);
          URL http://www.quantum-espresso.org", 
     in publications or presentations arising from this work. More details at
     http://www.quantum-espresso.org/quote

     Parallel version (MPI), running on    10 processors

     MPI processes distributed on     1 nodes
     R & G space division:  proc/nbgrp/npool/nimage =      10
     Waiting for input...
     Reading input from standard input

     Reading xml data from directory:

     /scratch/martin/CsV3Sb5/phonons/tmp/CsV3Sb5.save/
     file Cs.pbe-spn-kjpaw_psl.1.0.0.UPF: wavefunction(s)  5S 6S renormalized
     file V.pbe-spnl-kjpaw_psl.1.0.0.UPF: wavefunction(s)  3P 3D renormalized
     file Sb.pbe-n-kjpaw_psl.1.0.0.UPF: wavefunction(s)  5S renormalized

     IMPORTANT: XC functional enforced from input :
     Exchange-correlation= PBE
                           (   1   4   3   4   0   0   0)
     Any further DFT definition will be discarded
     Please, verify this is what you really want

 
     Parallelization info
     --------------------
     sticks:   dense  smooth     PW     G-vecs:    dense   smooth      PW
     Min         671     268     74                79690    20190    2888
     Max         673     271     75                79693    20193    2893
     Sum        6715    2689    745               796925   201905   28907
 
     Reading collected, re-writing distributed wavefunctions
        4 /   4 q-points for this run, from  1 to  4:
       N       xq(1)         xq(2)         xq(3) 
       1   0.000000000   0.000000000   0.000000000
       2   0.000000000   0.000000000  -0.278590250
       3   0.000000000  -0.577350269   0.000000000
       4   0.000000000  -0.577350269  -0.278590250
 

     Calculation of q =    0.0000000   0.0000000   0.0000000
     Message from routine ph_restart_set_filename :
     cannot open file for reading or writing
 end of file reached, closing tag not found
warning: file closed at level 1 with tag Root open
 end of file reached, closing tag not found
warning: file closed at level 1 with tag Root open
 end of file reached, closing tag not found
warning: file closed at level 1 with tag Root open
 end of file reached, closing tag not found
warning: file closed at level 1 with tag Root open
 end of file reached, closing tag not found
warning: file closed at level 1 with tag Root open
 end of file reached, closing tag not found
warning: file closed at level 1 with tag Root open
 end of file reached, closing tag not found
warning: file closed at level 1 with tag Root open
 end of file reached, closing tag not found
warning: file closed at level 1 with tag Root open
 end of file reached, closing tag not found
warning: file closed at level 1 with tag Root open
 end of file reached, closing tag not found
warning: file closed at level 1 with tag Root open
 end of file reached, closing tag not found
warning: file closed at level 1 with tag Root open
 end of file reached, closing tag not found
warning: file closed at level 1 with tag Root open
 end of file reached, closing tag not found
warning: file closed at level 1 with tag Root open
 end of file reached, closing tag not found
warning: file closed at level 1 with tag Root open
 end of file reached, closing tag not found
warning: file closed at level 1 with tag Root open
 end of file reached, closing tag not found
warning: file closed at level 1 with tag Root open
 end of file reached, closing tag not found
warning: file closed at level 1 with tag Root open
 end of file reached, closing tag not found
warning: file closed at level 1 with tag Root open
 end of file reached, closing tag not found
warning: file closed at level 1 with tag Root open

                                                                                

     bravais-lattice index     =            0
     lattice parameter (alat)  =      10.4005  a.u.
     unit-cell volume          =    1748.6128 (a.u.)^3
     number of atoms/cell      =            9
     number of atomic types    =            3
     kinetic-energy cut-off    =      90.0000  Ry
     charge density cut-off    =     900.0000  Ry
     convergence threshold     =      1.0E-20
     beta                      =       0.3500
     number of iterations used =            4
     Exchange-correlation= PBE
                           (   1   4   3   4   0   0   0)


     celldm(1)=   10.40047  celldm(2)=    0.00000  celldm(3)=    0.00000
     celldm(4)=    0.00000  celldm(5)=    0.00000  celldm(6)=    0.00000

     crystal axes: (cart. coord. in units of alat)
               a(1) = (  1.0000  0.0000  0.0000 )  
               a(2) = ( -0.5000  0.8660  0.0000 )  
               a(3) = (  0.0000  0.0000  1.7948 )  

     reciprocal axes: (cart. coord. in units 2 pi/alat)
               b(1) = (  1.0000  0.5774  0.0000 )  
               b(2) = (  0.0000  1.1547  0.0000 )  
               b(3) = (  0.0000  0.0000  0.5572 )  


     Atoms inside the unit cell: 

     Cartesian axes

     site n.  atom      mass           positions (alat units)
        1     Cs 132.9050   tau(    1) = (    0.00000    0.00000    0.00000  )
        2     V   50.9410   tau(    2) = (    0.50000    0.00000    0.89738  )
        3     V   50.9410   tau(    3) = (   -0.25000    0.43301    0.89738  )
        4     V   50.9410   tau(    4) = (    0.25000    0.43301    0.89738  )
        5     Sb 121.7600   tau(    5) = (    0.00000    0.00000    0.89738  )
        6     Sb 121.7600   tau(    6) = (    0.50000   -0.28868    1.31043  )
        7     Sb 121.7600   tau(    7) = (   -0.50000    0.28868    1.31043  )
        8     Sb 121.7600   tau(    8) = (    0.50000   -0.28868   -1.31043  )
        9     Sb 121.7600   tau(    9) = (   -0.50000    0.28868   -1.31043  )

     Computing dynamical matrix for 
                    q = (   0.0000000   0.0000000   0.0000000 )
 
     25 Sym.Ops. (with q -> -q+G )

                                    s                        frac. trans.

      isym =  1     identity                                     

 cryst.   s( 1) = (     1          0          0      )
                  (     0          1          0      )
                  (     0          0          1      )

 cart.    s( 1) = (  1.0000000  0.0000000  0.0000000 )
                  (  0.0000000  1.0000000  0.0000000 )
                  (  0.0000000  0.0000000  1.0000000 )


      isym =  2     180 deg rotation - cart. axis [0,0,1]        

 cryst.   s( 2) = (    -1          0          0      )
                  (     0         -1          0      )
                  (     0          0          1      )

 cart.    s( 2) = ( -1.0000000  0.0000000  0.0000000 )
                  (  0.0000000 -1.0000000  0.0000000 )
                  (  0.0000000  0.0000000  1.0000000 )


      isym =  3     180 deg rotation - cart. axis [0,1,0]        

 cryst.   s( 3) = (    -1          0          0      )
                  (     1          1          0      )
                  (     0          0         -1      )

 cart.    s( 3) = ( -1.0000000  0.0000000  0.0000000 )
                  (  0.0000000  1.0000000  0.0000000 )
                  (  0.0000000  0.0000000 -1.0000000 )


      isym =  4     180 deg rotation - cart. axis [1,0,0]        

 cryst.   s( 4) = (     1          0          0      )
                  (    -1         -1          0      )
                  (     0          0         -1      )

 cart.    s( 4) = (  1.0000000 -0.0000000  0.0000000 )
                  (  0.0000000 -1.0000000  0.0000000 )
                  (  0.0000000  0.0000000 -1.0000000 )


      isym =  5     60 deg rotation - cryst. axis [0,0,1]        

 cryst.   s( 5) = (     1          1          0      )
                  (    -1          0          0      )
                  (     0          0          1      )

 cart.    s( 5) = (  0.5000000 -0.8660254  0.0000000 )
                  (  0.8660254  0.5000000  0.0000000 )
                  (  0.0000000  0.0000000  1.0000000 )


      isym =  6     60 deg rotation - cryst. axis [0,0,-1]       

 cryst.   s( 6) = (     0         -1          0      )
                  (     1          1          0      )
                  (     0          0          1      )

 cart.    s( 6) = (  0.5000000  0.8660254  0.0000000 )
                  ( -0.8660254  0.5000000  0.0000000 )
                  (  0.0000000  0.0000000  1.0000000 )


      isym =  7     120 deg rotation - cryst. axis [0,0,1]       

 cryst.   s( 7) = (     0          1          0      )
                  (    -1         -1          0      )
                  (     0          0          1      )

 cart.    s( 7) = ( -0.5000000 -0.8660254  0.0000000 )
                  (  0.8660254 -0.5000000  0.0000000 )
                  (  0.0000000  0.0000000  1.0000000 )


      isym =  8     120 deg rotation - cryst. axis [0,0,-1]      

 cryst.   s( 8) = (    -1         -1          0      )
                  (     1          0          0      )
                  (     0          0          1      )

 cart.    s( 8) = ( -0.5000000  0.8660254  0.0000000 )
                  ( -0.8660254 -0.5000000  0.0000000 )
                  (  0.0000000  0.0000000  1.0000000 )


      isym =  9     180 deg rotation - cryst. axis [1,-1,0]      

 cryst.   s( 9) = (     0         -1          0      )
                  (    -1          0          0      )
                  (     0          0         -1      )

 cart.    s( 9) = (  0.5000000 -0.8660254  0.0000000 )
                  ( -0.8660254 -0.5000000  0.0000000 )
                  (  0.0000000  0.0000000 -1.0000000 )


      isym = 10     180 deg rotation - cryst. axis [2,1,0]       

 cryst.   s(10) = (     1          1          0      )
                  (     0         -1          0      )
                  (     0          0         -1      )

 cart.    s(10) = (  0.5000000  0.8660254  0.0000000 )
                  (  0.8660254 -0.5000000  0.0000000 )
                  (  0.0000000  0.0000000 -1.0000000 )


      isym = 11     180 deg rotation - cryst. axis [0,1,0]       

 cryst.   s(11) = (    -1         -1          0      )
                  (     0          1          0      )
                  (     0          0         -1      )

 cart.    s(11) = ( -0.5000000 -0.8660254  0.0000000 )
                  ( -0.8660254  0.5000000  0.0000000 )
                  (  0.0000000  0.0000000 -1.0000000 )


      isym = 12     180 deg rotation - cryst. axis [1,1,0]       

 cryst.   s(12) = (     0          1          0      )
                  (     1          0          0      )
                  (     0          0         -1      )

 cart.    s(12) = ( -0.5000000  0.8660254  0.0000000 )
                  (  0.8660254  0.5000000  0.0000000 )
                  (  0.0000000  0.0000000 -1.0000000 )


      isym = 13     inversion                                    

 cryst.   s(13) = (    -1          0          0      )
                  (     0         -1          0      )
                  (     0          0         -1      )

 cart.    s(13) = ( -1.0000000  0.0000000  0.0000000 )
                  (  0.0000000 -1.0000000  0.0000000 )
                  (  0.0000000  0.0000000 -1.0000000 )


      isym = 14     inv. 180 deg rotation - cart. axis [0,0,1]   

 cryst.   s(14) = (     1          0          0      )
                  (     0          1          0      )
                  (     0          0         -1      )

 cart.    s(14) = (  1.0000000  0.0000000  0.0000000 )
                  (  0.0000000  1.0000000  0.0000000 )
                  (  0.0000000  0.0000000 -1.0000000 )


      isym = 15     inv. 180 deg rotation - cart. axis [0,1,0]   

 cryst.   s(15) = (     1          0          0      )
                  (    -1         -1          0      )
                  (     0          0          1      )

 cart.    s(15) = (  1.0000000 -0.0000000  0.0000000 )
                  (  0.0000000 -1.0000000  0.0000000 )
                  (  0.0000000  0.0000000  1.0000000 )


      isym = 16     inv. 180 deg rotation - cart. axis [1,0,0]   

 cryst.   s(16) = (    -1          0          0      )
                  (     1          1          0      )
                  (     0          0          1      )

 cart.    s(16) = ( -1.0000000  0.0000000  0.0000000 )
                  (  0.0000000  1.0000000  0.0000000 )
                  (  0.0000000  0.0000000  1.0000000 )


      isym = 17     inv. 60 deg rotation - cryst. axis [0,0,1]   

 cryst.   s(17) = (    -1         -1          0      )
                  (     1          0          0      )
                  (     0          0         -1      )

 cart.    s(17) = ( -0.5000000  0.8660254  0.0000000 )
                  ( -0.8660254 -0.5000000  0.0000000 )
                  (  0.0000000  0.0000000 -1.0000000 )


      isym = 18     inv. 60 deg rotation - cryst. axis [0,0,-1]  

 cryst.   s(18) = (     0          1          0      )
                  (    -1         -1          0      )
                  (     0          0         -1      )

 cart.    s(18) = ( -0.5000000 -0.8660254  0.0000000 )
                  (  0.8660254 -0.5000000  0.0000000 )
                  (  0.0000000  0.0000000 -1.0000000 )


      isym = 19     inv. 120 deg rotation - cryst. axis [0,0,1]  

 cryst.   s(19) = (     0         -1          0      )
                  (     1          1          0      )
                  (     0          0         -1      )

 cart.    s(19) = (  0.5000000  0.8660254  0.0000000 )
                  ( -0.8660254  0.5000000  0.0000000 )
                  (  0.0000000  0.0000000 -1.0000000 )


      isym = 20     inv. 120 deg rotation - cryst. axis [0,0,-1] 

 cryst.   s(20) = (     1          1          0      )
                  (    -1          0          0      )
                  (     0          0         -1      )

 cart.    s(20) = (  0.5000000 -0.8660254  0.0000000 )
                  (  0.8660254  0.5000000  0.0000000 )
                  (  0.0000000  0.0000000 -1.0000000 )


      isym = 21     inv. 180 deg rotation - cryst. axis [1,-1,0] 

 cryst.   s(21) = (     0          1          0      )
                  (     1          0          0      )
                  (     0          0          1      )

 cart.    s(21) = ( -0.5000000  0.8660254  0.0000000 )
                  (  0.8660254  0.5000000  0.0000000 )
                  (  0.0000000  0.0000000  1.0000000 )


      isym = 22     inv. 180 deg rotation - cryst. axis [2,1,0]  

 cryst.   s(22) = (    -1         -1          0      )
                  (     0          1          0      )
                  (     0          0          1      )

 cart.    s(22) = ( -0.5000000 -0.8660254  0.0000000 )
                  ( -0.8660254  0.5000000  0.0000000 )
                  (  0.0000000  0.0000000  1.0000000 )


      isym = 23     inv. 180 deg rotation - cryst. axis [0,1,0]  

 cryst.   s(23) = (     1          1          0      )
                  (     0         -1          0      )
                  (     0          0          1      )

 cart.    s(23) = (  0.5000000  0.8660254  0.0000000 )
                  (  0.8660254 -0.5000000  0.0000000 )
                  (  0.0000000  0.0000000  1.0000000 )


      isym = 24     inv. 180 deg rotation - cryst. axis [1,1,0]  

 cryst.   s(24) = (     0         -1          0      )
                  (    -1          0          0      )
                  (     0          0          1      )

 cart.    s(24) = (  0.5000000 -0.8660254  0.0000000 )
                  ( -0.8660254 -0.5000000  0.0000000 )
                  (  0.0000000  0.0000000  1.0000000 )


     This transformation sends q -> -q+G

      isym = 25     identity                                     

 cryst.   s(25) = (     1          0          0      )
                  (     0          1          0      )
                  (     0          0          1      )

 cart.    s(25) = (  1.0000000  0.0000000  0.0000000 )
                  (  0.0000000  1.0000000  0.0000000 )
                  (  0.0000000  0.0000000  1.0000000 )


     G cutoff = 2465.9753  (  79693 G-vectors)     FFT grid: (100,100,180)
     G cutoff =  986.3901  (  20190 G-vectors)  smooth grid: ( 64, 64,120)

     number of k points=   259  Methfessel-Paxton smearing, width (Ry)=  0.0200
                       cart. coord. in units 2pi/alat
        k(    1) = (   0.0000000   0.0000000   0.0000000), wk =   0.0005144
        k(    2) = (   0.0000000   0.0000000   0.0464317), wk =   0.0010288
        k(    3) = (   0.0000000   0.0000000   0.0928634), wk =   0.0010288
        k(    4) = (   0.0000000   0.0000000   0.1392951), wk =   0.0010288
        k(    5) = (   0.0000000   0.0000000   0.1857268), wk =   0.0010288
        k(    6) = (   0.0000000   0.0000000   0.2321585), wk =   0.0010288
        k(    7) = (   0.0000000   0.0000000  -0.2785902), wk =   0.0005144
        k(    8) = (   0.0000000   0.0641500   0.0000000), wk =   0.0030864
        k(    9) = (   0.0000000   0.0641500   0.0464317), wk =   0.0061728
        k(   10) = (   0.0000000   0.0641500   0.0928634), wk =   0.0061728
        k(   11) = (   0.0000000   0.0641500   0.1392951), wk =   0.0061728
        k(   12) = (   0.0000000   0.0641500   0.1857268), wk =   0.0061728
        k(   13) = (   0.0000000   0.0641500   0.2321585), wk =   0.0061728
        k(   14) = (   0.0000000   0.0641500  -0.2785902), wk =   0.0030864
        k(   15) = (   0.0000000   0.1283001   0.0000000), wk =   0.0030864
        k(   16) = (   0.0000000   0.1283001   0.0464317), wk =   0.0061728
        k(   17) = (   0.0000000   0.1283001   0.0928634), wk =   0.0061728
        k(   18) = (   0.0000000   0.1283001   0.1392951), wk =   0.0061728
        k(   19) = (   0.0000000   0.1283001   0.1857268), wk =   0.0061728
        k(   20) = (   0.0000000   0.1283001   0.2321585), wk =   0.0061728
        k(   21) = (   0.0000000   0.1283001  -0.2785902), wk =   0.0030864
        k(   22) = (   0.0000000   0.1924501   0.0000000), wk =   0.0030864
        k(   23) = (   0.0000000   0.1924501   0.0464317), wk =   0.0061728
        k(   24) = (   0.0000000   0.1924501   0.0928634), wk =   0.0061728
        k(   25) = (   0.0000000   0.1924501   0.1392951), wk =   0.0061728
        k(   26) = (   0.0000000   0.1924501   0.1857268), wk =   0.0061728
        k(   27) = (   0.0000000   0.1924501   0.2321585), wk =   0.0061728
        k(   28) = (   0.0000000   0.1924501  -0.2785902), wk =   0.0030864
        k(   29) = (   0.0000000   0.2566001   0.0000000), wk =   0.0030864
        k(   30) = (   0.0000000   0.2566001   0.0464317), wk =   0.0061728
        k(   31) = (   0.0000000   0.2566001   0.0928634), wk =   0.0061728
        k(   32) = (   0.0000000   0.2566001   0.1392951), wk =   0.0061728
        k(   33) = (   0.0000000   0.2566001   0.1857268), wk =   0.0061728
        k(   34) = (   0.0000000   0.2566001   0.2321585), wk =   0.0061728
        k(   35) = (   0.0000000   0.2566001  -0.2785902), wk =   0.0030864
        k(   36) = (   0.0000000   0.3207501   0.0000000), wk =   0.0030864
        k(   37) = (   0.0000000   0.3207501   0.0464317), wk =   0.0061728
        k(   38) = (   0.0000000   0.3207501   0.0928634), wk =   0.0061728
        k(   39) = (   0.0000000   0.3207501   0.1392951), wk =   0.0061728
        k(   40) = (   0.0000000   0.3207501   0.1857268), wk =   0.0061728
        k(   41) = (   0.0000000   0.3207501   0.2321585), wk =   0.0061728
        k(   42) = (   0.0000000   0.3207501  -0.2785902), wk =   0.0030864
        k(   43) = (   0.0000000   0.3849002   0.0000000), wk =   0.0030864
        k(   44) = (   0.0000000   0.3849002   0.0464317), wk =   0.0061728
        k(   45) = (   0.0000000   0.3849002   0.0928634), wk =   0.0061728
        k(   46) = (   0.0000000   0.3849002   0.1392951), wk =   0.0061728
        k(   47) = (   0.0000000   0.3849002   0.1857268), wk =   0.0061728
        k(   48) = (   0.0000000   0.3849002   0.2321585), wk =   0.0061728
        k(   49) = (   0.0000000   0.3849002  -0.2785902), wk =   0.0030864
        k(   50) = (   0.0000000   0.4490502   0.0000000), wk =   0.0030864
        k(   51) = (   0.0000000   0.4490502   0.0464317), wk =   0.0061728
        k(   52) = (   0.0000000   0.4490502   0.0928634), wk =   0.0061728
        k(   53) = (   0.0000000   0.4490502   0.1392951), wk =   0.0061728
        k(   54) = (   0.0000000   0.4490502   0.1857268), wk =   0.0061728
        k(   55) = (   0.0000000   0.4490502   0.2321585), wk =   0.0061728
        k(   56) = (   0.0000000   0.4490502  -0.2785902), wk =   0.0030864
        k(   57) = (   0.0000000   0.5132002   0.0000000), wk =   0.0030864
        k(   58) = (   0.0000000   0.5132002   0.0464317), wk =   0.0061728
        k(   59) = (   0.0000000   0.5132002   0.0928634), wk =   0.0061728
        k(   60) = (   0.0000000   0.5132002   0.1392951), wk =   0.0061728
        k(   61) = (   0.0000000   0.5132002   0.1857268), wk =   0.0061728
        k(   62) = (   0.0000000   0.5132002   0.2321585), wk =   0.0061728
        k(   63) = (   0.0000000   0.5132002  -0.2785902), wk =   0.0030864
        k(   64) = (   0.0000000  -0.5773503   0.0000000), wk =   0.0015432
        k(   65) = (   0.0000000  -0.5773503   0.0464317), wk =   0.0030864
        k(   66) = (   0.0000000  -0.5773503   0.0928634), wk =   0.0030864
        k(   67) = (   0.0000000  -0.5773503   0.1392951), wk =   0.0030864
        k(   68) = (   0.0000000  -0.5773503   0.1857268), wk =   0.0030864
        k(   69) = (   0.0000000  -0.5773503   0.2321585), wk =   0.0030864
        k(   70) = (   0.0000000  -0.5773503  -0.2785902), wk =   0.0015432
        k(   71) = (   0.0555556   0.0962250   0.0000000), wk =   0.0030864
        k(   72) = (   0.0555556   0.0962250   0.0464317), wk =   0.0061728
        k(   73) = (   0.0555556   0.0962250   0.0928634), wk =   0.0061728
        k(   74) = (   0.0555556   0.0962250   0.1392951), wk =   0.0061728
        k(   75) = (   0.0555556   0.0962250   0.1857268), wk =   0.0061728
        k(   76) = (   0.0555556   0.0962250   0.2321585), wk =   0.0061728
        k(   77) = (   0.0555556   0.0962250  -0.2785902), wk =   0.0030864
        k(   78) = (   0.0555556   0.1603751   0.0000000), wk =   0.0061728
        k(   79) = (   0.0555556   0.1603751   0.0464317), wk =   0.0123457
        k(   80) = (   0.0555556   0.1603751   0.0928634), wk =   0.0123457
        k(   81) = (   0.0555556   0.1603751   0.1392951), wk =   0.0123457
        k(   82) = (   0.0555556   0.1603751   0.1857268), wk =   0.0123457
        k(   83) = (   0.0555556   0.1603751   0.2321585), wk =   0.0123457
        k(   84) = (   0.0555556   0.1603751  -0.2785902), wk =   0.0061728
        k(   85) = (   0.0555556   0.2245251   0.0000000), wk =   0.0061728
        k(   86) = (   0.0555556   0.2245251   0.0464317), wk =   0.0123457
        k(   87) = (   0.0555556   0.2245251   0.0928634), wk =   0.0123457
        k(   88) = (   0.0555556   0.2245251   0.1392951), wk =   0.0123457
        k(   89) = (   0.0555556   0.2245251   0.1857268), wk =   0.0123457
        k(   90) = (   0.0555556   0.2245251   0.2321585), wk =   0.0123457
        k(   91) = (   0.0555556   0.2245251  -0.2785902), wk =   0.0061728
        k(   92) = (   0.0555556   0.2886751   0.0000000), wk =   0.0061728
        k(   93) = (   0.0555556   0.2886751   0.0464317), wk =   0.0123457
        k(   94) = (   0.0555556   0.2886751   0.0928634), wk =   0.0123457
        k(   95) = (   0.0555556   0.2886751   0.1392951), wk =   0.0123457
        k(   96) = (   0.0555556   0.2886751   0.1857268), wk =   0.0123457
        k(   97) = (   0.0555556   0.2886751   0.2321585), wk =   0.0123457
        k(   98) = (   0.0555556   0.2886751  -0.2785902), wk =   0.0061728
        k(   99) = (   0.0555556   0.3528252   0.0000000), wk =   0.0061728
        k(  100) = (   0.0555556   0.3528252   0.0464317), wk =   0.0123457
        k(  101) = (   0.0555556   0.3528252   0.0928634), wk =   0.0123457
        k(  102) = (   0.0555556   0.3528252   0.1392951), wk =   0.0123457
        k(  103) = (   0.0555556   0.3528252   0.1857268), wk =   0.0123457
        k(  104) = (   0.0555556   0.3528252   0.2321585), wk =   0.0123457
        k(  105) = (   0.0555556   0.3528252  -0.2785902), wk =   0.0061728
        k(  106) = (   0.0555556   0.4169752   0.0000000), wk =   0.0061728
        k(  107) = (   0.0555556   0.4169752   0.0464317), wk =   0.0123457
        k(  108) = (   0.0555556   0.4169752   0.0928634), wk =   0.0123457
        k(  109) = (   0.0555556   0.4169752   0.1392951), wk =   0.0123457
        k(  110) = (   0.0555556   0.4169752   0.1857268), wk =   0.0123457
        k(  111) = (   0.0555556   0.4169752   0.2321585), wk =   0.0123457
        k(  112) = (   0.0555556   0.4169752  -0.2785902), wk =   0.0061728
        k(  113) = (   0.0555556   0.4811252   0.0000000), wk =   0.0061728
        k(  114) = (   0.0555556   0.4811252   0.0464317), wk =   0.0123457
        k(  115) = (   0.0555556   0.4811252   0.0928634), wk =   0.0123457
        k(  116) = (   0.0555556   0.4811252   0.1392951), wk =   0.0123457
        k(  117) = (   0.0555556   0.4811252   0.1857268), wk =   0.0123457
        k(  118) = (   0.0555556   0.4811252   0.2321585), wk =   0.0123457
        k(  119) = (   0.0555556   0.4811252  -0.2785902), wk =   0.0061728
        k(  120) = (   0.0555556   0.5452753   0.0000000), wk =   0.0061728
        k(  121) = (   0.0555556   0.5452753   0.0464317), wk =   0.0123457
        k(  122) = (   0.0555556   0.5452753   0.0928634), wk =   0.0123457
        k(  123) = (   0.0555556   0.5452753   0.1392951), wk =   0.0123457
        k(  124) = (   0.0555556   0.5452753   0.1857268), wk =   0.0123457
        k(  125) = (   0.0555556   0.5452753   0.2321585), wk =   0.0123457
        k(  126) = (   0.0555556   0.5452753  -0.2785902), wk =   0.0061728
        k(  127) = (   0.1111111   0.1924501   0.0000000), wk =   0.0030864
        k(  128) = (   0.1111111   0.1924501   0.0464317), wk =   0.0061728
        k(  129) = (   0.1111111   0.1924501   0.0928634), wk =   0.0061728
        k(  130) = (   0.1111111   0.1924501   0.1392951), wk =   0.0061728
        k(  131) = (   0.1111111   0.1924501   0.1857268), wk =   0.0061728
        k(  132) = (   0.1111111   0.1924501   0.2321585), wk =   0.0061728
        k(  133) = (   0.1111111   0.1924501  -0.2785902), wk =   0.0030864
        k(  134) = (   0.1111111   0.2566001   0.0000000), wk =   0.0061728
        k(  135) = (   0.1111111   0.2566001   0.0464317), wk =   0.0123457
        k(  136) = (   0.1111111   0.2566001   0.0928634), wk =   0.0123457
        k(  137) = (   0.1111111   0.2566001   0.1392951), wk =   0.0123457
        k(  138) = (   0.1111111   0.2566001   0.1857268), wk =   0.0123457
        k(  139) = (   0.1111111   0.2566001   0.2321585), wk =   0.0123457
        k(  140) = (   0.1111111   0.2566001  -0.2785902), wk =   0.0061728
        k(  141) = (   0.1111111   0.3207501   0.0000000), wk =   0.0061728
        k(  142) = (   0.1111111   0.3207501   0.0464317), wk =   0.0123457
        k(  143) = (   0.1111111   0.3207501   0.0928634), wk =   0.0123457
        k(  144) = (   0.1111111   0.3207501   0.1392951), wk =   0.0123457
        k(  145) = (   0.1111111   0.3207501   0.1857268), wk =   0.0123457
        k(  146) = (   0.1111111   0.3207501   0.2321585), wk =   0.0123457
        k(  147) = (   0.1111111   0.3207501  -0.2785902), wk =   0.0061728
        k(  148) = (   0.1111111   0.3849002   0.0000000), wk =   0.0061728
        k(  149) = (   0.1111111   0.3849002   0.0464317), wk =   0.0123457
        k(  150) = (   0.1111111   0.3849002   0.0928634), wk =   0.0123457
        k(  151) = (   0.1111111   0.3849002   0.1392951), wk =   0.0123457
        k(  152) = (   0.1111111   0.3849002   0.1857268), wk =   0.0123457
        k(  153) = (   0.1111111   0.3849002   0.2321585), wk =   0.0123457
        k(  154) = (   0.1111111   0.3849002  -0.2785902), wk =   0.0061728
        k(  155) = (   0.1111111   0.4490502   0.0000000), wk =   0.0061728
        k(  156) = (   0.1111111   0.4490502   0.0464317), wk =   0.0123457
        k(  157) = (   0.1111111   0.4490502   0.0928634), wk =   0.0123457
        k(  158) = (   0.1111111   0.4490502   0.1392951), wk =   0.0123457
        k(  159) = (   0.1111111   0.4490502   0.1857268), wk =   0.0123457
        k(  160) = (   0.1111111   0.4490502   0.2321585), wk =   0.0123457
        k(  161) = (   0.1111111   0.4490502  -0.2785902), wk =   0.0061728
        k(  162) = (   0.1111111   0.5132002   0.0000000), wk =   0.0061728
        k(  163) = (   0.1111111   0.5132002   0.0464317), wk =   0.0123457
        k(  164) = (   0.1111111   0.5132002   0.0928634), wk =   0.0123457
        k(  165) = (   0.1111111   0.5132002   0.1392951), wk =   0.0123457
        k(  166) = (   0.1111111   0.5132002   0.1857268), wk =   0.0123457
        k(  167) = (   0.1111111   0.5132002   0.2321585), wk =   0.0123457
        k(  168) = (   0.1111111   0.5132002  -0.2785902), wk =   0.0061728
        k(  169) = (   0.1111111   0.5773503   0.0000000), wk =   0.0030864
        k(  170) = (   0.1111111   0.5773503   0.0464317), wk =   0.0061728
        k(  171) = (   0.1111111   0.5773503   0.0928634), wk =   0.0061728
        k(  172) = (   0.1111111   0.5773503   0.1392951), wk =   0.0061728
        k(  173) = (   0.1111111   0.5773503   0.1857268), wk =   0.0061728
        k(  174) = (   0.1111111   0.5773503   0.2321585), wk =   0.0061728
        k(  175) = (   0.1111111   0.5773503  -0.2785902), wk =   0.0030864
        k(  176) = (   0.1666667   0.2886751   0.0000000), wk =   0.0030864
        k(  177) = (   0.1666667   0.2886751   0.0464317), wk =   0.0061728
        k(  178) = (   0.1666667   0.2886751   0.0928634), wk =   0.0061728
        k(  179) = (   0.1666667   0.2886751   0.1392951), wk =   0.0061728
        k(  180) = (   0.1666667   0.2886751   0.1857268), wk =   0.0061728
        k(  181) = (   0.1666667   0.2886751   0.2321585), wk =   0.0061728
        k(  182) = (   0.1666667   0.2886751  -0.2785902), wk =   0.0030864
        k(  183) = (   0.1666667   0.3528252   0.0000000), wk =   0.0061728
        k(  184) = (   0.1666667   0.3528252   0.0464317), wk =   0.0123457
        k(  185) = (   0.1666667   0.3528252   0.0928634), wk =   0.0123457
        k(  186) = (   0.1666667   0.3528252   0.1392951), wk =   0.0123457
        k(  187) = (   0.1666667   0.3528252   0.1857268), wk =   0.0123457
        k(  188) = (   0.1666667   0.3528252   0.2321585), wk =   0.0123457
        k(  189) = (   0.1666667   0.3528252  -0.2785902), wk =   0.0061728
        k(  190) = (   0.1666667   0.4169752   0.0000000), wk =   0.0061728
        k(  191) = (   0.1666667   0.4169752   0.0464317), wk =   0.0123457
        k(  192) = (   0.1666667   0.4169752   0.0928634), wk =   0.0123457
        k(  193) = (   0.1666667   0.4169752   0.1392951), wk =   0.0123457
        k(  194) = (   0.1666667   0.4169752   0.1857268), wk =   0.0123457
        k(  195) = (   0.1666667   0.4169752   0.2321585), wk =   0.0123457
        k(  196) = (   0.1666667   0.4169752  -0.2785902), wk =   0.0061728
        k(  197) = (   0.1666667   0.4811252   0.0000000), wk =   0.0061728
        k(  198) = (   0.1666667   0.4811252   0.0464317), wk =   0.0123457
        k(  199) = (   0.1666667   0.4811252   0.0928634), wk =   0.0123457
        k(  200) = (   0.1666667   0.4811252   0.1392951), wk =   0.0123457
        k(  201) = (   0.1666667   0.4811252   0.1857268), wk =   0.0123457
        k(  202) = (   0.1666667   0.4811252   0.2321585), wk =   0.0123457
        k(  203) = (   0.1666667   0.4811252  -0.2785902), wk =   0.0061728
        k(  204) = (   0.1666667   0.5452753   0.0000000), wk =   0.0061728
        k(  205) = (   0.1666667   0.5452753   0.0464317), wk =   0.0123457
        k(  206) = (   0.1666667   0.5452753   0.0928634), wk =   0.0123457
        k(  207) = (   0.1666667   0.5452753   0.1392951), wk =   0.0123457
        k(  208) = (   0.1666667   0.5452753   0.1857268), wk =   0.0123457
        k(  209) = (   0.1666667   0.5452753   0.2321585), wk =   0.0123457
        k(  210) = (   0.1666667   0.5452753  -0.2785902), wk =   0.0061728
        k(  211) = (   0.2222222   0.3849002   0.0000000), wk =   0.0030864
        k(  212) = (   0.2222222   0.3849002   0.0464317), wk =   0.0061728
        k(  213) = (   0.2222222   0.3849002   0.0928634), wk =   0.0061728
        k(  214) = (   0.2222222   0.3849002   0.1392951), wk =   0.0061728
        k(  215) = (   0.2222222   0.3849002   0.1857268), wk =   0.0061728
        k(  216) = (   0.2222222   0.3849002   0.2321585), wk =   0.0061728
        k(  217) = (   0.2222222   0.3849002  -0.2785902), wk =   0.0030864
        k(  218) = (   0.2222222   0.4490502   0.0000000), wk =   0.0061728
        k(  219) = (   0.2222222   0.4490502   0.0464317), wk =   0.0123457
        k(  220) = (   0.2222222   0.4490502   0.0928634), wk =   0.0123457
        k(  221) = (   0.2222222   0.4490502   0.1392951), wk =   0.0123457
        k(  222) = (   0.2222222   0.4490502   0.1857268), wk =   0.0123457
        k(  223) = (   0.2222222   0.4490502   0.2321585), wk =   0.0123457
        k(  224) = (   0.2222222   0.4490502  -0.2785902), wk =   0.0061728
        k(  225) = (   0.2222222   0.5132002   0.0000000), wk =   0.0061728
        k(  226) = (   0.2222222   0.5132002   0.0464317), wk =   0.0123457
        k(  227) = (   0.2222222   0.5132002   0.0928634), wk =   0.0123457
        k(  228) = (   0.2222222   0.5132002   0.1392951), wk =   0.0123457
        k(  229) = (   0.2222222   0.5132002   0.1857268), wk =   0.0123457
        k(  230) = (   0.2222222   0.5132002   0.2321585), wk =   0.0123457
        k(  231) = (   0.2222222   0.5132002  -0.2785902), wk =   0.0061728
        k(  232) = (   0.2222222   0.5773503   0.0000000), wk =   0.0030864
        k(  233) = (   0.2222222   0.5773503   0.0464317), wk =   0.0061728
        k(  234) = (   0.2222222   0.5773503   0.0928634), wk =   0.0061728
        k(  235) = (   0.2222222   0.5773503   0.1392951), wk =   0.0061728
        k(  236) = (   0.2222222   0.5773503   0.1857268), wk =   0.0061728
        k(  237) = (   0.2222222   0.5773503   0.2321585), wk =   0.0061728
        k(  238) = (   0.2222222   0.5773503  -0.2785902), wk =   0.0030864
        k(  239) = (   0.2777778   0.4811252   0.0000000), wk =   0.0030864
        k(  240) = (   0.2777778   0.4811252   0.0464317), wk =   0.0061728
        k(  241) = (   0.2777778   0.4811252   0.0928634), wk =   0.0061728
        k(  242) = (   0.2777778   0.4811252   0.1392951), wk =   0.0061728
        k(  243) = (   0.2777778   0.4811252   0.1857268), wk =   0.0061728
        k(  244) = (   0.2777778   0.4811252   0.2321585), wk =   0.0061728
        k(  245) = (   0.2777778   0.4811252  -0.2785902), wk =   0.0030864
        k(  246) = (   0.2777778   0.5452753   0.0000000), wk =   0.0061728
        k(  247) = (   0.2777778   0.5452753   0.0464317), wk =   0.0123457
        k(  248) = (   0.2777778   0.5452753   0.0928634), wk =   0.0123457
        k(  249) = (   0.2777778   0.5452753   0.1392951), wk =   0.0123457
        k(  250) = (   0.2777778   0.5452753   0.1857268), wk =   0.0123457
        k(  251) = (   0.2777778   0.5452753   0.2321585), wk =   0.0123457
        k(  252) = (   0.2777778   0.5452753  -0.2785902), wk =   0.0061728
        k(  253) = (   0.3333333   0.5773503   0.0000000), wk =   0.0010288
        k(  254) = (   0.3333333   0.5773503   0.0464317), wk =   0.0020576
        k(  255) = (   0.3333333   0.5773503   0.0928634), wk =   0.0020576
        k(  256) = (   0.3333333   0.5773503   0.1392951), wk =   0.0020576
        k(  257) = (   0.3333333   0.5773503   0.1857268), wk =   0.0020576
        k(  258) = (   0.3333333   0.5773503   0.2321585), wk =   0.0020576
        k(  259) = (   0.3333333   0.5773503  -0.2785902), wk =   0.0010288

                       cryst. coord.
        k(    1) = (   0.0000000   0.0000000   0.0000000), wk =   0.0005144
        k(    2) = (   0.0000000   0.0000000   0.0833333), wk =   0.0010288
        k(    3) = (   0.0000000   0.0000000   0.1666667), wk =   0.0010288
        k(    4) = (   0.0000000   0.0000000   0.2500000), wk =   0.0010288
        k(    5) = (   0.0000000   0.0000000   0.3333333), wk =   0.0010288
        k(    6) = (   0.0000000   0.0000000   0.4166667), wk =   0.0010288
        k(    7) = (   0.0000000   0.0000000  -0.5000000), wk =   0.0005144
        k(    8) = (   0.0000000   0.0555556   0.0000000), wk =   0.0030864
        k(    9) = (   0.0000000   0.0555556   0.0833333), wk =   0.0061728
        k(   10) = (   0.0000000   0.0555556   0.1666667), wk =   0.0061728
        k(   11) = (   0.0000000   0.0555556   0.2500000), wk =   0.0061728
        k(   12) = (   0.0000000   0.0555556   0.3333333), wk =   0.0061728
        k(   13) = (   0.0000000   0.0555556   0.4166667), wk =   0.0061728
        k(   14) = (   0.0000000   0.0555556  -0.5000000), wk =   0.0030864
        k(   15) = (   0.0000000   0.1111111   0.0000000), wk =   0.0030864
        k(   16) = (   0.0000000   0.1111111   0.0833333), wk =   0.0061728
        k(   17) = (   0.0000000   0.1111111   0.1666667), wk =   0.0061728
        k(   18) = (   0.0000000   0.1111111   0.2500000), wk =   0.0061728
        k(   19) = (   0.0000000   0.1111111   0.3333333), wk =   0.0061728
        k(   20) = (   0.0000000   0.1111111   0.4166667), wk =   0.0061728
        k(   21) = (   0.0000000   0.1111111  -0.5000000), wk =   0.0030864
        k(   22) = (   0.0000000   0.1666667   0.0000000), wk =   0.0030864
        k(   23) = (   0.0000000   0.1666667   0.0833333), wk =   0.0061728
        k(   24) = (   0.0000000   0.1666667   0.1666667), wk =   0.0061728
        k(   25) = (   0.0000000   0.1666667   0.2500000), wk =   0.0061728
        k(   26) = (   0.0000000   0.1666667   0.3333333), wk =   0.0061728
        k(   27) = (   0.0000000   0.1666667   0.4166667), wk =   0.0061728
        k(   28) = (   0.0000000   0.1666667  -0.5000000), wk =   0.0030864
        k(   29) = (   0.0000000   0.2222222   0.0000000), wk =   0.0030864
        k(   30) = (   0.0000000   0.2222222   0.0833333), wk =   0.0061728
        k(   31) = (   0.0000000   0.2222222   0.1666667), wk =   0.0061728
        k(   32) = (   0.0000000   0.2222222   0.2500000), wk =   0.0061728
        k(   33) = (   0.0000000   0.2222222   0.3333333), wk =   0.0061728
        k(   34) = (   0.0000000   0.2222222   0.4166667), wk =   0.0061728
        k(   35) = (   0.0000000   0.2222222  -0.5000000), wk =   0.0030864
        k(   36) = (   0.0000000   0.2777778   0.0000000), wk =   0.0030864
        k(   37) = (   0.0000000   0.2777778   0.0833333), wk =   0.0061728
        k(   38) = (   0.0000000   0.2777778   0.1666667), wk =   0.0061728
        k(   39) = (   0.0000000   0.2777778   0.2500000), wk =   0.0061728
        k(   40) = (   0.0000000   0.2777778   0.3333333), wk =   0.0061728
        k(   41) = (   0.0000000   0.2777778   0.4166667), wk =   0.0061728
        k(   42) = (   0.0000000   0.2777778  -0.5000000), wk =   0.0030864
        k(   43) = (   0.0000000   0.3333333   0.0000000), wk =   0.0030864
        k(   44) = (   0.0000000   0.3333333   0.0833333), wk =   0.0061728
        k(   45) = (   0.0000000   0.3333333   0.1666667), wk =   0.0061728
        k(   46) = (   0.0000000   0.3333333   0.2500000), wk =   0.0061728
        k(   47) = (   0.0000000   0.3333333   0.3333333), wk =   0.0061728
        k(   48) = (   0.0000000   0.3333333   0.4166667), wk =   0.0061728
        k(   49) = (   0.0000000   0.3333333  -0.5000000), wk =   0.0030864
        k(   50) = (   0.0000000   0.3888889   0.0000000), wk =   0.0030864
        k(   51) = (   0.0000000   0.3888889   0.0833333), wk =   0.0061728
        k(   52) = (   0.0000000   0.3888889   0.1666667), wk =   0.0061728
        k(   53) = (   0.0000000   0.3888889   0.2500000), wk =   0.0061728
        k(   54) = (   0.0000000   0.3888889   0.3333333), wk =   0.0061728
        k(   55) = (   0.0000000   0.3888889   0.4166667), wk =   0.0061728
        k(   56) = (   0.0000000   0.3888889  -0.5000000), wk =   0.0030864
        k(   57) = (   0.0000000   0.4444444   0.0000000), wk =   0.0030864
        k(   58) = (   0.0000000   0.4444444   0.0833333), wk =   0.0061728
        k(   59) = (   0.0000000   0.4444444   0.1666667), wk =   0.0061728
        k(   60) = (   0.0000000   0.4444444   0.2500000), wk =   0.0061728
        k(   61) = (   0.0000000   0.4444444   0.3333333), wk =   0.0061728
        k(   62) = (   0.0000000   0.4444444   0.4166667), wk =   0.0061728
        k(   63) = (   0.0000000   0.4444444  -0.5000000), wk =   0.0030864
        k(   64) = (   0.0000000  -0.5000000   0.0000000), wk =   0.0015432
        k(   65) = (   0.0000000  -0.5000000   0.0833333), wk =   0.0030864
        k(   66) = (   0.0000000  -0.5000000   0.1666667), wk =   0.0030864
        k(   67) = (   0.0000000  -0.5000000   0.2500000), wk =   0.0030864
        k(   68) = (   0.0000000  -0.5000000   0.3333333), wk =   0.0030864
        k(   69) = (   0.0000000  -0.5000000   0.4166667), wk =   0.0030864
        k(   70) = (   0.0000000  -0.5000000  -0.5000000), wk =   0.0015432
        k(   71) = (   0.0555556   0.0555556   0.0000000), wk =   0.0030864
        k(   72) = (   0.0555556   0.0555556   0.0833333), wk =   0.0061728
        k(   73) = (   0.0555556   0.0555556   0.1666667), wk =   0.0061728
        k(   74) = (   0.0555556   0.0555556   0.2500000), wk =   0.0061728
        k(   75) = (   0.0555556   0.0555556   0.3333333), wk =   0.0061728
        k(   76) = (   0.0555556   0.0555556   0.4166667), wk =   0.0061728
        k(   77) = (   0.0555556   0.0555556  -0.5000000), wk =   0.0030864
        k(   78) = (   0.0555556   0.1111111   0.0000000), wk =   0.0061728
        k(   79) = (   0.0555556   0.1111111   0.0833333), wk =   0.0123457
        k(   80) = (   0.0555556   0.1111111   0.1666667), wk =   0.0123457
        k(   81) = (   0.0555556   0.1111111   0.2500000), wk =   0.0123457
        k(   82) = (   0.0555556   0.1111111   0.3333333), wk =   0.0123457
        k(   83) = (   0.0555556   0.1111111   0.4166667), wk =   0.0123457
        k(   84) = (   0.0555556   0.1111111  -0.5000000), wk =   0.0061728
        k(   85) = (   0.0555556   0.1666667   0.0000000), wk =   0.0061728
        k(   86) = (   0.0555556   0.1666667   0.0833333), wk =   0.0123457
        k(   87) = (   0.0555556   0.1666667   0.1666667), wk =   0.0123457
        k(   88) = (   0.0555556   0.1666667   0.2500000), wk =   0.0123457
        k(   89) = (   0.0555556   0.1666667   0.3333333), wk =   0.0123457
        k(   90) = (   0.0555556   0.1666667   0.4166667), wk =   0.0123457
        k(   91) = (   0.0555556   0.1666667  -0.5000000), wk =   0.0061728
        k(   92) = (   0.0555556   0.2222222   0.0000000), wk =   0.0061728
        k(   93) = (   0.0555556   0.2222222   0.0833333), wk =   0.0123457
        k(   94) = (   0.0555556   0.2222222   0.1666667), wk =   0.0123457
        k(   95) = (   0.0555556   0.2222222   0.2500000), wk =   0.0123457
        k(   96) = (   0.0555556   0.2222222   0.3333333), wk =   0.0123457
        k(   97) = (   0.0555556   0.2222222   0.4166667), wk =   0.0123457
        k(   98) = (   0.0555556   0.2222222  -0.5000000), wk =   0.0061728
        k(   99) = (   0.0555556   0.2777778   0.0000000), wk =   0.0061728
        k(  100) = (   0.0555556   0.2777778   0.0833333), wk =   0.0123457
        k(  101) = (   0.0555556   0.2777778   0.1666667), wk =   0.0123457
        k(  102) = (   0.0555556   0.2777778   0.2500000), wk =   0.0123457
        k(  103) = (   0.0555556   0.2777778   0.3333333), wk =   0.0123457
        k(  104) = (   0.0555556   0.2777778   0.4166667), wk =   0.0123457
        k(  105) = (   0.0555556   0.2777778  -0.5000000), wk =   0.0061728
        k(  106) = (   0.0555556   0.3333333   0.0000000), wk =   0.0061728
        k(  107) = (   0.0555556   0.3333333   0.0833333), wk =   0.0123457
        k(  108) = (   0.0555556   0.3333333   0.1666667), wk =   0.0123457
        k(  109) = (   0.0555556   0.3333333   0.2500000), wk =   0.0123457
        k(  110) = (   0.0555556   0.3333333   0.3333333), wk =   0.0123457
        k(  111) = (   0.0555556   0.3333333   0.4166667), wk =   0.0123457
        k(  112) = (   0.0555556   0.3333333  -0.5000000), wk =   0.0061728
        k(  113) = (   0.0555556   0.3888889   0.0000000), wk =   0.0061728
        k(  114) = (   0.0555556   0.3888889   0.0833333), wk =   0.0123457
        k(  115) = (   0.0555556   0.3888889   0.1666667), wk =   0.0123457
        k(  116) = (   0.0555556   0.3888889   0.2500000), wk =   0.0123457
        k(  117) = (   0.0555556   0.3888889   0.3333333), wk =   0.0123457
        k(  118) = (   0.0555556   0.3888889   0.4166667), wk =   0.0123457
        k(  119) = (   0.0555556   0.3888889  -0.5000000), wk =   0.0061728
        k(  120) = (   0.0555556   0.4444444   0.0000000), wk =   0.0061728
        k(  121) = (   0.0555556   0.4444444   0.0833333), wk =   0.0123457
        k(  122) = (   0.0555556   0.4444444   0.1666667), wk =   0.0123457
        k(  123) = (   0.0555556   0.4444444   0.2500000), wk =   0.0123457
        k(  124) = (   0.0555556   0.4444444   0.3333333), wk =   0.0123457
        k(  125) = (   0.0555556   0.4444444   0.4166667), wk =   0.0123457
        k(  126) = (   0.0555556   0.4444444  -0.5000000), wk =   0.0061728
        k(  127) = (   0.1111111   0.1111111   0.0000000), wk =   0.0030864
        k(  128) = (   0.1111111   0.1111111   0.0833333), wk =   0.0061728
        k(  129) = (   0.1111111   0.1111111   0.1666667), wk =   0.0061728
        k(  130) = (   0.1111111   0.1111111   0.2500000), wk =   0.0061728
        k(  131) = (   0.1111111   0.1111111   0.3333333), wk =   0.0061728
        k(  132) = (   0.1111111   0.1111111   0.4166667), wk =   0.0061728
        k(  133) = (   0.1111111   0.1111111  -0.5000000), wk =   0.0030864
        k(  134) = (   0.1111111   0.1666667   0.0000000), wk =   0.0061728
        k(  135) = (   0.1111111   0.1666667   0.0833333), wk =   0.0123457
        k(  136) = (   0.1111111   0.1666667   0.1666667), wk =   0.0123457
        k(  137) = (   0.1111111   0.1666667   0.2500000), wk =   0.0123457
        k(  138) = (   0.1111111   0.1666667   0.3333333), wk =   0.0123457
        k(  139) = (   0.1111111   0.1666667   0.4166667), wk =   0.0123457
        k(  140) = (   0.1111111   0.1666667  -0.5000000), wk =   0.0061728
        k(  141) = (   0.1111111   0.2222222   0.0000000), wk =   0.0061728
        k(  142) = (   0.1111111   0.2222222   0.0833333), wk =   0.0123457
        k(  143) = (   0.1111111   0.2222222   0.1666667), wk =   0.0123457
        k(  144) = (   0.1111111   0.2222222   0.2500000), wk =   0.0123457
        k(  145) = (   0.1111111   0.2222222   0.3333333), wk =   0.0123457
        k(  146) = (   0.1111111   0.2222222   0.4166667), wk =   0.0123457
        k(  147) = (   0.1111111   0.2222222  -0.5000000), wk =   0.0061728
        k(  148) = (   0.1111111   0.2777778   0.0000000), wk =   0.0061728
        k(  149) = (   0.1111111   0.2777778   0.0833333), wk =   0.0123457
        k(  150) = (   0.1111111   0.2777778   0.1666667), wk =   0.0123457
        k(  151) = (   0.1111111   0.2777778   0.2500000), wk =   0.0123457
        k(  152) = (   0.1111111   0.2777778   0.3333333), wk =   0.0123457
        k(  153) = (   0.1111111   0.2777778   0.4166667), wk =   0.0123457
        k(  154) = (   0.1111111   0.2777778  -0.5000000), wk =   0.0061728
        k(  155) = (   0.1111111   0.3333333   0.0000000), wk =   0.0061728
        k(  156) = (   0.1111111   0.3333333   0.0833333), wk =   0.0123457
        k(  157) = (   0.1111111   0.3333333   0.1666667), wk =   0.0123457
        k(  158) = (   0.1111111   0.3333333   0.2500000), wk =   0.0123457
        k(  159) = (   0.1111111   0.3333333   0.3333333), wk =   0.0123457
        k(  160) = (   0.1111111   0.3333333   0.4166667), wk =   0.0123457
        k(  161) = (   0.1111111   0.3333333  -0.5000000), wk =   0.0061728
        k(  162) = (   0.1111111   0.3888889   0.0000000), wk =   0.0061728
        k(  163) = (   0.1111111   0.3888889   0.0833333), wk =   0.0123457
        k(  164) = (   0.1111111   0.3888889   0.1666667), wk =   0.0123457
        k(  165) = (   0.1111111   0.3888889   0.2500000), wk =   0.0123457
        k(  166) = (   0.1111111   0.3888889   0.3333333), wk =   0.0123457
        k(  167) = (   0.1111111   0.3888889   0.4166667), wk =   0.0123457
        k(  168) = (   0.1111111   0.3888889  -0.5000000), wk =   0.0061728
        k(  169) = (   0.1111111   0.4444444   0.0000000), wk =   0.0030864
        k(  170) = (   0.1111111   0.4444444   0.0833333), wk =   0.0061728
        k(  171) = (   0.1111111   0.4444444   0.1666667), wk =   0.0061728
        k(  172) = (   0.1111111   0.4444444   0.2500000), wk =   0.0061728
        k(  173) = (   0.1111111   0.4444444   0.3333333), wk =   0.0061728
        k(  174) = (   0.1111111   0.4444444   0.4166667), wk =   0.0061728
        k(  175) = (   0.1111111   0.4444444  -0.5000000), wk =   0.0030864
        k(  176) = (   0.1666667   0.1666667   0.0000000), wk =   0.0030864
        k(  177) = (   0.1666667   0.1666667   0.0833333), wk =   0.0061728
        k(  178) = (   0.1666667   0.1666667   0.1666667), wk =   0.0061728
        k(  179) = (   0.1666667   0.1666667   0.2500000), wk =   0.0061728
        k(  180) = (   0.1666667   0.1666667   0.3333333), wk =   0.0061728
        k(  181) = (   0.1666667   0.1666667   0.4166667), wk =   0.0061728
        k(  182) = (   0.1666667   0.1666667  -0.5000000), wk =   0.0030864
        k(  183) = (   0.1666667   0.2222222   0.0000000), wk =   0.0061728
        k(  184) = (   0.1666667   0.2222222   0.0833333), wk =   0.0123457
        k(  185) = (   0.1666667   0.2222222   0.1666667), wk =   0.0123457
        k(  186) = (   0.1666667   0.2222222   0.2500000), wk =   0.0123457
        k(  187) = (   0.1666667   0.2222222   0.3333333), wk =   0.0123457
        k(  188) = (   0.1666667   0.2222222   0.4166667), wk =   0.0123457
        k(  189) = (   0.1666667   0.2222222  -0.5000000), wk =   0.0061728
        k(  190) = (   0.1666667   0.2777778   0.0000000), wk =   0.0061728
        k(  191) = (   0.1666667   0.2777778   0.0833333), wk =   0.0123457
        k(  192) = (   0.1666667   0.2777778   0.1666667), wk =   0.0123457
        k(  193) = (   0.1666667   0.2777778   0.2500000), wk =   0.0123457
        k(  194) = (   0.1666667   0.2777778   0.3333333), wk =   0.0123457
        k(  195) = (   0.1666667   0.2777778   0.4166667), wk =   0.0123457
        k(  196) = (   0.1666667   0.2777778  -0.5000000), wk =   0.0061728
        k(  197) = (   0.1666667   0.3333333   0.0000000), wk =   0.0061728
        k(  198) = (   0.1666667   0.3333333   0.0833333), wk =   0.0123457
        k(  199) = (   0.1666667   0.3333333   0.1666667), wk =   0.0123457
        k(  200) = (   0.1666667   0.3333333   0.2500000), wk =   0.0123457
        k(  201) = (   0.1666667   0.3333333   0.3333333), wk =   0.0123457
        k(  202) = (   0.1666667   0.3333333   0.4166667), wk =   0.0123457
        k(  203) = (   0.1666667   0.3333333  -0.5000000), wk =   0.0061728
        k(  204) = (   0.1666667   0.3888889   0.0000000), wk =   0.0061728
        k(  205) = (   0.1666667   0.3888889   0.0833333), wk =   0.0123457
        k(  206) = (   0.1666667   0.3888889   0.1666667), wk =   0.0123457
        k(  207) = (   0.1666667   0.3888889   0.2500000), wk =   0.0123457
        k(  208) = (   0.1666667   0.3888889   0.3333333), wk =   0.0123457
        k(  209) = (   0.1666667   0.3888889   0.4166667), wk =   0.0123457
        k(  210) = (   0.1666667   0.3888889  -0.5000000), wk =   0.0061728
        k(  211) = (   0.2222222   0.2222222   0.0000000), wk =   0.0030864
        k(  212) = (   0.2222222   0.2222222   0.0833333), wk =   0.0061728
        k(  213) = (   0.2222222   0.2222222   0.1666667), wk =   0.0061728
        k(  214) = (   0.2222222   0.2222222   0.2500000), wk =   0.0061728
        k(  215) = (   0.2222222   0.2222222   0.3333333), wk =   0.0061728
        k(  216) = (   0.2222222   0.2222222   0.4166667), wk =   0.0061728
        k(  217) = (   0.2222222   0.2222222  -0.5000000), wk =   0.0030864
        k(  218) = (   0.2222222   0.2777778   0.0000000), wk =   0.0061728
        k(  219) = (   0.2222222   0.2777778   0.0833333), wk =   0.0123457
        k(  220) = (   0.2222222   0.2777778   0.1666667), wk =   0.0123457
        k(  221) = (   0.2222222   0.2777778   0.2500000), wk =   0.0123457
        k(  222) = (   0.2222222   0.2777778   0.3333333), wk =   0.0123457
        k(  223) = (   0.2222222   0.2777778   0.4166667), wk =   0.0123457
        k(  224) = (   0.2222222   0.2777778  -0.5000000), wk =   0.0061728
        k(  225) = (   0.2222222   0.3333333   0.0000000), wk =   0.0061728
        k(  226) = (   0.2222222   0.3333333   0.0833333), wk =   0.0123457
        k(  227) = (   0.2222222   0.3333333   0.1666667), wk =   0.0123457
        k(  228) = (   0.2222222   0.3333333   0.2500000), wk =   0.0123457
        k(  229) = (   0.2222222   0.3333333   0.3333333), wk =   0.0123457
        k(  230) = (   0.2222222   0.3333333   0.4166667), wk =   0.0123457
        k(  231) = (   0.2222222   0.3333333  -0.5000000), wk =   0.0061728
        k(  232) = (   0.2222222   0.3888889   0.0000000), wk =   0.0030864
        k(  233) = (   0.2222222   0.3888889   0.0833333), wk =   0.0061728
        k(  234) = (   0.2222222   0.3888889   0.1666667), wk =   0.0061728
        k(  235) = (   0.2222222   0.3888889   0.2500000), wk =   0.0061728
        k(  236) = (   0.2222222   0.3888889   0.3333333), wk =   0.0061728
        k(  237) = (   0.2222222   0.3888889   0.4166667), wk =   0.0061728
        k(  238) = (   0.2222222   0.3888889  -0.5000000), wk =   0.0030864
        k(  239) = (   0.2777778   0.2777778   0.0000000), wk =   0.0030864
        k(  240) = (   0.2777778   0.2777778   0.0833333), wk =   0.0061728
        k(  241) = (   0.2777778   0.2777778   0.1666667), wk =   0.0061728
        k(  242) = (   0.2777778   0.2777778   0.2500000), wk =   0.0061728
        k(  243) = (   0.2777778   0.2777778   0.3333333), wk =   0.0061728
        k(  244) = (   0.2777778   0.2777778   0.4166667), wk =   0.0061728
        k(  245) = (   0.2777778   0.2777778  -0.5000000), wk =   0.0030864
        k(  246) = (   0.2777778   0.3333333   0.0000000), wk =   0.0061728
        k(  247) = (   0.2777778   0.3333333   0.0833333), wk =   0.0123457
        k(  248) = (   0.2777778   0.3333333   0.1666667), wk =   0.0123457
        k(  249) = (   0.2777778   0.3333333   0.2500000), wk =   0.0123457
        k(  250) = (   0.2777778   0.3333333   0.3333333), wk =   0.0123457
        k(  251) = (   0.2777778   0.3333333   0.4166667), wk =   0.0123457
        k(  252) = (   0.2777778   0.3333333  -0.5000000), wk =   0.0061728
        k(  253) = (   0.3333333   0.3333333   0.0000000), wk =   0.0010288
        k(  254) = (   0.3333333   0.3333333   0.0833333), wk =   0.0020576
        k(  255) = (   0.3333333   0.3333333   0.1666667), wk =   0.0020576
        k(  256) = (   0.3333333   0.3333333   0.2500000), wk =   0.0020576
        k(  257) = (   0.3333333   0.3333333   0.3333333), wk =   0.0020576
        k(  258) = (   0.3333333   0.3333333   0.4166667), wk =   0.0020576
        k(  259) = (   0.3333333   0.3333333  -0.5000000), wk =   0.0010288

     PseudoPot. # 1 for Cs read from file:
     /lscratch/martin/156411/pseudo/Cs.pbe-spn-kjpaw_psl.1.0.0.UPF
     MD5 check sum: b82c75cc2e1f4ff73b6412cffeb9c584
     Pseudo is Projector augmented-wave + core cor, Zval =  9.0
     Generated using &quot;atomic&quot; code by A. Dal Corso  v.6.4.1
     Shape of augmentation charge: PSQ
     Using radial grid of 1251 points,  9 beta functions with: 
                l(1) =   0
                l(2) =   0
                l(3) =   0
                l(4) =   1
                l(5) =   1
                l(6) =   2
                l(7) =   2
                l(8) =   3
                l(9) =   3
     Q(r) pseudized with 0 coefficients 


     PseudoPot. # 2 for V  read from file:
     /lscratch/martin/156411/pseudo/V.pbe-spnl-kjpaw_psl.1.0.0.UPF
     MD5 check sum: 069c5df6a0a9f40a694a86a6cab52b89
     Pseudo is Projector augmented-wave + core cor, Zval = 13.0
     Generated using &quot;atomic&quot; code by A. Dal Corso  v.6.3
     Shape of augmentation charge: PSQ
     Using radial grid of 1181 points,  6 beta functions with: 
                l(1) =   0
                l(2) =   0
                l(3) =   1
                l(4) =   1
                l(5) =   2
                l(6) =   2
     Q(r) pseudized with 0 coefficients 


     PseudoPot. # 3 for Sb read from file:
     /lscratch/martin/156411/pseudo/Sb.pbe-n-kjpaw_psl.1.0.0.UPF
     MD5 check sum: 6b903ae7923846f66e229fa892705b98
     Pseudo is Projector augmented-wave + core cor, Zval =  5.0
     Generated using &quot;atomic&quot; code by A. Dal Corso  v.6.2.2
     Shape of augmentation charge: PSQ
     Using radial grid of 1243 points,  6 beta functions with: 
                l(1) =   0
                l(2) =   0
                l(3) =   1
                l(4) =   1
                l(5) =   2
                l(6) =   2
     Q(r) pseudized with 0 coefficients 


     point group D_6h(6/mmm)
     there are 12 classes
     the character table:

       E     2C6   2C3   C2    3C2'  3C2'' i     2S3   2S6   s_h   3s_d  3s_v 
A_1g   1.00  1.00  1.00  1.00  1.00  1.00  1.00  1.00  1.00  1.00  1.00  1.00
A_2g   1.00  1.00  1.00  1.00 -1.00 -1.00  1.00  1.00  1.00  1.00 -1.00 -1.00
B_1g   1.00 -1.00  1.00 -1.00  1.00 -1.00  1.00 -1.00  1.00 -1.00  1.00 -1.00
B_2g   1.00 -1.00  1.00 -1.00 -1.00  1.00  1.00 -1.00  1.00 -1.00 -1.00  1.00
E_1g   2.00  1.00 -1.00 -2.00  0.00  0.00  2.00  1.00 -1.00 -2.00  0.00  0.00
E_2g   2.00 -1.00 -1.00  2.00  0.00  0.00  2.00 -1.00 -1.00  2.00  0.00  0.00
A_1u   1.00  1.00  1.00  1.00  1.00  1.00 -1.00 -1.00 -1.00 -1.00 -1.00 -1.00
A_2u   1.00  1.00  1.00  1.00 -1.00 -1.00 -1.00 -1.00 -1.00 -1.00  1.00  1.00
B_1u   1.00 -1.00  1.00 -1.00  1.00 -1.00 -1.00  1.00 -1.00  1.00 -1.00  1.00
B_2u   1.00 -1.00  1.00 -1.00 -1.00  1.00 -1.00  1.00 -1.00  1.00  1.00 -1.00
E_1u   2.00  1.00 -1.00 -2.00  0.00  0.00 -2.00 -1.00  1.00  2.00  0.00  0.00
E_2u   2.00 -1.00 -1.00  2.00  0.00  0.00 -2.00  1.00  1.00 -2.00  0.00  0.00

     the symmetry operations in each class and the name of the first element:

     E        1
                                                                 
     2C6      5    6
                                                                 
     2C3      7    8
                                                                 
     C2       2
                                                                 
     3C2'     4   12   11
                                                                 
     3C2''    3    9   10
                                                                 
     i       13
                                                                 
     2S3     17   18
                                                                 
     2S6     19   20
                                                                 
     s_h     14
                                                                 
     3s_d    16   24   23
                                                                 
     3s_v    15   21   22
                                                                 


     Atomic displacements:
     There are   18 irreducible representations

     Representation     1      1 modes -  Done
     Irreps are as follows:

                     mode #   1
                     (   0.00000   0.00000   ) 
                     (   0.00000   0.00000   ) 
                     (   0.00000   0.00000   ) 
                     (   0.00000   0.00000   ) 
                     (   0.00000   0.00000   ) 
                     (   0.00000   0.00000   ) 
                     (   0.00000   0.00000   ) 
                     (   0.00000   0.00000   ) 
                     (   0.00000   0.00000   ) 
                     (   0.00000   0.00000   ) 
                     (   0.00000   0.00000   ) 
                     (   0.00000   0.00000   ) 
                     (   0.00000   0.00000   ) 
                     (   0.00000   0.00000   ) 
                     (   0.00000   0.00000   ) 
                     (  -0.00000   0.00000   ) 
                     (   0.00000   0.00000   ) 
                     (  -0.50000   0.00000   ) 
                     (  -0.00000   0.00000   ) 
                     (  -0.00000   0.00000   ) 
                     (  -0.50000   0.00000   ) 
                     (  -0.00000   0.00000   ) 
                     (   0.00000   0.00000   ) 
                     (   0.50000   0.00000   ) 
                     (  -0.00000   0.00000   ) 
                     (  -0.00000   0.00000   ) 
                     (   0.50000   0.00000   ) 

     Representation     2      1 modes -  Done
     Irreps are as follows:

                     mode #   2
                     (   0.00000   0.00000   ) 
                     (   0.00000   0.00000   ) 
                     (   0.00000   0.00000   ) 
                     (   0.00000   0.00000   ) 
                     (   0.00000   0.00000   ) 
                     (   0.00000   0.00000   ) 
                     (   0.00000   0.00000   ) 
                     (   0.00000   0.00000   ) 
                     (   0.00000   0.00000   ) 
                     (   0.00000   0.00000   ) 
                     (   0.00000   0.00000   ) 
                     (   0.00000   0.00000   ) 
                     (   0.00000   0.00000   ) 
                     (   0.00000   0.00000   ) 
                     (   0.00000   0.00000   ) 
                     (  -0.00000   0.00000   ) 
                     (  -0.00000   0.00000   ) 
                     (  -0.50000   0.00000   ) 
                     (   0.00000   0.00000   ) 
                     (   0.00000   0.00000   ) 
                     (   0.50000   0.00000   ) 
                     (   0.00000   0.00000   ) 
                     (  -0.00000   0.00000   ) 
                     (  -0.50000   0.00000   ) 
                     (   0.00000   0.00000   ) 
                     (   0.00000   0.00000   ) 
                     (   0.50000   0.00000   ) 

     Representation     3      2 modes -  Done
     Irreps are as follows:

           mode #   3                           mode #   4
           (   0.00000   0.00000   )            (   0.00000   0.00000   ) 
           (   0.00000   0.00000   )            (   0.00000   0.00000   ) 
           (   0.00000   0.00000   )            (   0.00000   0.00000   ) 
           (   0.00000   0.00000   )            (   0.00000   0.00000   ) 
           (   0.00000   0.00000   )            (   0.00000   0.00000   ) 
           (   0.00000   0.00000   )            (   0.00000   0.00000   ) 
           (   0.00000   0.00000   )            (   0.00000   0.00000   ) 
           (   0.00000   0.00000   )            (   0.00000   0.00000   ) 
           (   0.00000   0.00000   )            (   0.00000   0.00000   ) 
           (   0.00000   0.00000   )            (   0.00000   0.00000   ) 
           (   0.00000   0.00000   )            (   0.00000   0.00000   ) 
           (   0.00000   0.00000   )            (   0.00000   0.00000   ) 
           (   0.00000   0.00000   )            (   0.00000   0.00000   ) 
           (   0.00000   0.00000   )            (   0.00000   0.00000   ) 
           (   0.00000   0.00000   )            (   0.00000   0.00000   ) 
           (  -0.44548   0.00000   )            (  -0.22704   0.00000   ) 
           (  -0.22704   0.00000   )            (   0.44548   0.00000   ) 
           (   0.00000   0.00000   )            (   0.00000   0.00000   ) 
           (  -0.44548   0.00000   )            (  -0.22704   0.00000   ) 
           (  -0.22704   0.00000   )            (   0.44548   0.00000   ) 
           (   0.00000   0.00000   )            (   0.00000   0.00000   ) 
           (   0.44548   0.00000   )            (   0.22704   0.00000   ) 
           (   0.22704   0.00000   )            (  -0.44548   0.00000   ) 
           (   0.00000   0.00000   )            (  -0.00000   0.00000   ) 
           (   0.44548   0.00000   )            (   0.22704   0.00000   ) 
           (   0.22704   0.00000   )            (  -0.44548   0.00000   ) 
           (   0.00000   0.00000   )            (   0.00000   0.00000   ) 

     Representation     4      2 modes -  Done
     Irreps are as follows:

           mode #   5                           mode #   6
           (   0.00000   0.00000   )            (   0.00000   0.00000   ) 
           (   0.00000   0.00000   )            (   0.00000   0.00000   ) 
           (   0.00000   0.00000   )            (   0.00000   0.00000   ) 
           (   0.00000   0.00000   )            (   0.00000   0.00000   ) 
           (   0.00000   0.00000   )            (   0.00000   0.00000   ) 
           (   0.00000   0.00000   )            (   0.00000   0.00000   ) 
           (   0.00000   0.00000   )            (   0.00000   0.00000   ) 
           (   0.00000   0.00000   )            (   0.00000   0.00000   ) 
           (   0.00000   0.00000   )            (   0.00000   0.00000   ) 
           (   0.00000   0.00000   )            (   0.00000   0.00000   ) 
           (   0.00000   0.00000   )            (   0.00000   0.00000   ) 
           (   0.00000   0.00000   )            (   0.00000   0.00000   ) 
           (   0.00000   0.00000   )            (   0.00000   0.00000   ) 
           (   0.00000   0.00000   )            (   0.00000   0.00000   ) 
           (   0.00000   0.00000   )            (   0.00000   0.00000   ) 
           (  -0.44547   0.00000   )            (  -0.22705   0.00000   ) 
           (  -0.22705   0.00000   )            (   0.44547   0.00000   ) 
           (   0.00000   0.00000   )            (  -0.00000   0.00000   ) 
           (   0.44547   0.00000   )            (   0.22705   0.00000   ) 
           (   0.22705   0.00000   )            (  -0.44547   0.00000   ) 
           (   0.00000   0.00000   )            (   0.00000   0.00000   ) 
           (  -0.44547   0.00000   )            (  -0.22705   0.00000   ) 
           (  -0.22705   0.00000   )            (   0.44547   0.00000   ) 
           (   0.00000   0.00000   )            (  -0.00000   0.00000   ) 
           (   0.44547   0.00000   )            (   0.22705   0.00000   ) 
           (   0.22705   0.00000   )            (  -0.44547   0.00000   ) 
           (   0.00000   0.00000   )            (   0.00000   0.00000   ) 

     Representation     5      1 modes -  Done
     Irreps are as follows:

                     mode #   7
                     (   0.00000   0.00000   ) 
                     (   0.00000   0.00000   ) 
                     (  -1.00000   0.00000   ) 
                     (   0.00000   0.00000   ) 
                     (   0.00000   0.00000   ) 
                     (   0.00000   0.00000   ) 
                     (   0.00000   0.00000   ) 
                     (   0.00000   0.00000   ) 
                     (   0.00000   0.00000   ) 
                     (   0.00000   0.00000   ) 
                     (   0.00000   0.00000   ) 
                     (   0.00000   0.00000   ) 
                     (   0.00000   0.00000   ) 
                     (   0.00000   0.00000   ) 
                     (   0.00000   0.00000   ) 
                     (   0.00000   0.00000   ) 
                     (   0.00000   0.00000   ) 
                     (   0.00000   0.00000   ) 
                     (   0.00000   0.00000   ) 
                     (   0.00000   0.00000   ) 
                     (   0.00000   0.00000   ) 
                     (   0.00000   0.00000   ) 
                     (   0.00000   0.00000   ) 
                     (   0.00000   0.00000   ) 
                     (   0.00000   0.00000   ) 
                     (   0.00000   0.00000   ) 
                     (   0.00000   0.00000   ) 

     Representation     6      1 modes -  Done
     Irreps are as follows:

                     mode #   8
                     (   0.00000   0.00000   ) 
                     (   0.00000   0.00000   ) 
                     (   0.00000   0.00000   ) 
                     (  -0.00000   0.00000   ) 
                     (  -0.00000   0.00000   ) 
                     (  -0.57735   0.00000   ) 
                     (   0.00000   0.00000   ) 
                     (   0.00000   0.00000   ) 
                     (  -0.57735   0.00000   ) 
                     (   0.00000   0.00000   ) 
                     (   0.00000   0.00000   ) 
                     (  -0.57735   0.00000   ) 
                     (   0.00000   0.00000   ) 
                     (   0.00000   0.00000   ) 
                     (   0.00000   0.00000   ) 
                     (   0.00000   0.00000   ) 
                     (   0.00000   0.00000   ) 
                     (   0.00000   0.00000   ) 
                     (   0.00000   0.00000   ) 
                     (   0.00000   0.00000   ) 
                     (   0.00000   0.00000   ) 
                     (   0.00000   0.00000   ) 
                     (   0.00000   0.00000   ) 
                     (   0.00000   0.00000   ) 
                     (   0.00000   0.00000   ) 
                     (   0.00000   0.00000   ) 
                     (   0.00000   0.00000   ) 

     Representation     7      1 modes -  Done
     Irreps are as follows:

                     mode #   9
                     (   0.00000   0.00000   ) 
                     (   0.00000   0.00000   ) 
                     (   0.00000   0.00000   ) 
                     (   0.00000   0.00000   ) 
                     (   0.00000   0.00000   ) 
                     (   0.00000   0.00000   ) 
                     (   0.00000   0.00000   ) 
                     (   0.00000   0.00000   ) 
                     (   0.00000   0.00000   ) 
                     (   0.00000   0.00000   ) 
                     (   0.00000   0.00000   ) 
                     (   0.00000   0.00000   ) 
                     (   0.00000   0.00000   ) 
                     (   0.00000   0.00000   ) 
                     (   0.00000   0.00000   ) 
                     (  -0.00000   0.00000   ) 
                     (  -0.00000   0.00000   ) 
                     (  -0.50000   0.00000   ) 
                     (   0.00000   0.00000   ) 
                     (   0.00000   0.00000   ) 
                     (  -0.50000   0.00000   ) 
                     (   0.00000   0.00000   ) 
                     (  -0.00000   0.00000   ) 
                     (  -0.50000   0.00000   ) 
                     (  -0.00000   0.00000   ) 
                     (   0.00000   0.00000   ) 
                     (  -0.50000   0.00000   ) 

     Representation     8      1 modes -  Done
     Irreps are as follows:

                     mode #  10
                     (   0.00000   0.00000   ) 
                     (   0.00000   0.00000   ) 
                     (   0.00000   0.00000   ) 
                     (   0.00000   0.00000   ) 
                     (   0.00000   0.00000   ) 
                     (   0.00000   0.00000   ) 
                     (   0.00000   0.00000   ) 
                     (   0.00000   0.00000   ) 
                     (   0.00000   0.00000   ) 
                     (   0.00000   0.00000   ) 
                     (   0.00000   0.00000   ) 
                     (   0.00000   0.00000   ) 
                     (   0.00000   0.00000   ) 
                     (   0.00000   0.00000   ) 
                     (  -1.00000   0.00000   ) 
                     (   0.00000   0.00000   ) 
                     (   0.00000   0.00000   ) 
                     (   0.00000   0.00000   ) 
                     (   0.00000   0.00000   ) 
                     (   0.00000   0.00000   ) 
                     (   0.00000   0.00000   ) 
                     (   0.00000   0.00000   ) 
                     (   0.00000   0.00000   ) 
                     (   0.00000   0.00000   ) 
                     (   0.00000   0.00000   ) 
                     (   0.00000   0.00000   ) 
                     (   0.00000   0.00000   ) 

     Representation     9      1 modes -  Done
     Irreps are as follows:

                     mode #  11
                     (   0.00000   0.00000   ) 
                     (   0.00000   0.00000   ) 
                     (   0.00000   0.00000   ) 
                     (  -0.57735   0.00000   ) 
                     (   0.00000   0.00000   ) 
                     (  -0.00000   0.00000   ) 
                     (   0.28868   0.00000   ) 
                     (  -0.50000   0.00000   ) 
                     (   0.00000   0.00000   ) 
                     (   0.28868   0.00000   ) 
                     (   0.50000   0.00000   ) 
                     (   0.00000   0.00000   ) 
                     (   0.00000   0.00000   ) 
                     (   0.00000   0.00000   ) 
                     (   0.00000   0.00000   ) 
                     (   0.00000   0.00000   ) 
                     (   0.00000   0.00000   ) 
                     (   0.00000   0.00000   ) 
                     (   0.00000   0.00000   ) 
                     (   0.00000   0.00000   ) 
                     (   0.00000   0.00000   ) 
                     (   0.00000   0.00000   ) 
                     (   0.00000   0.00000   ) 
                     (   0.00000   0.00000   ) 
                     (   0.00000   0.00000   ) 
                     (   0.00000   0.00000   ) 
                     (   0.00000   0.00000   ) 

     Representation    10      1 modes -  Done
     Irreps are as follows:

                     mode #  12
                     (   0.00000   0.00000   ) 
                     (   0.00000   0.00000   ) 
                     (   0.00000   0.00000   ) 
                     (  -0.00000   0.00000   ) 
                     (  -0.57735   0.00000   ) 
                     (  -0.00000   0.00000   ) 
                     (   0.50000   0.00000   ) 
                     (   0.28868   0.00000   ) 
                     (   0.00000   0.00000   ) 
                     (  -0.50000   0.00000   ) 
                     (   0.28868   0.00000   ) 
                     (   0.00000   0.00000   ) 
                     (   0.00000   0.00000   ) 
                     (   0.00000   0.00000   ) 
                     (   0.00000   0.00000   ) 
                     (   0.00000   0.00000   ) 
                     (   0.00000   0.00000   ) 
                     (   0.00000   0.00000   ) 
                     (   0.00000   0.00000   ) 
                     (   0.00000   0.00000   ) 
                     (   0.00000   0.00000   ) 
                     (   0.00000   0.00000   ) 
                     (   0.00000   0.00000   ) 
                     (   0.00000   0.00000   ) 
                     (   0.00000   0.00000   ) 
                     (   0.00000   0.00000   ) 
                     (   0.00000   0.00000   ) 

     Representation    11      1 modes -  Done
     Irreps are as follows:

                     mode #  13
                     (   0.00000   0.00000   ) 
                     (   0.00000   0.00000   ) 
                     (   0.00000   0.00000   ) 
                     (   0.00000   0.00000   ) 
                     (   0.00000   0.00000   ) 
                     (   0.00000   0.00000   ) 
                     (   0.00000   0.00000   ) 
                     (   0.00000   0.00000   ) 
                     (   0.00000   0.00000   ) 
                     (   0.00000   0.00000   ) 
                     (   0.00000   0.00000   ) 
                     (   0.00000   0.00000   ) 
                     (   0.00000   0.00000   ) 
                     (   0.00000   0.00000   ) 
                     (   0.00000   0.00000   ) 
                     (   0.00000   0.00000   ) 
                     (  -0.00000   0.00000   ) 
                     (  -0.50000   0.00000   ) 
                     (  -0.00000   0.00000   ) 
                     (  -0.00000   0.00000   ) 
                     (   0.50000   0.00000   ) 
                     (  -0.00000   0.00000   ) 
                     (   0.00000   0.00000   ) 
                     (   0.50000   0.00000   ) 
                     (   0.00000   0.00000   ) 
                     (   0.00000   0.00000   ) 
                     (  -0.50000   0.00000   ) 

     Representation    12      2 modes -  Done
     Irreps are as follows:

           mode #  14                           mode #  15
           (   0.00000   0.00000   )            (   0.00000   0.00000   ) 
           (   0.00000   0.00000   )            (   0.00000   0.00000   ) 
           (   0.00000   0.00000   )            (   0.00000   0.00000   ) 
           (   0.00000   0.00000   )            (   0.00000   0.00000   ) 
           (   0.00000   0.00000   )            (   0.00000   0.00000   ) 
           (   0.00000   0.00000   )            (   0.00000   0.00000   ) 
           (   0.00000   0.00000   )            (   0.00000   0.00000   ) 
           (   0.00000   0.00000   )            (   0.00000   0.00000   ) 
           (   0.00000   0.00000   )            (   0.00000   0.00000   ) 
           (   0.00000   0.00000   )            (   0.00000   0.00000   ) 
           (   0.00000   0.00000   )            (   0.00000   0.00000   ) 
           (   0.00000   0.00000   )            (   0.00000   0.00000   ) 
           (  -0.45409   0.00000   )            (  -0.89096   0.00000   ) 
           (   0.89096   0.00000   )            (  -0.45409   0.00000   ) 
           (   0.00000   0.00000   )            (   0.00000   0.00000   ) 
           (   0.00000   0.00000   )            (   0.00000   0.00000   ) 
           (   0.00000   0.00000   )            (   0.00000   0.00000   ) 
           (   0.00000   0.00000   )            (   0.00000   0.00000   ) 
           (   0.00000   0.00000   )            (   0.00000   0.00000   ) 
           (   0.00000   0.00000   )            (   0.00000   0.00000   ) 
           (   0.00000   0.00000   )            (   0.00000   0.00000   ) 
           (   0.00000   0.00000   )            (   0.00000   0.00000   ) 
           (   0.00000   0.00000   )            (   0.00000   0.00000   ) 
           (   0.00000   0.00000   )            (   0.00000   0.00000   ) 
           (   0.00000   0.00000   )            (   0.00000   0.00000   ) 
           (   0.00000   0.00000   )            (   0.00000   0.00000   ) 
           (   0.00000   0.00000   )            (   0.00000   0.00000   ) 

     Representation    13      2 modes -  Done
     Irreps are as follows:

           mode #  16                           mode #  17
           (   0.00000   0.00000   )            (   0.00000   0.00000   ) 
           (   0.00000   0.00000   )            (   0.00000   0.00000   ) 
           (   0.00000   0.00000   )            (   0.00000   0.00000   ) 
           (  -0.29748   0.00000   )            (  -0.58452   0.00000   ) 
           (  -0.43342   0.00000   )            (   0.22058   0.00000   ) 
           (  -0.00000   0.00000   )            (   0.00000   0.00000   ) 
           (  -0.34971   0.00000   )            (   0.40326   0.00000   ) 
[...]
                     (  -0.00000   0.00000   ) 
                     (  -0.05198   0.00000   ) 
                     (   0.49729   0.00000   ) 
                     (   0.00000   0.00000   ) 
                     (   0.05198   0.00000   ) 
                     (   0.49729   0.00000   ) 
                     (   0.00000   0.00000   ) 
                     (   0.05198   0.00000   ) 
                     (   0.49729   0.00000   ) 
                     (  -0.00000   0.00000   ) 
                     (  -0.05198   0.00000   ) 
                     (   0.49729   0.00000   ) 

     Representation    19      1 modes -  Done
     Irreps are as follows:

                     mode #  19
                     (   0.00000   0.00000   ) 
                     (   0.00000   0.00000   ) 
                     (  -1.00000   0.00000   ) 
                     (   0.00000   0.00000   ) 
                     (   0.00000   0.00000   ) 
                     (   0.00000   0.00000   ) 
                     (   0.00000   0.00000   ) 
                     (   0.00000   0.00000   ) 
                     (   0.00000   0.00000   ) 
                     (   0.00000   0.00000   ) 
                     (   0.00000   0.00000   ) 
                     (   0.00000   0.00000   ) 
                     (   0.00000   0.00000   ) 
                     (   0.00000   0.00000   ) 
                     (   0.00000   0.00000   ) 
                     (   0.00000   0.00000   ) 
                     (   0.00000   0.00000   ) 
                     (   0.00000   0.00000   ) 
                     (   0.00000   0.00000   ) 
                     (   0.00000   0.00000   ) 
                     (   0.00000   0.00000   ) 
                     (   0.00000   0.00000   ) 
                     (   0.00000   0.00000   ) 
                     (   0.00000   0.00000   ) 
                     (   0.00000   0.00000   ) 
                     (   0.00000   0.00000   ) 
                     (   0.00000   0.00000   ) 

     Representation    20      1 modes -  Done
     Irreps are as follows:

                     mode #  20
                     (   0.00000   0.00000   ) 
                     (   0.00000   0.00000   ) 
                     (   0.00000   0.00000   ) 
                     (   0.00000   0.00000   ) 
                     (   0.00000   0.00000   ) 
                     (   0.00000   0.00000   ) 
                     (  -0.62459   0.00000   ) 
                     (  -0.33150   0.00000   ) 
                     (   0.00000   0.00000   ) 
                     (   0.62459   0.00000   ) 
                     (  -0.33150   0.00000   ) 
                     (   0.00000   0.00000   ) 
                     (   0.00000   0.00000   ) 
                     (   0.00000   0.00000   ) 
                     (   0.00000   0.00000   ) 
                     (   0.00000   0.00000   ) 
                     (   0.00000   0.00000   ) 
                     (   0.00000   0.00000   ) 
                     (   0.00000   0.00000   ) 
                     (   0.00000   0.00000   ) 
                     (   0.00000   0.00000   ) 
                     (   0.00000   0.00000   ) 
                     (   0.00000   0.00000   ) 
                     (   0.00000   0.00000   ) 
                     (   0.00000   0.00000   ) 
                     (   0.00000   0.00000   ) 
                     (   0.00000   0.00000   ) 

     Representation    21      1 modes -  Done
     Irreps are as follows:

                     mode #  21
                     (   0.00000   0.00000   ) 
                     (   0.00000   0.00000   ) 
                     (   0.00000   0.00000   ) 
                     (   0.00000   0.00000   ) 
                     (   0.00000   0.00000   ) 
                     (   0.00000   0.00000   ) 
                     (   0.00000   0.00000   ) 
                     (   0.00000   0.00000   ) 
                     (  -0.70711   0.00000   ) 
                     (   0.00000   0.00000   ) 
                     (   0.00000   0.00000   ) 
                     (   0.70711   0.00000   ) 
                     (   0.00000   0.00000   ) 
                     (   0.00000   0.00000   ) 
                     (   0.00000   0.00000   ) 
                     (   0.00000   0.00000   ) 
                     (   0.00000   0.00000   ) 
                     (   0.00000   0.00000   ) 
                     (   0.00000   0.00000   ) 
                     (   0.00000   0.00000   ) 
                     (   0.00000   0.00000   ) 
                     (   0.00000   0.00000   ) 
                     (   0.00000   0.00000   ) 
                     (   0.00000   0.00000   ) 
                     (   0.00000   0.00000   ) 
                     (   0.00000   0.00000   ) 
                     (   0.00000   0.00000   ) 

     Representation    22      1 modes -  Done
     Irreps are as follows:

                     mode #  22
                     (   0.00000   0.00000   ) 
                     (   0.00000   0.00000   ) 
                     (   0.00000   0.00000   ) 
                     (   0.00000   0.00000   ) 
                     (   0.00000   0.00000   ) 
                     (   0.00000   0.00000   ) 
                     (   0.00000   0.00000   ) 
                     (   0.00000   0.00000   ) 
                     (   0.00000   0.00000   ) 
                     (   0.00000   0.00000   ) 
                     (   0.00000   0.00000   ) 
                     (   0.00000   0.00000   ) 
                     (   0.00000   0.00000   ) 
                     (   0.00000   0.00000   ) 
                     (   0.00000   0.00000   ) 
                     (  -0.50000   0.00000   ) 
                     (  -0.00000   0.00000   ) 
                     (  -0.00000   0.00000   ) 
                     (  -0.50000   0.00000   ) 
                     (  -0.00000   0.00000   ) 
                     (   0.00000   0.00000   ) 
                     (  -0.50000   0.00000   ) 
                     (  -0.00000   0.00000   ) 
                     (   0.00000   0.00000   ) 
                     (  -0.50000   0.00000   ) 
                     (  -0.00000   0.00000   ) 
                     (  -0.00000   0.00000   ) 

     Representation    23      1 modes -  Done
     Irreps are as follows:

                     mode #  23
                     (  -1.00000   0.00000   ) 
                     (   0.00000   0.00000   ) 
                     (   0.00000   0.00000   ) 
                     (   0.00000   0.00000   ) 
                     (   0.00000   0.00000   ) 
                     (   0.00000   0.00000   ) 
                     (   0.00000   0.00000   ) 
                     (   0.00000   0.00000   ) 
                     (   0.00000   0.00000   ) 
                     (   0.00000   0.00000   ) 
                     (   0.00000   0.00000   ) 
                     (   0.00000   0.00000   ) 
                     (   0.00000   0.00000   ) 
                     (   0.00000   0.00000   ) 
                     (   0.00000   0.00000   ) 
                     (   0.00000   0.00000   ) 
                     (   0.00000   0.00000   ) 
                     (   0.00000   0.00000   ) 
                     (   0.00000   0.00000   ) 
                     (   0.00000   0.00000   ) 
                     (   0.00000   0.00000   ) 
                     (   0.00000   0.00000   ) 
                     (   0.00000   0.00000   ) 
                     (   0.00000   0.00000   ) 
                     (   0.00000   0.00000   ) 
                     (   0.00000   0.00000   ) 
                     (   0.00000   0.00000   ) 

     Representation    24      1 modes -  Done
     Irreps are as follows:

                     mode #  24
                     (   0.00000   0.00000   ) 
                     (   0.00000   0.00000   ) 
                     (   0.00000   0.00000   ) 
                     (   0.00000   0.00000   ) 
                     (   0.00000   0.00000   ) 
                     (   0.00000   0.00000   ) 
                     (   0.00000   0.00000   ) 
                     (   0.00000   0.00000   ) 
                     (   0.00000   0.00000   ) 
                     (   0.00000   0.00000   ) 
                     (   0.00000   0.00000   ) 
                     (   0.00000   0.00000   ) 
                     (   0.00000   0.00000   ) 
                     (   0.00000   0.00000   ) 
                     (   0.00000   0.00000   ) 
                     (  -0.00000   0.00000   ) 
                     (  -0.04985   0.00000   ) 
                     (   0.49751   0.00000   ) 
                     (  -0.00000   0.00000   ) 
                     (  -0.04985   0.00000   ) 
                     (  -0.49751   0.00000   ) 
                     (  -0.00000   0.00000   ) 
                     (  -0.04985   0.00000   ) 
                     (  -0.49751   0.00000   ) 
                     (  -0.00000   0.00000   ) 
                     (  -0.04985   0.00000   ) 
                     (   0.49751   0.00000   ) 

     Representation    25      1 modes -  Done
     Irreps are as follows:

                     mode #  25
                     (   0.00000   0.00000   ) 
                     (   0.00000   0.00000   ) 
                     (   0.00000   0.00000   ) 
                     (   0.00000   0.00000   ) 
                     (   0.00000   0.00000   ) 
                     (   0.00000   0.00000   ) 
                     (   0.00000   0.00000   ) 
                     (   0.00000   0.00000   ) 
                     (  -0.70711   0.00000   ) 
                     (   0.00000   0.00000   ) 
                     (   0.00000   0.00000   ) 
                     (  -0.70711   0.00000   ) 
                     (   0.00000   0.00000   ) 
                     (   0.00000   0.00000   ) 
                     (   0.00000   0.00000   ) 
                     (   0.00000   0.00000   ) 
                     (   0.00000   0.00000   ) 
                     (   0.00000   0.00000   ) 
                     (   0.00000   0.00000   ) 
                     (   0.00000   0.00000   ) 
                     (   0.00000   0.00000   ) 
                     (   0.00000   0.00000   ) 
                     (   0.00000   0.00000   ) 
                     (   0.00000   0.00000   ) 
                     (   0.00000   0.00000   ) 
                     (   0.00000   0.00000   ) 
                     (   0.00000   0.00000   ) 

     Representation    26      1 modes -  Done
     Irreps are as follows:

                     mode #  26
                     (  -0.00000   0.00000   ) 
                     (  -1.00000   0.00000   ) 
                     (   0.00000   0.00000   ) 
                     (   0.00000   0.00000   ) 
                     (   0.00000   0.00000   ) 
                     (   0.00000   0.00000   ) 
                     (   0.00000   0.00000   ) 
                     (   0.00000   0.00000   ) 
                     (   0.00000   0.00000   ) 
                     (   0.00000   0.00000   ) 
                     (   0.00000   0.00000   ) 
                     (   0.00000   0.00000   ) 
                     (   0.00000   0.00000   ) 
                     (   0.00000   0.00000   ) 
                     (   0.00000   0.00000   ) 
                     (   0.00000   0.00000   ) 
                     (   0.00000   0.00000   ) 
                     (   0.00000   0.00000   ) 
                     (   0.00000   0.00000   ) 
                     (   0.00000   0.00000   ) 
                     (   0.00000   0.00000   ) 
                     (   0.00000   0.00000   ) 
                     (   0.00000   0.00000   ) 
                     (   0.00000   0.00000   ) 
                     (   0.00000   0.00000   ) 
                     (   0.00000   0.00000   ) 
                     (   0.00000   0.00000   ) 

     Representation    27      1 modes -  Done
     Irreps are as follows:

                     mode #  27
                     (   0.00000   0.00000   ) 
                     (   0.00000   0.00000   ) 
                     (   0.00000   0.00000   ) 
                     (   0.00000   0.00000   ) 
                     (   0.00000   0.00000   ) 
                     (   0.00000   0.00000   ) 
                     (   0.00000   0.00000   ) 
                     (   0.00000   0.00000   ) 
                     (   0.00000   0.00000   ) 
                     (   0.00000   0.00000   ) 
                     (   0.00000   0.00000   ) 
                     (   0.00000   0.00000   ) 
                     (   0.00000   0.00000   ) 
                     (   0.00000   0.00000   ) 
                     (   0.00000   0.00000   ) 
                     (   0.00000   0.00000   ) 
                     (  -0.49751   0.00000   ) 
                     (  -0.04985   0.00000   ) 
                     (   0.00000   0.00000   ) 
                     (  -0.49751   0.00000   ) 
                     (   0.04985   0.00000   ) 
                     (   0.00000   0.00000   ) 
                     (  -0.49751   0.00000   ) 
                     (   0.04985   0.00000   ) 
                     (   0.00000   0.00000   ) 
                     (  -0.49751   0.00000   ) 
                     (  -0.04985   0.00000   ) 


     PHONON       :     20.86s CPU     37.08s WALL

 
     Number of q in the star =    3
     List of q in the star:
          1   0.000000000  -0.577350269  -0.278590250
          2   0.500000000   0.288675135   0.278590250
          3  -0.500000000   0.288675135   0.278590250

     Diagonalizing the dynamical matrix

     q = (    0.000000000  -0.577350269  -0.278590250 ) 

 **************************************************************************
     freq (    1) =      -0.793745 [THz] =     -26.476499 [cm-1]
     freq (    2) =       0.965072 [THz] =      32.191336 [cm-1]
     freq (    3) =       1.119751 [THz] =      37.350889 [cm-1]
     freq (    4) =       1.158994 [THz] =      38.659895 [cm-1]
     freq (    5) =       1.343510 [THz] =      44.814678 [cm-1]
     freq (    6) =       1.618263 [THz] =      53.979450 [cm-1]
     freq (    7) =       1.808966 [THz] =      60.340618 [cm-1]
     freq (    8) =       2.293780 [THz] =      76.512281 [cm-1]
     freq (    9) =       2.693365 [THz] =      89.840982 [cm-1]
     freq (   10) =       2.728978 [THz] =      91.028897 [cm-1]
     freq (   11) =       3.106835 [THz] =     103.632847 [cm-1]
     freq (   12) =       3.116991 [THz] =     103.971622 [cm-1]
     freq (   13) =       3.357482 [THz] =     111.993558 [cm-1]
     freq (   14) =       3.448994 [THz] =     115.046061 [cm-1]
     freq (   15) =       3.587248 [THz] =     119.657716 [cm-1]
     freq (   16) =       3.675419 [THz] =     122.598773 [cm-1]
     freq (   17) =       3.931069 [THz] =     131.126353 [cm-1]
     freq (   18) =       4.796837 [THz] =     160.005247 [cm-1]
     freq (   19) =       4.921596 [THz] =     164.166774 [cm-1]
     freq (   20) =       4.976691 [THz] =     166.004546 [cm-1]
     freq (   21) =       6.140527 [THz] =     204.825943 [cm-1]
     freq (   22) =       6.382519 [THz] =     212.897903 [cm-1]
     freq (   23) =       6.490786 [THz] =     216.509311 [cm-1]
     freq (   24) =       7.534763 [THz] =     251.332644 [cm-1]
     freq (   25) =       7.624009 [THz] =     254.309561 [cm-1]
     freq (   26) =       7.705209 [THz] =     257.018103 [cm-1]
     freq (   27) =       8.221900 [THz] =     274.253052 [cm-1]
 **************************************************************************

     Mode symmetry, D_2h (mmm)  point group:

     freq (   1-   1) =        -26.5  [cm-1]   --> B_1u               
     freq (   2-   2) =         32.2  [cm-1]   --> B_2u               
     freq (   3-   3) =         37.4  [cm-1]   --> B_1u               
     freq (   4-   4) =         38.7  [cm-1]   --> B_3u               
     freq (   5-   5) =         44.8  [cm-1]   --> B_3u               
     freq (   6-   6) =         54.0  [cm-1]   --> A_u                
     freq (   7-   7) =         60.3  [cm-1]   --> A_g                
     freq (   8-   8) =         76.5  [cm-1]   --> B_1g               
     freq (   9-   9) =         89.8  [cm-1]   --> B_2g               
     freq (  10-  10) =         91.0  [cm-1]   --> A_g                
     freq (  11-  11) =        103.6  [cm-1]   --> B_2u               
     freq (  12-  12) =        104.0  [cm-1]   --> B_3g               
     freq (  13-  13) =        112.0  [cm-1]   --> B_3u               
     freq (  14-  14) =        115.0  [cm-1]   --> B_1u               
     freq (  15-  15) =        119.7  [cm-1]   --> B_2g               
     freq (  16-  16) =        122.6  [cm-1]   --> A_g                
     freq (  17-  17) =        131.1  [cm-1]   --> B_3g               
     freq (  18-  18) =        160.0  [cm-1]   --> B_2g               
     freq (  19-  19) =        164.2  [cm-1]   --> B_1u               
     freq (  20-  20) =        166.0  [cm-1]   --> A_u                
     freq (  21-  21) =        204.8  [cm-1]   --> B_2g               
     freq (  22-  22) =        212.9  [cm-1]   --> B_1u               
     freq (  23-  23) =        216.5  [cm-1]   --> A_u                
     freq (  24-  24) =        251.3  [cm-1]   --> B_3g               
     freq (  25-  25) =        254.3  [cm-1]   --> B_3u               
     freq (  26-  26) =        257.0  [cm-1]   --> A_g                
     freq (  27-  27) =        274.3  [cm-1]   --> B_2u               
 
     init_run     :     12.01s CPU     13.41s WALL (       3 calls)

     Called by init_run:
     wfcinit      :      0.00s CPU      0.01s WALL (       3 calls)
     potinit      :      1.42s CPU      1.51s WALL (       3 calls)
     hinit0       :      4.38s CPU      4.43s WALL (       3 calls)

     Called by electrons:
     v_of_rho     :      0.58s CPU      0.62s WALL (       4 calls)
     v_h          :      0.04s CPU      0.04s WALL (       4 calls)
     v_xc         :      0.54s CPU      0.58s WALL (       4 calls)
     newd         :      6.02s CPU      8.09s WALL (       4 calls)
     PAW_pot      :      1.23s CPU      1.25s WALL (       4 calls)

     Called by c_bands:

     Called by sum_band:

     Called by *egterg:

     Called by h_psi:

     General routines
     fft          :      0.78s CPU      0.87s WALL (      67 calls)
     ffts         :      0.01s CPU      0.01s WALL (       7 calls)
     interpolate  :      0.07s CPU      0.08s WALL (       7 calls)
     davcio       :      0.04s CPU      3.66s WALL (     259 calls)
 
     Parallel routines
     fft_scatt_xy :      0.07s CPU      0.07s WALL (      74 calls)
     fft_scatt_yz :      0.48s CPU      0.55s WALL (      74 calls)

     PAW routines
     PAW_pot      :      1.23s CPU      1.25s WALL (       4 calls)
 
     PHONON       :     20.89s CPU     37.21s WALL

     INITIALIZATION: 
     phq_setup    :      1.13s CPU      2.35s WALL (       4 calls)
 
     init_vloc    :      1.91s CPU      1.91s WALL (       4 calls)
     init_us_1    :      0.86s CPU      0.92s WALL (       4 calls)
     newd         :      6.02s CPU      8.09s WALL (       4 calls)
 
     DYNAMICAL MATRIX:
     phqscf       :      0.00s CPU      0.00s WALL (       4 calls)
     dynmatrix    :      0.03s CPU      0.04s WALL (       4 calls)
 
     phqscf       :      0.00s CPU      0.00s WALL (       4 calls)
 
 
 
     phqscf       :      0.00s CPU      0.00s WALL (       4 calls)
 
 
 
 
 
 
 
 
      General routines
     fft          :      0.78s CPU      0.87s WALL (      67 calls)
     ffts         :      0.01s CPU      0.01s WALL (       7 calls)
     davcio       :      0.04s CPU      3.66s WALL (     259 calls)
 
 
     PHONON       :     20.89s CPU     37.21s WALL

 
   This run was terminated on:  11:39:40   7Sep2021            

=------------------------------------------------------------------------------=
   JOB DONE.
=------------------------------------------------------------------------------=
