
     Program PWSCF v.6.7MaX starts on 18May2022 at 17:50:32 

     This program is part of the open-source Quantum ESPRESSO suite
     for quantum simulation of materials; please cite
         "P. Giannozzi et al., J. Phys.:Condens. Matter 21 395502 (2009);
         "P. Giannozzi et al., J. Phys.:Condens. Matter 29 465901 (2017);
          URL http://www.quantum-espresso.org", 
     in publications or presentations arising from this work. More details at
     http://www.quantum-espresso.org/quote

     Parallel version (MPI), running on    48 processors

     MPI processes distributed on     1 nodes
     R & G space division:  proc/nbgrp/npool/nimage =      48
     Waiting for input...
     Reading input from standard input

     Current dimensions of program PWSCF are:
     Max number of different atomic species (ntypx) = 10
     Max number of k-points (npk) =  40000
     Max angular momentum in pseudopotentials (lmaxx) =  3
     file O.pbe-nl-kjpaw_psl.1.0.0.UPF: wavefunction(s)  2S 2P renormalized
     file Cl.pbe-nl-kjpaw_psl.1.0.0.UPF: wavefunction(s)  3S renormalized
     file Nb.pbe-spn-kjpaw_psl.1.0.0.UPF: wavefunction(s)  4S 4P 4D renormalized

     Subspace diagonalization in iterative solution of the eigenvalue problem:
     a serial algorithm will be used

     Message from routine setup:
     using ibrav=0 with symmetry is DISCOURAGED, use correct ibrav instead
 
     Parallelization info
     --------------------
     sticks:   dense  smooth     PW     G-vecs:    dense   smooth      PW
     Min         226      90     28                 8011     2025     357
     Max         227      91     29                 8013     2026     359
     Sum       10861    4353   1363               384583    97215   17183
 


     bravais-lattice index     =            0
     lattice parameter (alat)  =      12.6717  a.u.
     unit-cell volume          =     547.9313 (a.u.)^3
     number of atoms/cell      =            4
     number of atomic types    =            3
     number of electrons       =        33.00
     number of Kohn-Sham states=           21
     kinetic-energy cutoff     =     120.0000  Ry
     charge density cutoff     =    1200.0000  Ry
     scf convergence threshold =      1.0E-10
     mixing beta               =       0.7000
     number of iterations used =            8  plain     mixing
     Exchange-correlation= SLA  PW   PBX  PBC
                           (   1   4   3   4   0   0   0)

     celldm(1)=  12.671676  celldm(2)=   0.000000  celldm(3)=   0.000000
     celldm(4)=   0.000000  celldm(5)=   0.000000  celldm(6)=   0.000000

     crystal axes: (cart. coord. in units of alat)
               a(1) = (  -0.250426   0.291161   0.923316 )  
               a(2) = (   0.250426  -0.291161   0.923316 )  
               a(3) = (   0.250426   0.291161  -0.923316 )  

     reciprocal axes: (cart. coord. in units 2 pi/alat)
               b(1) = (  0.000000  1.717261  0.541527 )  
               b(2) = (  1.996594  0.000000  0.541527 )  
               b(3) = (  1.996594  1.717261  0.000000 )  


     PseudoPot. # 1 for O  read from file:
     /zfs_data/gutierre/Scratch/Cl2NbO/smearing/8x8x8/0.010/pseudo/O.pbe-nl-kjpaw_psl.1.0.0.UPF
     MD5 check sum: df3ddea38124b4e5de5e1084591730e4
     Pseudo is Projector augmented-wave + core cor, Zval =  6.0
     Generated using 'atomic' code by A. Dal Corso  v.6.7MaX
     Shape of augmentation charge: PSQ
     Using radial grid of 1095 points,  4 beta functions with: 
                l(1) =   0
                l(2) =   0
                l(3) =   1
                l(4) =   1
     Q(r) pseudized with 0 coefficients 


     PseudoPot. # 2 for Cl read from file:
     /zfs_data/gutierre/Scratch/Cl2NbO/smearing/8x8x8/0.010/pseudo/Cl.pbe-nl-kjpaw_psl.1.0.0.UPF
     MD5 check sum: 8cf6bde52c08f6236e0f72a8870677af
     Pseudo is Projector augmented-wave + core cor, Zval =  7.0
     Generated using 'atomic' code by A. Dal Corso  v.6.7MaX
     Shape of augmentation charge: PSQ
     Using radial grid of 1157 points,  4 beta functions with: 
                l(1) =   0
                l(2) =   0
                l(3) =   1
                l(4) =   1
     Q(r) pseudized with 0 coefficients 


     PseudoPot. # 3 for Nb read from file:
     /zfs_data/gutierre/Scratch/Cl2NbO/smearing/8x8x8/0.010/pseudo/Nb.pbe-spn-kjpaw_psl.1.0.0.UPF
     MD5 check sum: 1ec1a3aa7bf3cbf7f7e0d720422bce7a
     Pseudo is Projector augmented-wave + core cor, Zval = 13.0
     Generated using 'atomic' code by A. Dal Corso  v.6.7MaX
     Shape of augmentation charge: PSQ
     Using radial grid of 1227 points,  6 beta functions with: 
                l(1) =   0
                l(2) =   0
                l(3) =   1
                l(4) =   1
                l(5) =   2
                l(6) =   2
     Q(r) pseudized with 0 coefficients 


     atomic species   valence    mass     pseudopotential
        O              6.00    15.99940     O ( 1.00)
        Cl             7.00    35.45150     Cl( 1.00)
        Nb            13.00    92.90637     Nb( 1.00)

      8 Sym. Ops., with inversion, found


                                    s                        frac. trans.

      isym =  1     identity                                     

 cryst.   s( 1) = (     1          0          0      )
                  (     0          1          0      )
                  (     0          0          1      )

 cart.    s( 1) = (  1.0000000  0.0000000  0.0000000 )
                  (  0.0000000  1.0000000  0.0000000 )
                  (  0.0000000  0.0000000  1.0000000 )


      isym =  2     180 deg rotation - cart. axis [0,0,1]        

 cryst.   s( 2) = (     0          1          0      )
                  (     1          0          0      )
                  (    -1         -1         -1      )

 cart.    s( 2) = ( -1.0000000  0.0000000  0.0000000 )
                  (  0.0000000 -1.0000000  0.0000000 )
                  (  0.0000000  0.0000000  1.0000000 )


      isym =  3     180 deg rotation - cart. axis [0,1,0]        

 cryst.   s( 3) = (     0          0          1      )
                  (    -1         -1         -1      )
                  (     1          0          0      )

 cart.    s( 3) = ( -1.0000000  0.0000000  0.0000000 )
                  (  0.0000000  1.0000000  0.0000000 )
                  (  0.0000000  0.0000000 -1.0000000 )


      isym =  4     180 deg rotation - cart. axis [1,0,0]        

 cryst.   s( 4) = (    -1         -1         -1      )
                  (     0          0          1      )
                  (     0          1          0      )

 cart.    s( 4) = (  1.0000000  0.0000000  0.0000000 )
                  (  0.0000000 -1.0000000  0.0000000 )
                  (  0.0000000  0.0000000 -1.0000000 )


      isym =  5     inversion                                    

 cryst.   s( 5) = (    -1          0          0      )
                  (     0         -1          0      )
                  (     0          0         -1      )

 cart.    s( 5) = ( -1.0000000  0.0000000  0.0000000 )
                  (  0.0000000 -1.0000000  0.0000000 )
                  (  0.0000000  0.0000000 -1.0000000 )


      isym =  6     inv. 180 deg rotation - cart. axis [0,0,1]   

 cryst.   s( 6) = (     0         -1          0      )
                  (    -1          0          0      )
                  (     1          1          1      )

 cart.    s( 6) = (  1.0000000  0.0000000  0.0000000 )
                  (  0.0000000  1.0000000  0.0000000 )
                  (  0.0000000  0.0000000 -1.0000000 )


      isym =  7     inv. 180 deg rotation - cart. axis [0,1,0]   

 cryst.   s( 7) = (     0          0         -1      )
                  (     1          1          1      )
                  (    -1          0          0      )

 cart.    s( 7) = (  1.0000000  0.0000000  0.0000000 )
                  (  0.0000000 -1.0000000  0.0000000 )
                  (  0.0000000  0.0000000  1.0000000 )


      isym =  8     inv. 180 deg rotation - cart. axis [1,0,0]   

 cryst.   s( 8) = (     1          1          1      )
                  (     0          0         -1      )
                  (     0         -1          0      )

 cart.    s( 8) = ( -1.0000000  0.0000000  0.0000000 )
                  (  0.0000000  1.0000000  0.0000000 )
                  (  0.0000000  0.0000000  1.0000000 )


   Cartesian axes

     site n.     atom                  positions (alat units)
         1           O   tau(   1) = (   0.0000000   0.2911613   0.0000000  )
         2           Cl  tau(   2) = (  -0.0000000   0.2911613   0.6365338  )
         3           Cl  tau(   3) = (   0.2504264  -0.0000000   0.2867819  )
         4           Nb  tau(   4) = (   0.0000000   0.0000000   0.0000000  )

   Crystallographic axes

     site n.     atom                  positions (cryst. coord.)
         1           O   tau(   1) = (  0.5000000  0.0000000  0.5000000  )
         2           Cl  tau(   2) = (  0.8447000  0.3447000  0.5000000  )
         3           Cl  tau(   3) = (  0.1553000  0.6553000  0.5000000  )
         4           Nb  tau(   4) = (  0.0000000  0.0000000  0.0000000  )

     number of k points=    95  Methfessel-Paxton smearing, width (Ry)=  0.0100
                       cart. coord. in units 2pi/alat
        k(    1) = (   0.0000000   0.0000000   0.0000000), wk =   0.0039062
        k(    2) = (   0.2495743   0.2146577   0.0000000), wk =   0.0156250
        k(    3) = (   0.4991486   0.4293153   0.0000000), wk =   0.0156250
        k(    4) = (   0.7487229   0.6439730   0.0000000), wk =   0.0156250
        k(    5) = (  -0.9982971  -0.8586307   0.0000000), wk =   0.0078125
        k(    6) = (   0.2495743   0.0000000   0.0676908), wk =   0.0156250
        k(    7) = (   0.4991486   0.2146577   0.0676908), wk =   0.0312500
        k(    8) = (   0.7487229   0.4293153   0.0676908), wk =   0.0312500
        k(    9) = (   0.9982971   0.6439730   0.0676908), wk =   0.0312500
        k(   10) = (  -0.7487229  -0.8586307   0.0676908), wk =   0.0312500
        k(   11) = (  -0.4991486  -0.6439730   0.0676908), wk =   0.0312500
        k(   12) = (  -0.2495743  -0.4293153   0.0676908), wk =   0.0312500
        k(   13) = (   0.0000000  -0.2146577   0.0676908), wk =   0.0156250
        k(   14) = (   0.4991486   0.0000000   0.1353817), wk =   0.0156250
        k(   15) = (   0.7487229   0.2146577   0.1353817), wk =   0.0312500
        k(   16) = (   0.9982971   0.4293153   0.1353817), wk =   0.0312500
        k(   17) = (   1.2478714   0.6439730   0.1353817), wk =   0.0312500
        k(   18) = (  -0.4991486  -0.8586307   0.1353817), wk =   0.0312500
        k(   19) = (  -0.2495743  -0.6439730   0.1353817), wk =   0.0312500
        k(   20) = (   0.0000000  -0.4293153   0.1353817), wk =   0.0156250
        k(   21) = (   0.2495743  -0.2146577   0.1353817), wk =   0.0312500
        k(   22) = (   0.7487229   0.0000000   0.2030725), wk =   0.0156250
        k(   23) = (   0.9982971   0.2146577   0.2030725), wk =   0.0312500
        k(   24) = (   1.2478714   0.4293153   0.2030725), wk =   0.0312500
        k(   25) = (   1.4974457   0.6439730   0.2030725), wk =   0.0312500
        k(   26) = (  -0.2495743  -0.8586307   0.2030725), wk =   0.0312500
        k(   27) = (   0.0000000  -0.6439730   0.2030725), wk =   0.0156250
        k(   28) = (   0.2495743  -0.4293153   0.2030725), wk =   0.0312500
        k(   29) = (   0.4991486  -0.2146577   0.2030725), wk =   0.0312500
        k(   30) = (  -0.9982971   0.0000000  -0.2707633), wk =   0.0078125
        k(   31) = (  -0.7487229   0.2146577  -0.2707633), wk =   0.0312500
        k(   32) = (  -0.4991486   0.4293153  -0.2707633), wk =   0.0312500
        k(   33) = (  -0.2495743   0.6439730  -0.2707633), wk =   0.0312500
        k(   34) = (  -1.9965943  -0.8586307  -0.2707633), wk =   0.0078125
        k(   35) = (   0.4991486   0.4293153   0.1353817), wk =   0.0312500
        k(   36) = (   0.7487229   0.6439730   0.1353817), wk =   0.0312500
        k(   37) = (   0.9982971   0.8586307   0.1353817), wk =   0.0156250
        k(   38) = (   0.0000000   0.0000000   0.1353817), wk =   0.0078125
        k(   39) = (   0.7487229   0.4293153   0.2030725), wk =   0.0312500
        k(   40) = (   0.9982971   0.6439730   0.2030725), wk =   0.0312500
        k(   41) = (   1.2478714   0.8586307   0.2030725), wk =   0.0312500
        k(   42) = (  -0.4991486  -0.6439730   0.2030725), wk =   0.0312500
        k(   43) = (   0.0000000  -0.2146577   0.2030725), wk =   0.0156250
        k(   44) = (   0.2495743   0.0000000   0.2030725), wk =   0.0156250
        k(   45) = (   0.9982971   0.4293153   0.2707633), wk =   0.0156250
        k(   46) = (   1.2478714   0.6439730   0.2707633), wk =   0.0312500
        k(   47) = (   1.4974457   0.8586307   0.2707633), wk =   0.0156250
        k(   48) = (   0.0000000  -0.4293153   0.2707633), wk =   0.0156250
        k(   49) = (   0.2495743  -0.2146577   0.2707633), wk =   0.0312500
        k(   50) = (   0.4991486   0.0000000   0.2707633), wk =   0.0156250
        k(   51) = (  -1.9965943  -0.6439730  -0.2030725), wk =   0.0156250
        k(   52) = (  -1.7470200  -0.4293153  -0.2030725), wk =   0.0312500
        k(   53) = (  -1.4974457  -0.2146577  -0.2030725), wk =   0.0312500
        k(   54) = (  -1.2478714   0.0000000  -0.2030725), wk =   0.0156250
        k(   55) = (   0.0000000   0.8586307  -0.1353817), wk =   0.0156250
        k(   56) = (  -1.7470200  -0.6439730  -0.1353817), wk =   0.0312500
        k(   57) = (  -1.4974457  -0.4293153  -0.1353817), wk =   0.0312500
        k(   58) = (  -1.2478714  -0.2146577  -0.1353817), wk =   0.0312500
        k(   59) = (  -0.9982971   0.0000000  -0.1353817), wk =   0.0156250
        k(   60) = (   0.0000000   0.6439730  -0.0676908), wk =   0.0156250
        k(   61) = (   0.2495743   0.8586307  -0.0676908), wk =   0.0312500
        k(   62) = (  -1.4974457  -0.6439730  -0.0676908), wk =   0.0312500
        k(   63) = (  -1.2478714  -0.4293153  -0.0676908), wk =   0.0312500
        k(   64) = (  -0.9982971  -0.2146577  -0.0676908), wk =   0.0312500
        k(   65) = (  -0.7487229   0.0000000  -0.0676908), wk =   0.0156250
        k(   66) = (   0.0000000   0.4293153   0.0000000), wk =   0.0078125
        k(   67) = (   0.2495743   0.6439730   0.0000000), wk =   0.0156250
        k(   68) = (   0.4991486   0.8586307   0.0000000), wk =   0.0156250
        k(   69) = (  -1.2478714  -0.6439730   0.0000000), wk =   0.0156250
        k(   70) = (  -0.9982971  -0.4293153   0.0000000), wk =   0.0156250
        k(   71) = (  -0.7487229  -0.2146577   0.0000000), wk =   0.0156250
        k(   72) = (  -0.4991486   0.0000000   0.0000000), wk =   0.0078125
        k(   73) = (   0.9982971   0.8586307   0.2707633), wk =   0.0078125
        k(   74) = (   0.0000000   0.0000000   0.2707633), wk =   0.0078125
        k(   75) = (   0.0000000  -0.2146577   0.3384542), wk =   0.0156250
        k(   76) = (   0.2495743   0.0000000   0.3384542), wk =   0.0156250
        k(   77) = (  -1.9965943  -0.4293153  -0.1353817), wk =   0.0156250
        k(   78) = (  -1.7470200  -0.2146577  -0.1353817), wk =   0.0312500
        k(   79) = (  -1.4974457   0.0000000  -0.1353817), wk =   0.0156250
        k(   80) = (   0.0000000   1.0732883  -0.0676908), wk =   0.0156250
        k(   81) = (  -1.7470200  -0.4293153  -0.0676908), wk =   0.0312500
        k(   82) = (  -1.4974457  -0.2146577  -0.0676908), wk =   0.0312500
        k(   83) = (  -1.2478714   0.0000000  -0.0676908), wk =   0.0156250
        k(   84) = (   0.0000000   0.8586307   0.0000000), wk =   0.0078125
        k(   85) = (   0.2495743   1.0732883   0.0000000), wk =   0.0156250
        k(   86) = (  -1.4974457  -0.4293153   0.0000000), wk =   0.0156250
        k(   87) = (  -1.2478714  -0.2146577   0.0000000), wk =   0.0156250
        k(   88) = (  -0.9982971   0.0000000   0.0000000), wk =   0.0078125
        k(   89) = (   0.0000000   0.0000000   0.4061450), wk =   0.0078125
        k(   90) = (  -1.9965943  -0.2146577  -0.0676908), wk =   0.0156250
        k(   91) = (  -1.7470200   0.0000000  -0.0676908), wk =   0.0156250
        k(   92) = (   0.0000000   1.2879460   0.0000000), wk =   0.0078125
        k(   93) = (  -1.7470200  -0.2146577   0.0000000), wk =   0.0156250
        k(   94) = (  -1.4974457   0.0000000   0.0000000), wk =   0.0078125
        k(   95) = (  -1.9965943  -1.7172613  -0.5415266), wk =   0.0039062

                       cryst. coord.
        k(    1) = (   0.0000000   0.0000000   0.0000000), wk =   0.0039062
        k(    2) = (   0.0000000   0.0000000   0.1250000), wk =   0.0156250
        k(    3) = (   0.0000000   0.0000000   0.2500000), wk =   0.0156250
        k(    4) = (  -0.0000000   0.0000000   0.3750000), wk =   0.0156250
        k(    5) = (   0.0000000   0.0000000  -0.5000000), wk =   0.0078125
        k(    6) = (   0.0000000   0.1250000   0.0000000), wk =   0.0156250
        k(    7) = (   0.0000000   0.1250000   0.1250000), wk =   0.0312500
        k(    8) = (   0.0000000   0.1250000   0.2500000), wk =   0.0312500
        k(    9) = (  -0.0000000   0.1250000   0.3750000), wk =   0.0312500
        k(   10) = (   0.0000000   0.1250000  -0.5000000), wk =   0.0312500
        k(   11) = (   0.0000000   0.1250000  -0.3750000), wk =   0.0312500
        k(   12) = (   0.0000000   0.1250000  -0.2500000), wk =   0.0312500
        k(   13) = (   0.0000000   0.1250000  -0.1250000), wk =   0.0156250
        k(   14) = (   0.0000000   0.2500000   0.0000000), wk =   0.0156250
        k(   15) = (   0.0000000   0.2500000   0.1250000), wk =   0.0312500
        k(   16) = (   0.0000000   0.2500000   0.2500000), wk =   0.0312500
        k(   17) = (  -0.0000000   0.2500000   0.3750000), wk =   0.0312500
        k(   18) = (   0.0000000   0.2500000  -0.5000000), wk =   0.0312500
        k(   19) = (   0.0000000   0.2500000  -0.3750000), wk =   0.0312500
        k(   20) = (   0.0000000   0.2500000  -0.2500000), wk =   0.0156250
        k(   21) = (   0.0000000   0.2500000  -0.1250000), wk =   0.0312500
        k(   22) = (   0.0000000   0.3750000   0.0000000), wk =   0.0156250
        k(   23) = (   0.0000000   0.3750000   0.1250000), wk =   0.0312500
        k(   24) = (  -0.0000000   0.3750000   0.2500000), wk =   0.0312500
        k(   25) = (  -0.0000000   0.3750000   0.3750000), wk =   0.0312500
        k(   26) = (   0.0000000   0.3750000  -0.5000000), wk =   0.0312500
        k(   27) = (   0.0000000   0.3750000  -0.3750000), wk =   0.0156250
        k(   28) = (   0.0000000   0.3750000  -0.2500000), wk =   0.0312500
        k(   29) = (   0.0000000   0.3750000  -0.1250000), wk =   0.0312500
        k(   30) = (   0.0000000  -0.5000000   0.0000000), wk =   0.0078125
        k(   31) = (   0.0000000  -0.5000000   0.1250000), wk =   0.0312500
        k(   32) = (   0.0000000  -0.5000000   0.2500000), wk =   0.0312500
        k(   33) = (   0.0000000  -0.5000000   0.3750000), wk =   0.0312500
        k(   34) = (   0.0000000  -0.5000000  -0.5000000), wk =   0.0078125
        k(   35) = (   0.1250000   0.1250000   0.1250000), wk =   0.0312500
        k(   36) = (   0.1250000   0.1250000   0.2500000), wk =   0.0312500
        k(   37) = (   0.1250000   0.1250000   0.3750000), wk =   0.0156250
        k(   38) = (   0.1250000   0.1250000  -0.1250000), wk =   0.0078125
        k(   39) = (   0.1250000   0.2500000   0.1250000), wk =   0.0312500
        k(   40) = (   0.1250000   0.2500000   0.2500000), wk =   0.0312500
        k(   41) = (   0.1250000   0.2500000   0.3750000), wk =   0.0312500
        k(   42) = (   0.1250000   0.2500000  -0.5000000), wk =   0.0312500
        k(   43) = (   0.1250000   0.2500000  -0.2500000), wk =   0.0156250
        k(   44) = (   0.1250000   0.2500000  -0.1250000), wk =   0.0156250
        k(   45) = (   0.1250000   0.3750000   0.1250000), wk =   0.0156250
        k(   46) = (   0.1250000   0.3750000   0.2500000), wk =   0.0312500
        k(   47) = (   0.1250000   0.3750000   0.3750000), wk =   0.0156250
        k(   48) = (   0.1250000   0.3750000  -0.3750000), wk =   0.0156250
        k(   49) = (   0.1250000   0.3750000  -0.2500000), wk =   0.0312500
        k(   50) = (   0.1250000   0.3750000  -0.1250000), wk =   0.0156250
        k(   51) = (   0.1250000  -0.5000000  -0.5000000), wk =   0.0156250
        k(   52) = (   0.1250000  -0.5000000  -0.3750000), wk =   0.0312500
        k(   53) = (   0.1250000  -0.5000000  -0.2500000), wk =   0.0312500
        k(   54) = (   0.1250000  -0.5000000  -0.1250000), wk =   0.0156250
        k(   55) = (   0.1250000  -0.3750000   0.3750000), wk =   0.0156250
        k(   56) = (   0.1250000  -0.3750000  -0.5000000), wk =   0.0312500
        k(   57) = (   0.1250000  -0.3750000  -0.3750000), wk =   0.0312500
        k(   58) = (   0.1250000  -0.3750000  -0.2500000), wk =   0.0312500
        k(   59) = (   0.1250000  -0.3750000  -0.1250000), wk =   0.0156250
        k(   60) = (   0.1250000  -0.2500000   0.2500000), wk =   0.0156250
        k(   61) = (   0.1250000  -0.2500000   0.3750000), wk =   0.0312500
        k(   62) = (   0.1250000  -0.2500000  -0.5000000), wk =   0.0312500
        k(   63) = (   0.1250000  -0.2500000  -0.3750000), wk =   0.0312500
        k(   64) = (   0.1250000  -0.2500000  -0.2500000), wk =   0.0312500
        k(   65) = (   0.1250000  -0.2500000  -0.1250000), wk =   0.0156250
        k(   66) = (   0.1250000  -0.1250000   0.1250000), wk =   0.0078125
        k(   67) = (   0.1250000  -0.1250000   0.2500000), wk =   0.0156250
        k(   68) = (   0.1250000  -0.1250000   0.3750000), wk =   0.0156250
        k(   69) = (   0.1250000  -0.1250000  -0.5000000), wk =   0.0156250
        k(   70) = (   0.1250000  -0.1250000  -0.3750000), wk =   0.0156250
        k(   71) = (   0.1250000  -0.1250000  -0.2500000), wk =   0.0156250
        k(   72) = (   0.1250000  -0.1250000  -0.1250000), wk =   0.0078125
        k(   73) = (   0.2500000   0.2500000   0.2500000), wk =   0.0078125
        k(   74) = (   0.2500000   0.2500000  -0.2500000), wk =   0.0078125
        k(   75) = (   0.2500000   0.3750000  -0.3750000), wk =   0.0156250
        k(   76) = (   0.2500000   0.3750000  -0.2500000), wk =   0.0156250
        k(   77) = (   0.2500000  -0.5000000  -0.5000000), wk =   0.0156250
        k(   78) = (   0.2500000  -0.5000000  -0.3750000), wk =   0.0312500
        k(   79) = (   0.2500000  -0.5000000  -0.2500000), wk =   0.0156250
        k(   80) = (   0.2500000  -0.3750000   0.3750000), wk =   0.0156250
        k(   81) = (   0.2500000  -0.3750000  -0.5000000), wk =   0.0312500
        k(   82) = (   0.2500000  -0.3750000  -0.3750000), wk =   0.0312500
        k(   83) = (   0.2500000  -0.3750000  -0.2500000), wk =   0.0156250
        k(   84) = (   0.2500000  -0.2500000   0.2500000), wk =   0.0078125
        k(   85) = (   0.2500000  -0.2500000   0.3750000), wk =   0.0156250
        k(   86) = (   0.2500000  -0.2500000  -0.5000000), wk =   0.0156250
        k(   87) = (   0.2500000  -0.2500000  -0.3750000), wk =   0.0156250
        k(   88) = (   0.2500000  -0.2500000  -0.2500000), wk =   0.0078125
        k(   89) = (   0.3750000   0.3750000  -0.3750000), wk =   0.0078125
        k(   90) = (   0.3750000  -0.5000000  -0.5000000), wk =   0.0156250
        k(   91) = (   0.3750000  -0.5000000  -0.3750000), wk =   0.0156250
        k(   92) = (   0.3750000  -0.3750000   0.3750000), wk =   0.0078125
        k(   93) = (   0.3750000  -0.3750000  -0.5000000), wk =   0.0156250
        k(   94) = (   0.3750000  -0.3750000  -0.3750000), wk =   0.0078125
        k(   95) = (  -0.5000000  -0.5000000  -0.5000000), wk =   0.0039062

     Dense  grid:   384583 G-vectors     FFT dimensions: ( 144, 144, 144)

     Smooth grid:    97215 G-vectors     FFT dimensions: (  90,  90,  90)

     Dynamical RAM for                 wfc:       0.08 MB

     Dynamical RAM for     wfc (w. buffer):       7.78 MB

     Dynamical RAM for           str. fact:       0.37 MB

     Dynamical RAM for           local pot:       0.00 MB

     Dynamical RAM for          nlocal pot:       0.16 MB

     Dynamical RAM for                qrad:       8.33 MB

     Dynamical RAM for          rho,v,vnew:       1.79 MB

     Dynamical RAM for               rhoin:       0.60 MB

     Dynamical RAM for            rho*nmix:       1.96 MB

     Dynamical RAM for           G-vectors:       0.47 MB

     Dynamical RAM for          h,s,v(r/c):       0.08 MB

     Dynamical RAM for          <psi|beta>:       0.01 MB

     Dynamical RAM for                 psi:       0.16 MB

     Dynamical RAM for                hpsi:       0.16 MB

     Dynamical RAM for                spsi:       0.16 MB

     Dynamical RAM for      wfcinit/wfcrot:       0.21 MB

     Dynamical RAM for           addusdens:      22.98 MB

     Dynamical RAM for          addusforce:      23.30 MB

     Dynamical RAM for         addusstress:      24.57 MB

     Estimated static dynamical RAM per process >      24.33 MB

     Estimated max dynamical RAM per process >      48.90 MB

     Estimated total dynamical RAM >       2.29 GB

     Initial potential from superposition of free atoms

     starting charge   32.99867, renormalised to   33.00000
     Starting wfcs are   25 randomized atomic wfcs
     Checking if some PAW data can be deallocated... 
       PAW data deallocated on   36 nodes for type:  1
       PAW data deallocated on   24 nodes for type:  2
       PAW data deallocated on   36 nodes for type:  3

     total cpu time spent up to now is        3.4 secs

     Self-consistent Calculation

     iteration #  1     ecut=   120.00 Ry     beta= 0.70
     Davidson diagonalization with overlap
     ethr =  1.00E-02,  avg # of iterations =  2.3

     total cpu time spent up to now is        8.2 secs

     total energy              =    -534.52364252 Ry
     estimated scf accuracy    <       0.76525391 Ry

     iteration #  2     ecut=   120.00 Ry     beta= 0.70
     Davidson diagonalization with overlap
     ethr =  2.32E-03,  avg # of iterations =  3.6

     total cpu time spent up to now is       13.9 secs

     total energy              =    -533.64691989 Ry
     estimated scf accuracy    <       8.30459849 Ry

     iteration #  3     ecut=   120.00 Ry     beta= 0.70
     Davidson diagonalization with overlap
     ethr =  2.32E-03,  avg # of iterations =  3.5

     total cpu time spent up to now is       19.2 secs

     total energy              =    -534.97361891 Ry
     estimated scf accuracy    <       0.12332380 Ry

     iteration #  4     ecut=   120.00 Ry     beta= 0.70
     Davidson diagonalization with overlap
     ethr =  3.74E-04,  avg # of iterations =  1.3

     total cpu time spent up to now is       23.5 secs

     total energy              =    -534.96773426 Ry
     estimated scf accuracy    <       0.05837290 Ry

     iteration #  5     ecut=   120.00 Ry     beta= 0.70
     Davidson diagonalization with overlap
     ethr =  1.77E-04,  avg # of iterations =  1.5

     total cpu time spent up to now is       27.8 secs

     total energy              =    -534.96365030 Ry
     estimated scf accuracy    <       0.02382885 Ry

     iteration #  6     ecut=   120.00 Ry     beta= 0.70
     Davidson diagonalization with overlap
     ethr =  7.22E-05,  avg # of iterations =  2.0

     total cpu time spent up to now is       32.2 secs

     total energy              =    -534.96632933 Ry
     estimated scf accuracy    <       0.00060908 Ry

     iteration #  7     ecut=   120.00 Ry     beta= 0.70
     Davidson diagonalization with overlap
     ethr =  1.85E-06,  avg # of iterations =  3.6

     total cpu time spent up to now is       37.9 secs

     total energy              =    -534.96652781 Ry
     estimated scf accuracy    <       0.00016477 Ry

     iteration #  8     ecut=   120.00 Ry     beta= 0.70
     Davidson diagonalization with overlap
     ethr =  4.99E-07,  avg # of iterations =  1.4

     total cpu time spent up to now is       42.2 secs

     total energy              =    -534.96652846 Ry
     estimated scf accuracy    <       0.00002913 Ry

     iteration #  9     ecut=   120.00 Ry     beta= 0.70
     Davidson diagonalization with overlap
     ethr =  8.83E-08,  avg # of iterations =  2.3

     total cpu time spent up to now is       47.1 secs

     total energy              =    -534.96653505 Ry
     estimated scf accuracy    <       0.00000038 Ry

     iteration # 10     ecut=   120.00 Ry     beta= 0.70
     Davidson diagonalization with overlap
     ethr =  1.17E-09,  avg # of iterations =  4.4

     total cpu time spent up to now is       53.5 secs

     total energy              =    -534.96653533 Ry
     estimated scf accuracy    <       0.00000001 Ry

     iteration # 11     ecut=   120.00 Ry     beta= 0.70
     Davidson diagonalization with overlap
     ethr =  3.15E-11,  avg # of iterations =  4.2

     total cpu time spent up to now is       59.9 secs

     total energy              =    -534.96653533 Ry
     estimated scf accuracy    <       0.00000002 Ry

     iteration # 12     ecut=   120.00 Ry     beta= 0.70
     Davidson diagonalization with overlap
     ethr =  3.15E-11,  avg # of iterations =  2.0

     total cpu time spent up to now is       64.5 secs

     End of self-consistent calculation

          k = 0.0000 0.0000 0.0000 ( 12131 PWs)   bands (ev):

   -49.8401 -26.0528 -25.7932 -25.7163 -12.3775  -9.5196  -8.8303   0.6149
     2.4641   2.7378   2.8730   3.0069   3.4609   3.9428   4.2024   4.2829
     5.5031   7.2170   7.3568   8.6444   9.3891

     occupation numbers 
     1.0000   1.0000   1.0000   1.0000   1.0000   1.0000   1.0000   1.0000
     1.0000   1.0000   1.0000   1.0000   1.0000   1.0000   1.0000   1.0000
     1.0000  -0.0001  -0.0000  -0.0000  -0.0000

          k = 0.2496 0.2147 0.0000 ( 12121 PWs)   bands (ev):

   -49.8374 -26.0779 -25.7866 -25.7473 -12.1823  -9.4110  -8.8379   0.8265
     2.1227   2.2540   2.4469   2.9952   3.2911   3.5033   3.8842   4.0357
     5.9370   7.5267   7.6017   8.7486  10.0922

     occupation numbers 
     1.0000   1.0000   1.0000   1.0000   1.0000   1.0000   1.0000   1.0000
     1.0000   1.0000   1.0000   1.0000   1.0000   1.0000   1.0000   1.0000
     1.0000  -0.0000  -0.0000  -0.0000  -0.0000

          k = 0.4991 0.4293 0.0000 ( 12152 PWs)   bands (ev):

   -49.8311 -26.1366 -25.8213 -25.7707 -11.6834  -9.1336  -8.8601   1.1137
     1.4003   1.7339   1.8956   2.0083   2.1854   2.9215   3.8462   4.0137
     6.8081   8.1649   8.2756   9.1579  11.1506

     occupation numbers 
     1.0000   1.0000   1.0000   1.0000   1.0000   1.0000   1.0000   1.0000
     1.0000   1.0000   1.0000   1.0000   1.0000   1.0000   1.0000   1.0000
     0.5552  -0.0000  -0.0000  -0.0000  -0.0000

          k = 0.7487 0.6440 0.0000 ( 12176 PWs)   bands (ev):

   -49.8247 -26.1931 -25.8938 -25.7548 -11.1338  -8.8872  -8.8290  -0.0675
     0.9797   1.2629   1.6639   1.7797   2.1845   2.3091   3.5230   3.9758
     7.8656   8.8531   9.0612   9.5744  11.3810

     occupation numbers 
     1.0000   1.0000   1.0000   1.0000   1.0000   1.0000   1.0000   1.0000
     1.0000   1.0000   1.0000   1.0000   1.0000   1.0000   1.0000   1.0000
    -0.0000  -0.0000  -0.0000  -0.0000  -0.0000

          k =-0.9983-0.8586 0.0000 ( 12140 PWs)   bands (ev):

   -49.8221 -26.2158 -25.9234 -25.7482 -10.8865  -8.8999  -8.6924  -0.5563
     0.6066   0.9547   1.7493   1.8285   1.9847   2.5707   3.2686   3.8801
     8.4652   9.1841   9.3762   9.7662  11.4052

     occupation numbers 
     1.0000   1.0000   1.0000   1.0000   1.0000   1.0000   1.0000   1.0000
     1.0000   1.0000   1.0000   1.0000   1.0000   1.0000   1.0000   1.0000
    -0.0000  -0.0000  -0.0000  -0.0000  -0.0000

          k = 0.2496 0.0000 0.0677 ( 12148 PWs)   bands (ev):

   -49.8379 -26.0503 -25.7876 -25.7482 -12.3602  -9.4303  -8.8432   0.8045
     2.2480   2.6632   2.9514   3.0610   3.1022   3.8023   3.9338   4.1215
     5.9214   7.1264   7.2966   8.7287   9.7680

     occupation numbers 
     1.0000   1.0000   1.0000   1.0000   1.0000   1.0000   1.0000   1.0000
     1.0000   1.0000   1.0000   1.0000   1.0000   1.0000   1.0000   1.0000
     1.0000  -0.0030  -0.0000  -0.0000  -0.0000

          k = 0.4991 0.2147 0.0677 ( 12153 PWs)   bands (ev):

   -49.8323 -26.0716 -25.8237 -25.7730 -12.1413  -9.1906  -8.8617   1.2340
     1.9019   2.0813   2.2402   2.4877   2.8941   3.0642   3.8707   4.0708
     6.7570   7.3225   7.4410   9.1606  10.5532

     occupation numbers 
     1.0000   1.0000   1.0000   1.0000   1.0000   1.0000   1.0000   1.0000
     1.0000   1.0000   1.0000   1.0000   1.0000   1.0000   1.0000   1.0000
     0.8362  -0.0000  -0.0000  -0.0000  -0.0000

          k = 0.7487 0.4293 0.0677 ( 12179 PWs)   bands (ev):

   -49.8259 -26.1299 -25.8964 -25.7571 -11.6440  -8.9122  -8.8654   1.0931
     1.2405   1.4440   1.6804   1.9110   2.2602   2.5431   3.7131   4.1144
     7.7181   8.0647   8.1728   9.6518  11.1263

     occupation numbers 
     1.0000   1.0000   1.0000   1.0000   1.0000   1.0000   1.0000   1.0000
     1.0000   1.0000   1.0000   1.0000   1.0000   1.0000   1.0000   1.0000
    -0.0000  -0.0000  -0.0000  -0.0000  -0.0000

          k = 0.9983 0.6440 0.0677 ( 12173 PWs)   bands (ev):

   -49.8226 -26.1901 -25.9245 -25.7492 -11.1183  -8.9120  -8.7058  -0.0548
     0.7510   0.9302   1.5577   1.9399   2.2131   2.6010   3.3435   3.9453
     8.4530   8.7802   9.0200   9.7503  11.2803

     occupation numbers 
     1.0000   1.0000   1.0000   1.0000   1.0000   1.0000   1.0000   1.0000
     1.0000   1.0000   1.0000   1.0000   1.0000   1.0000   1.0000   1.0000
    -0.0000  -0.0000  -0.0000  -0.0000  -0.0000

          k =-0.7487-0.8586 0.0677 ( 12172 PWs)   bands (ev):

   -49.8242 -26.2188 -25.8927 -25.7538 -10.9013  -8.9059  -8.7832  -0.5670
     0.7930   1.2437   1.4366   1.8064   2.3284   2.4004   3.4321   3.8231
     7.9171   9.2350   9.4243   9.4860  11.3405

     occupation numbers 
     1.0000   1.0000   1.0000   1.0000   1.0000   1.0000   1.0000   1.0000
     1.0000   1.0000   1.0000   1.0000   1.0000   1.0000   1.0000   1.0000
    -0.0000  -0.0000  -0.0000  -0.0000  -0.0000

          k =-0.4991-0.6440 0.0677 ( 12166 PWs)   bands (ev):

   -49.8299 -26.2002 -25.8189 -25.7683 -11.1706  -9.0577  -8.8784  -0.0967
     1.3250   1.4629   1.5694   1.8775   2.1345   2.9295   3.7153   3.8068
     6.8846   8.9652   9.0532   9.2214  11.4241

     occupation numbers 
     1.0000   1.0000   1.0000   1.0000   1.0000   1.0000   1.0000   1.0000
     1.0000   1.0000   1.0000   1.0000   1.0000   1.0000   1.0000   1.0000
     0.1316  -0.0000  -0.0000  -0.0000  -0.0000

          k =-0.2496-0.4293 0.0677 ( 12135 PWs)   bands (ev):

   -49.8362 -26.1434 -25.7842 -25.7451 -11.7227  -9.3427  -8.8516   0.9157
     1.1356   1.4959   2.2509   2.5221   3.1819   3.4072   3.7283   3.9166
     6.0016   8.3740   8.4052   8.7840  10.6494

     occupation numbers 
     1.0000   1.0000   1.0000   1.0000   1.0000   1.0000   1.0000   1.0000
     1.0000   1.0000   1.0000   1.0000   1.0000   1.0000   1.0000   1.0000
     1.0000  -0.0000  -0.0000  -0.0000  -0.0000

          k = 0.0000-0.2147 0.0677 ( 12112 PWs)   bands (ev):

   -49.8396 -26.0805 -25.7922 -25.7154 -12.1993  -9.4893  -8.8390   0.6674
     2.0634   2.4353   2.4866   3.2963   3.3560   3.7544   3.9567   4.1593
     5.5318   7.6422   7.6667   8.6739   9.7250

     occupation numbers 
     1.0000   1.0000   1.0000   1.0000   1.0000   1.0000   1.0000   1.0000
     1.0000   1.0000   1.0000   1.0000   1.0000   1.0000   1.0000   1.0000
     1.0000  -0.0000  -0.0000  -0.0000  -0.0000

          k = 0.4991 0.0000 0.1354 ( 12156 PWs)   bands (ev):

   -49.8327 -26.0442 -25.8246 -25.7740 -12.3186  -9.2075  -8.8694   1.1819
     1.9239   2.0226   2.4794   3.0516   3.3266   3.4651   3.7865   3.9101
     6.7860   6.9389   7.0972   9.1020  10.1152

     occupation numbers 
     1.0000   1.0000   1.0000   1.0000   1.0000   1.0000   1.0000   1.0000
     1.0000   1.0000   1.0000   1.0000   1.0000   1.0000   1.0000   1.0000
     0.6872  -0.0107  -0.0066  -0.0000  -0.0000

          k = 0.7487 0.2147 0.1354 ( 12169 PWs)   bands (ev):

   -49.8271 -26.0654 -25.8989 -25.7594 -12.1003  -8.9725  -8.8644   1.0774
     1.4572   1.8248   2.0155   2.6198   2.7669   3.1407   3.8335   4.0166
     7.0935   7.2297   7.8501   9.6417  10.4521

     occupation numbers 
     1.0000   1.0000   1.0000   1.0000   1.0000   1.0000   1.0000   1.0000
     1.0000   1.0000   1.0000   1.0000   1.0000   1.0000   1.0000   1.0000
    -0.0072  -0.0001  -0.0000  -0.0000  -0.0000

          k = 0.9983 0.4293 0.1354 ( 12163 PWs)   bands (ev):

   -49.8238 -26.1271 -25.9272 -25.7515 -11.6276  -8.9407  -8.7375   0.7664
     1.2183   1.2441   1.4275   1.9497   2.6341   2.8137   3.5531   4.0450
     7.8527   8.1215   8.4556   9.7338  10.9003

     occupation numbers 
     1.0000   1.0000   1.0000   1.0000   1.0000   1.0000   1.0000   1.0000
     1.0000   1.0000   1.0000   1.0000   1.0000   1.0000   1.0000   1.0000
    -0.0000  -0.0000  -0.0000  -0.0000  -0.0000

          k = 1.2479 0.6440 0.1354 ( 12184 PWs)   bands (ev):

   -49.8247 -26.1931 -25.8938 -25.7548 -11.1336  -8.9431  -8.7691  -0.0678
     0.9233   1.1556   1.3346   1.9094   2.5104   2.5782   3.5034   3.8064
     7.9338   8.8370   9.0664   9.4117  11.1834

     occupation numbers 
     1.0000   1.0000   1.0000   1.0000   1.0000   1.0000   1.0000   1.0000
     1.0000   1.0000   1.0000   1.0000   1.0000   1.0000   1.0000   1.0000
    -0.0000  -0.0000  -0.0000  -0.0000  -0.0000

          k =-0.4991-0.8586 0.1354 ( 12184 PWs)   bands (ev):

   -49.8294 -26.2262 -25.8179 -25.7674 -10.9364  -8.9921  -8.9214  -0.5928
     1.1768   1.2228   1.7221   1.8004   2.1799   2.9611   3.5792   3.7471
     6.9386   8.9582   9.4210   9.5196  11.4686

     occupation numbers 
     1.0000   1.0000   1.0000   1.0000   1.0000   1.0000   1.0000   1.0000
     1.0000   1.0000   1.0000   1.0000   1.0000   1.0000   1.0000   1.0000
    -0.0103  -0.0000  -0.0000  -0.0000  -0.0000

          k =-0.2496-0.6440 0.1354 ( 12161 PWs)   bands (ev):

   -49.8350 -26.2074 -25.7818 -25.7430 -11.2069  -9.2529  -8.8912  -0.1250
     0.9538   1.2476   2.0118   2.2587   2.9728   3.3180   3.5273   3.9368
     6.0701   8.7634   9.2225   9.2550  11.0503

     occupation numbers 
     1.0000   1.0000   1.0000   1.0000   1.0000   1.0000   1.0000   1.0000
     1.0000   1.0000   1.0000   1.0000   1.0000   1.0000   1.0000   1.0000
     1.0000  -0.0000  -0.0000  -0.0000  -0.0000

          k = 0.0000-0.4293 0.1354 ( 12137 PWs)   bands (ev):

   -49.8384 -26.1461 -25.7898 -25.7133 -11.7387  -9.4096  -8.8678   0.7793
     1.1125   1.4399   2.5431   2.9068   3.0133   3.5500   3.9528   4.0090
     5.5869   8.4256   8.5366   8.7459  10.3246

     occupation numbers 
     1.0000   1.0000   1.0000   1.0000   1.0000   1.0000   1.0000   1.0000
     1.0000   1.0000   1.0000   1.0000   1.0000   1.0000   1.0000   1.0000
     1.0000  -0.0000  -0.0000  -0.0000  -0.0000

          k = 0.2496-0.2147 0.1354 ( 12130 PWs)   bands (ev):

   -49.8374 -26.0779 -25.7866 -25.7473 -12.1821  -9.3919  -8.8610   0.8826
     2.1381   2.2493   2.4577   2.9583   3.2045   3.4973   3.8613   4.0668
     5.9605   7.5205   7.6193   8.7308  10.1574

     occupation numbers 
     1.0000   1.0000   1.0000   1.0000   1.0000   1.0000   1.0000   1.0000
     1.0000   1.0000   1.0000   1.0000   1.0000   1.0000   1.0000   1.0000
     1.0000  -0.0000  -0.0000  -0.0000  -0.0000

          k = 0.7487 0.0000 0.2031 ( 12173 PWs)   bands (ev):

   -49.8276 -26.0382 -25.9000 -25.7604 -12.2771  -9.0106  -8.8490   1.0081
     1.3325   1.9954   2.0947   3.1713   3.4425   3.5807   3.7314   3.7603
     6.7823   6.7969   7.8377   9.5449   9.9807

     occupation numbers 
     1.0000   1.0000   1.0000   1.0000   1.0000   1.0000   1.0000   1.0000
     1.0000   1.0000   1.0000   1.0000   1.0000   1.0000   1.0000   1.0000
     0.7083   0.6234  -0.0000  -0.0000  -0.0000

          k = 0.9983 0.2147 0.2031 ( 12179 PWs)   bands (ev):

   -49.8249 -26.0627 -25.9298 -25.7538 -12.0833  -8.9691  -8.7687   0.6956
     1.3329   1.7687   1.9278   2.6906   2.9039   3.4037   3.8035   3.9312
     7.0329   7.1220   8.4321   9.6732  10.3122

     occupation numbers 
     1.0000   1.0000   1.0000   1.0000   1.0000   1.0000   1.0000   1.0000
     1.0000   1.0000   1.0000   1.0000   1.0000   1.0000   1.0000   1.0000
    -0.0237  -0.0034  -0.0000  -0.0000  -0.0000

          k = 1.2479 0.4293 0.2031 ( 12170 PWs)   bands (ev):

   -49.8259 -26.1299 -25.8964 -25.7571 -11.6437  -8.9854  -8.7866   1.0042
     1.1838   1.2982   1.3963   2.0975   2.6493   2.8082   3.6920   3.9534
     7.8583   7.9906   8.1774   9.4037  10.8614

     occupation numbers 
     1.0000   1.0000   1.0000   1.0000   1.0000   1.0000   1.0000   1.0000
     1.0000   1.0000   1.0000   1.0000   1.0000   1.0000   1.0000   1.0000
    -0.0000  -0.0000  -0.0000  -0.0000  -0.0000

          k = 1.4974 0.6440 0.2031 ( 12175 PWs)   bands (ev):

   -49.8299 -26.2002 -25.8189 -25.7684 -11.1702  -9.0228  -8.9141  -0.0979
     1.2552   1.3220   1.6933   1.8466   2.2853   3.0090   3.5555   3.8703
     6.9431   8.8547   9.1195   9.1559  11.3586

     occupation numbers 
     1.0000   1.0000   1.0000   1.0000   1.0000   1.0000   1.0000   1.0000
     1.0000   1.0000   1.0000   1.0000   1.0000   1.0000   1.0000   1.0000
    -0.0158  -0.0000  -0.0000  -0.0000  -0.0000

          k =-0.2496-0.8586 0.2031 ( 12167 PWs)   bands (ev):

   -49.8345 -26.2335 -25.7809 -25.7421 -10.9707  -9.1886  -8.9385  -0.6184
     0.8395   1.4192   1.7750   2.1696   2.8865   3.2233   3.4792   3.9642
     6.1070   8.7780   9.5716   9.6017  11.2112

     occupation numbers 
     1.0000   1.0000   1.0000   1.0000   1.0000   1.0000   1.0000   1.0000
     1.0000   1.0000   1.0000   1.0000   1.0000   1.0000   1.0000   1.0000
     1.0000  -0.0000  -0.0000  -0.0000  -0.0000

          k = 0.0000-0.6440 0.2031 ( 12156 PWs)   bands (ev):

   -49.8372 -26.2103 -25.7874 -25.7112 -11.2216  -9.3149  -8.9153  -0.1370
     0.7858   1.2387   2.4059   2.5625   2.6063   3.4574   3.9231   3.9858
     5.6407   8.8168   9.2248   9.3623  10.7876

     occupation numbers 
     1.0000   1.0000   1.0000   1.0000   1.0000   1.0000   1.0000   1.0000
     1.0000   1.0000   1.0000   1.0000   1.0000   1.0000   1.0000   1.0000
     1.0000  -0.0000  -0.0000  -0.0000  -0.0000

          k = 0.2496-0.4293 0.2031 ( 12155 PWs)   bands (ev):

   -49.8362 -26.1434 -25.7842 -25.7451 -11.7222  -9.3083  -8.8919   0.9619
     1.1594   1.5910   2.1759   2.5432   2.9594   3.4632   3.5779   4.0751
     6.0310   8.3941   8.4032   8.7593  10.7497

     occupation numbers 
     1.0000   1.0000   1.0000   1.0000   1.0000   1.0000   1.0000   1.0000
     1.0000   1.0000   1.0000   1.0000   1.0000   1.0000   1.0000   1.0000
     1.0000  -0.0000  -0.0000  -0.0000  -0.0000

          k = 0.4991-0.2147 0.2031 ( 12152 PWs)   bands (ev):

   -49.8323 -26.0716 -25.8237 -25.7731 -12.1410  -9.1765  -8.8764   1.2071
     1.8859   1.9434   2.3082   2.5206   2.9346   3.1620   3.8428   4.0827
     6.8123   7.2882   7.4553   9.0297  10.4960

     occupation numbers 
     1.0000   1.0000   1.0000   1.0000   1.0000   1.0000   1.0000   1.0000
     1.0000   1.0000   1.0000   1.0000   1.0000   1.0000   1.0000   1.0000
     0.5294  -0.0000  -0.0000  -0.0000  -0.0000

          k =-0.9983 0.0000-0.2708 ( 12202 PWs)   bands (ev):

   -49.8254 -26.0356 -25.9309 -25.7547 -12.2600  -8.9808  -8.7814   0.6617
     1.3128   1.8885   2.0433   3.3075   3.4121   3.5021   3.7841   3.9215
     6.6057   6.7462   8.4197   9.5362  10.0280

     occupation numbers 
     1.0000   1.0000   1.0000   1.0000   1.0000   1.0000   1.0000   1.0000
     1.0000   1.0000   1.0000   1.0000   1.0000   1.0000   1.0000   1.0000
     1.0252   0.8811  -0.0000  -0.0000  -0.0000

          k =-0.7487 0.2147-0.2708 ( 12174 PWs)   bands (ev):

   -49.8271 -26.0654 -25.8989 -25.7594 -12.1002  -9.0133  -8.8196   0.9959
     1.2684   1.8243   2.1568   2.6390   2.8945   3.2517   3.8083   4.0107
     7.0825   7.2236   7.8801   9.4606  10.3191

     occupation numbers 
     1.0000   1.0000   1.0000   1.0000   1.0000   1.0000   1.0000   1.0000
     1.0000   1.0000   1.0000   1.0000   1.0000   1.0000   1.0000   1.0000
    -0.0093  -0.0001  -0.0000  -0.0000  -0.0000

          k =-0.4991 0.4293-0.2708 ( 12174 PWs)   bands (ev):

   -49.8311 -26.1366 -25.8213 -25.7707 -11.6829  -9.1068  -8.8877   1.0953
     1.3085   1.6907   1.8861   1.9356   2.4020   3.0806   3.6936   4.0584
     6.8915   8.1356   8.2994   8.9856  11.0551

     occupation numbers 
     1.0000   1.0000   1.0000   1.0000   1.0000   1.0000   1.0000   1.0000
     1.0000   1.0000   1.0000   1.0000   1.0000   1.0000   1.0000   1.0000
     0.1049  -0.0000  -0.0000  -0.0000  -0.0000

          k =-0.2496 0.6440-0.2708 ( 12165 PWs)   bands (ev):

   -49.8350 -26.2074 -25.7819 -25.7430 -11.2065  -9.2163  -8.9323  -0.1261
     0.9465   1.4635   1.8439   2.2686   2.8820   3.2738   3.4998   4.0203
     6.0920   8.7687   9.2109   9.2576  11.1181

     occupation numbers 
     1.0000   1.0000   1.0000   1.0000   1.0000   1.0000   1.0000   1.0000
     1.0000   1.0000   1.0000   1.0000   1.0000   1.0000   1.0000   1.0000
     1.0000  -0.0000  -0.0000  -0.0000  -0.0000

          k =-1.9966-0.8586-0.2708 ( 12134 PWs)   bands (ev):

   -49.8367 -26.2365 -25.7864 -25.7103 -10.9847  -9.2669  -8.9461  -0.6290
     0.6866   1.3310   2.1190   2.4367   2.6307   3.4161   3.8933   3.9825
     5.6631   8.8469   9.5754   9.7000  10.9580

     occupation numbers 
     1.0000   1.0000   1.0000   1.0000   1.0000   1.0000   1.0000   1.0000
     1.0000   1.0000   1.0000   1.0000   1.0000   1.0000   1.0000   1.0000
     1.0000  -0.0000  -0.0000  -0.0000  -0.0000

          k = 0.4991 0.4293 0.1354 ( 12160 PWs)   bands (ev):

   -49.8311 -26.1366 -25.8213 -25.7707 -11.6833  -9.1263  -8.8676   1.1078
     1.3651   1.7506   1.8361   2.0647   2.1919   2.9831   3.7948   4.0340
     6.8316   8.1515   8.2860   9.1080  11.1270

     occupation numbers 
     1.0000   1.0000   1.0000   1.0000   1.0000   1.0000   1.0000   1.0000
     1.0000   1.0000   1.0000   1.0000   1.0000   1.0000   1.0000   1.0000
     0.4097  -0.0000  -0.0000  -0.0000  -0.0000

          k = 0.7487 0.6440 0.1354 ( 12164 PWs)   bands (ev):

   -49.8247 -26.1931 -25.8938 -25.7548 -11.1338  -8.9025  -8.8131  -0.0676
     0.9727   1.2284   1.6427   1.7369   2.2816   2.3576   3.5171   3.9485
     7.8778   8.8410   9.0612   9.5556  11.3622

     occupation numbers 
     1.0000   1.0000   1.0000   1.0000   1.0000   1.0000   1.0000   1.0000
     1.0000   1.0000   1.0000   1.0000   1.0000   1.0000   1.0000   1.0000
    -0.0000  -0.0000  -0.0000  -0.0000  -0.0000

          k = 0.9983 0.8586 0.1354 ( 12170 PWs)   bands (ev):

   -49.8221 -26.2158 -25.9234 -25.7482 -10.8865  -8.8999  -8.6925  -0.5563
     0.6211   0.9248   1.7723   1.8605   1.9507   2.5825   3.2248   3.9083
     8.4668   9.1858   9.3858   9.7373  11.3862

     occupation numbers 
     1.0000   1.0000   1.0000   1.0000   1.0000   1.0000   1.0000   1.0000
     1.0000   1.0000   1.0000   1.0000   1.0000   1.0000   1.0000   1.0000
    -0.0000  -0.0000  -0.0000  -0.0000  -0.0000

          k = 0.0000 0.0000 0.1354 ( 12125 PWs)   bands (ev):

   -49.8400 -26.0528 -25.7932 -25.7163 -12.3772  -9.4968  -8.8593   0.6932
     2.4883   2.7066   2.8465   3.0613   3.4473   3.8235   4.1558   4.2476
     5.5209   7.2171   7.3869   8.6961   9.4814

     occupation numbers 
     1.0000   1.0000   1.0000   1.0000   1.0000   1.0000   1.0000   1.0000
     1.0000   1.0000   1.0000   1.0000   1.0000   1.0000   1.0000   1.0000
     1.0000  -0.0001  -0.0000  -0.0000  -0.0000

          k = 0.7487 0.4293 0.2031 ( 12170 PWs)   bands (ev):

   -49.8259 -26.1299 -25.8964 -25.7571 -11.6439  -8.9540  -8.8212   1.0541
     1.2110   1.4149   1.4955   1.9875   2.4674   2.6472   3.7007   4.0555
     7.7715   8.0334   8.1742   9.5516  11.0199

     occupation numbers 
     1.0000   1.0000   1.0000   1.0000   1.0000   1.0000   1.0000   1.0000
     1.0000   1.0000   1.0000   1.0000   1.0000   1.0000   1.0000   1.0000
    -0.0000  -0.0000  -0.0000  -0.0000  -0.0000

          k = 0.9983 0.6440 0.2031 ( 12179 PWs)   bands (ev):

   -49.8226 -26.1901 -25.9245 -25.7492 -11.1183  -8.9120  -8.7058  -0.0548
     0.7841   0.8773   1.6393   1.8515   2.2262   2.6400   3.2899   3.9750
     8.4613   8.7759   9.0268   9.7184  11.2709

     occupation numbers 
     1.0000   1.0000   1.0000   1.0000   1.0000   1.0000   1.0000   1.0000
     1.0000   1.0000   1.0000   1.0000   1.0000   1.0000   1.0000   1.0000
    -0.0000  -0.0000  -0.0000  -0.0000  -0.0000

          k = 1.2479 0.8586 0.2031 ( 12154 PWs)   bands (ev):

   -49.8242 -26.2188 -25.8927 -25.7538 -10.9013  -8.9059  -8.7833  -0.5670
     0.7965   1.2107   1.5374   1.6998   2.3631   2.4096   3.4285   3.8175
     7.9180   9.1969   9.4301   9.5173  11.3793

     occupation numbers 
     1.0000   1.0000   1.0000   1.0000   1.0000   1.0000   1.0000   1.0000
     1.0000   1.0000   1.0000   1.0000   1.0000   1.0000   1.0000   1.0000
    -0.0000  -0.0000  -0.0000  -0.0000  -0.0000

          k =-0.4991-0.6440 0.2031 ( 12177 PWs)   bands (ev):

   -49.8299 -26.2002 -25.8189 -25.7684 -11.1704  -9.0452  -8.8912  -0.0972
     1.2924   1.3914   1.6100   1.9241   2.1574   2.9710   3.6276   3.8539
     6.9081   8.8926   9.1154   9.1871  11.4059

     occupation numbers 
     1.0000   1.0000   1.0000   1.0000   1.0000   1.0000   1.0000   1.0000
     1.0000   1.0000   1.0000   1.0000   1.0000   1.0000   1.0000   1.0000
     0.0513  -0.0000  -0.0000  -0.0000  -0.0000

          k = 0.0000-0.2147 0.2031 ( 12117 PWs)   bands (ev):

   -49.8396 -26.0805 -25.7923 -25.7154 -12.1987  -9.4454  -8.8937   0.8114
     2.1035   2.4331   2.5302   3.1503   3.2821   3.5638   4.0593   4.0890
     5.5480   7.6417   7.6898   8.7622   9.9079

     occupation numbers 
     1.0000   1.0000   1.0000   1.0000   1.0000   1.0000   1.0000   1.0000
     1.0000   1.0000   1.0000   1.0000   1.0000   1.0000   1.0000   1.0000
     1.0000  -0.0000  -0.0000  -0.0000  -0.0000

          k = 0.2496 0.0000 0.2031 ( 12145 PWs)   bands (ev):

   -49.8379 -26.0503 -25.7876 -25.7482 -12.3597  -9.3921  -8.8893   0.9230
     2.2531   2.5874   2.8872   3.0462   3.1772   3.7007   3.9606   4.0498
     5.9742   7.1064   7.3434   8.7010   9.8651

     occupation numbers 
     1.0000   1.0000   1.0000   1.0000   1.0000   1.0000   1.0000   1.0000
     1.0000   1.0000   1.0000   1.0000   1.0000   1.0000   1.0000   1.0000
     1.0000  -0.0052  -0.0000  -0.0000  -0.0000

          k = 0.9983 0.4293 0.2708 ( 12166 PWs)   bands (ev):

   -49.8238 -26.1271 -25.9272 -25.7515 -11.6276  -8.9407  -8.7375   0.7533
     1.2179   1.2426   1.5055   1.8591   2.6220   2.8721   3.5262   4.0533
     7.8616   8.1232   8.4489   9.7109  10.9194

     occupation numbers 
     1.0000   1.0000   1.0000   1.0000   1.0000   1.0000   1.0000   1.0000
     1.0000   1.0000   1.0000   1.0000   1.0000   1.0000   1.0000   1.0000
    -0.0000  -0.0000  -0.0000  -0.0000  -0.0000

          k = 1.2479 0.6440 0.2708 ( 12163 PWs)   bands (ev):

   -49.8247 -26.1931 -25.8938 -25.7548 -11.1337  -8.9261  -8.7878  -0.0677
     0.9523   1.1711   1.4825   1.8156   2.4226   2.4722   3.5062   3.8802
     7.9067   8.8260   9.0632   9.4955  11.2896

     occupation numbers 
     1.0000   1.0000   1.0000   1.0000   1.0000   1.0000   1.0000   1.0000
     1.0000   1.0000   1.0000   1.0000   1.0000   1.0000   1.0000   1.0000
    -0.0000  -0.0000  -0.0000  -0.0000  -0.0000

          k = 1.4974 0.8586 0.2708 ( 12186 PWs)   bands (ev):

   -49.8294 -26.2262 -25.8179 -25.7674 -10.9364  -8.9921  -8.9214  -0.5928
     1.1926   1.2064   1.7086   1.8085   2.1948   2.9490   3.5709   3.7588
     6.9382   8.9485   9.4410   9.5107  11.4806

     occupation numbers 
     1.0000   1.0000   1.0000   1.0000   1.0000   1.0000   1.0000   1.0000
     1.0000   1.0000   1.0000   1.0000   1.0000   1.0000   1.0000   1.0000
    -0.0098  -0.0000  -0.0000  -0.0000  -0.0000

          k = 0.0000-0.4293 0.2708 ( 12158 PWs)   bands (ev):

   -49.8384 -26.1461 -25.7899 -25.7133 -11.7380  -9.3515  -8.9372   0.8937
     1.1448   1.5758   2.5907   2.6220   2.9025   3.3856   3.9258   4.1554
     5.5989   8.4166   8.5354   8.8346  10.5417

     occupation numbers 
     1.0000   1.0000   1.0000   1.0000   1.0000   1.0000   1.0000   1.0000
     1.0000   1.0000   1.0000   1.0000   1.0000   1.0000   1.0000   1.0000
     1.0000  -0.0000  -0.0000  -0.0000  -0.0000

          k = 0.2496-0.2147 0.2708 ( 12146 PWs)   bands (ev):

   -49.8374 -26.0779 -25.7867 -25.7473 -12.1814  -9.3375  -8.9252   1.0437
     2.1074   2.2757   2.4726   2.8369   3.1159   3.4562   3.7859   4.1155
     6.0155   7.5123   7.6498   8.7214  10.2797

     occupation numbers 
     1.0000   1.0000   1.0000   1.0000   1.0000   1.0000   1.0000   1.0000
     1.0000   1.0000   1.0000   1.0000   1.0000   1.0000   1.0000   1.0000
     1.0000  -0.0000  -0.0000  -0.0000  -0.0000

          k = 0.4991 0.0000 0.2708 ( 12154 PWs)   bands (ev):

   -49.8327 -26.0442 -25.8246 -25.7741 -12.3182  -9.1880  -8.8896   1.1646
     1.7834   2.0227   2.5638   2.9865   3.4475   3.5451   3.8498   3.8672
     6.8537   6.8887   7.1112   8.9200  10.0357

     occupation numbers 
     1.0000   1.0000   1.0000   1.0000   1.0000   1.0000   1.0000   1.0000
     1.0000   1.0000   1.0000   1.0000   1.0000   1.0000   1.0000   1.0000
     0.2806   0.1153  -0.0046  -0.0000  -0.0000

          k =-1.9966-0.6440-0.2031 ( 12169 PWs)   bands (ev):

   -49.8372 -26.2103 -25.7874 -25.7112 -11.2211  -9.2646  -8.9727  -0.1385
     0.8485   1.3886   2.1993   2.5621   2.6361   3.2627   3.8708   4.1463
     5.6469   8.8688   9.2159   9.3616  10.9063

     occupation numbers 
     1.0000   1.0000   1.0000   1.0000   1.0000   1.0000   1.0000   1.0000
     1.0000   1.0000   1.0000   1.0000   1.0000   1.0000   1.0000   1.0000
     1.0000  -0.0000  -0.0000  -0.0000  -0.0000

          k =-1.7470-0.4293-0.2031 ( 12164 PWs)   bands (ev):

   -49.8362 -26.1434 -25.7843 -25.7451 -11.7215  -9.2438  -8.9649   1.0134
     1.2516   1.7356   1.9974   2.5351   2.8786   3.3819   3.4242   4.2211
     6.0732   8.3801   8.4108   8.7764  10.8691

     occupation numbers 
     1.0000   1.0000   1.0000   1.0000   1.0000   1.0000   1.0000   1.0000
     1.0000   1.0000   1.0000   1.0000   1.0000   1.0000   1.0000   1.0000
     1.0000  -0.0000  -0.0000  -0.0000  -0.0000

          k =-1.4974-0.2147-0.2031 ( 12140 PWs)   bands (ev):

   -49.8323 -26.0716 -25.8237 -25.7731 -12.1406  -9.1537  -8.8999   1.1962
     1.6770   1.9707   2.3813   2.5424   3.0355   3.2496   3.7860   4.1069
     6.9002   7.2549   7.4624   8.8547  10.3958

     occupation numbers 
     1.0000   1.0000   1.0000   1.0000   1.0000   1.0000   1.0000   1.0000
     1.0000   1.0000   1.0000   1.0000   1.0000   1.0000   1.0000   1.0000
     0.0749  -0.0000  -0.0000  -0.0000  -0.0000

          k =-1.2479 0.0000-0.2031 ( 12202 PWs)   bands (ev):

   -49.8276 -26.0382 -25.9000 -25.7604 -12.2770  -9.0460  -8.8090   0.9319
     1.1519   2.0140   2.2743   3.1285   3.5582   3.5692   3.7928   3.8479
     6.7418   6.7730   7.8871   9.3410   9.8443

     occupation numbers 
     1.0000   1.0000   1.0000   1.0000   1.0000   1.0000   1.0000   1.0000
     1.0000   1.0000   1.0000   1.0000   1.0000   1.0000   1.0000   1.0000
     0.8976   0.7586  -0.0000  -0.0000  -0.0000

          k = 0.0000 0.8586-0.1354 ( 12137 PWs)   bands (ev):

   -49.8367 -26.2365 -25.7864 -25.7103 -10.9847  -9.2669  -8.9461  -0.6290
     0.7409   1.1813   2.3367   2.4368   2.6305   3.1837   3.8933   4.0982
     5.6587   8.8469   9.5852   9.6999  10.9159

     occupation numbers 
     1.0000   1.0000   1.0000   1.0000   1.0000   1.0000   1.0000   1.0000
     1.0000   1.0000   1.0000   1.0000   1.0000   1.0000   1.0000   1.0000
     1.0000  -0.0000  -0.0000  -0.0000  -0.0000

          k =-1.7470-0.6440-0.1354 ( 12171 PWs)   bands (ev):

   -49.8350 -26.2074 -25.7819 -25.7430 -11.2061  -9.1640  -8.9891  -0.1273
     1.0343   1.4550   1.8644   2.2203   2.9269   3.1781   3.3427   4.1500
     6.1104   8.7614   9.2284   9.2568  11.1730

     occupation numbers 
     1.0000   1.0000   1.0000   1.0000   1.0000   1.0000   1.0000   1.0000
     1.0000   1.0000   1.0000   1.0000   1.0000   1.0000   1.0000   1.0000
     1.0000  -0.0000  -0.0000  -0.0000  -0.0000

          k =-1.4974-0.4293-0.1354 ( 12163 PWs)   bands (ev):

   -49.8311 -26.1366 -25.8213 -25.7707 -11.6825  -9.0828  -8.9123   1.0868
     1.2737   1.6247   1.7936   1.9897   2.6092   3.1214   3.6025   4.0708
     6.9559   8.1440   8.2969   8.8590  10.9642

     occupation numbers 
     1.0000   1.0000   1.0000   1.0000   1.0000   1.0000   1.0000   1.0000
     1.0000   1.0000   1.0000   1.0000   1.0000   1.0000   1.0000   1.0000
    -0.0272  -0.0000  -0.0000  -0.0000  -0.0000

          k =-1.2479-0.2147-0.1354 ( 12175 PWs)   bands (ev):

   -49.8271 -26.0654 -25.8989 -25.7595 -12.1000  -9.0404  -8.7885   0.9400
     1.1169   1.7941   2.2950   2.6392   3.0113   3.3681   3.8077   3.9752
     7.0695   7.2189   7.9239   9.2852  10.1720

     occupation numbers 
     1.0000   1.0000   1.0000   1.0000   1.0000   1.0000   1.0000   1.0000
     1.0000   1.0000   1.0000   1.0000   1.0000   1.0000   1.0000   1.0000
    -0.0124  -0.0001  -0.0000  -0.0000  -0.0000

          k =-0.9983 0.0000-0.1354 ( 12175 PWs)   bands (ev):

   -49.8254 -26.0356 -25.9309 -25.7547 -12.2600  -8.9807  -8.7815   0.6797
     1.2591   1.9086   2.0697   3.3073   3.4126   3.5164   3.7552   3.9211
     6.6123   6.7395   8.4231   9.6040   9.9516

     occupation numbers 
     1.0000   1.0000   1.0000   1.0000   1.0000   1.0000   1.0000   1.0000
     1.0000   1.0000   1.0000   1.0000   1.0000   1.0000   1.0000   1.0000
     1.0275   0.9061  -0.0000  -0.0000  -0.0000

          k = 0.0000 0.6440-0.0677 ( 12143 PWs)   bands (ev):

   -49.8372 -26.2103 -25.7874 -25.7112 -11.2220  -9.3431  -8.8822  -0.1359
     0.8326   1.0143   2.5647   2.5845   2.8027   3.2222   3.9592   4.0280
     5.6315   8.7801   9.2457   9.3626  10.6651

     occupation numbers 
     1.0000   1.0000   1.0000   1.0000   1.0000   1.0000   1.0000   1.0000
     1.0000   1.0000   1.0000   1.0000   1.0000   1.0000   1.0000   1.0000
     1.0000  -0.0000  -0.0000  -0.0000  -0.0000

          k = 0.2496 0.8586-0.0677 ( 12173 PWs)   bands (ev):

   -49.8345 -26.2335 -25.7809 -25.7421 -10.9707  -9.1885  -8.9386  -0.6184
     0.9119   1.2206   1.9475   2.1449   2.9885   3.1515   3.3563   4.0375
     6.1032   8.7769   9.5850   9.5979  11.2016

     occupation numbers 
     1.0000   1.0000   1.0000   1.0000   1.0000   1.0000   1.0000   1.0000
     1.0000   1.0000   1.0000   1.0000   1.0000   1.0000   1.0000   1.0000
     1.0000  -0.0000  -0.0000  -0.0000  -0.0000

          k =-1.4974-0.6440-0.0677 ( 12172 PWs)   bands (ev):

   -49.8299 -26.2002 -25.8189 -25.7684 -11.1700  -8.9976  -8.9396  -0.0984
     1.2276   1.2957   1.7542   1.7795   2.3703   3.0315   3.5145   3.8699
     6.9692   8.8564   9.0528   9.1743  11.3098

     occupation numbers 
     1.0000   1.0000   1.0000   1.0000   1.0000   1.0000   1.0000   1.0000
     1.0000   1.0000   1.0000   1.0000   1.0000   1.0000   1.0000   1.0000
    -0.0335  -0.0000  -0.0000  -0.0000  -0.0000

          k =-1.2479-0.4293-0.0677 ( 12169 PWs)   bands (ev):

   -49.8259 -26.1299 -25.8964 -25.7571 -11.6436  -9.0021  -8.7675   0.9809
     1.1511   1.1967   1.3853   2.1659   2.7640   2.9148   3.7139   3.8454
     7.9297   7.9618   8.1806   9.2924  10.7429

     occupation numbers 
     1.0000   1.0000   1.0000   1.0000   1.0000   1.0000   1.0000   1.0000
     1.0000   1.0000   1.0000   1.0000   1.0000   1.0000   1.0000   1.0000
    -0.0000  -0.0000  -0.0000  -0.0000  -0.0000

          k =-0.9983-0.2147-0.0677 ( 12179 PWs)   bands (ev):

   -49.8249 -26.0627 -25.9298 -25.7538 -12.0833  -8.9691  -8.7687   0.7217
     1.2630   1.7163   2.0582   2.6871   2.8945   3.3646   3.8213   3.9300
     7.0292   7.1194   8.4379   9.7438  10.2311

     occupation numbers 
     1.0000   1.0000   1.0000   1.0000   1.0000   1.0000   1.0000   1.0000
     1.0000   1.0000   1.0000   1.0000   1.0000   1.0000   1.0000   1.0000
    -0.0249  -0.0037  -0.0000  -0.0000  -0.0000

          k =-0.7487 0.0000-0.0677 ( 12188 PWs)   bands (ev):

   -49.8276 -26.0382 -25.9000 -25.7604 -12.2773  -8.9665  -8.8963   1.0794
     1.5389   1.8239   2.0357   3.2075   3.3574   3.6103   3.6717   3.6873
     6.7991   6.8251   7.8093   9.7105  10.0512

     occupation numbers 
     1.0000   1.0000   1.0000   1.0000   1.0000   1.0000   1.0000   1.0000
     1.0000   1.0000   1.0000   1.0000   1.0000   1.0000   1.0000   1.0000
     0.6104   0.4498  -0.0000  -0.0000  -0.0000

          k = 0.0000 0.4293 0.0000 ( 12139 PWs)   bands (ev):

   -49.8384 -26.1461 -25.7898 -25.7133 -11.7390  -9.4297  -8.8430   0.7332
     1.1083   1.3867   2.5250   2.9080   3.3689   3.3966   3.8838   4.0427
     5.5816   8.4354   8.5376   8.7085  10.2289

     occupation numbers 
     1.0000   1.0000   1.0000   1.0000   1.0000   1.0000   1.0000   1.0000
     1.0000   1.0000   1.0000   1.0000   1.0000   1.0000   1.0000   1.0000
     1.0000  -0.0000  -0.0000  -0.0000  -0.0000

          k = 0.2496 0.6440 0.0000 ( 12153 PWs)   bands (ev):

   -49.8350 -26.2074 -25.7818 -25.7430 -11.2071  -9.2658  -8.8765  -0.1245
     1.0544   1.0647   2.0980   2.2294   3.1499   3.2027   3.5032   3.9369
     6.0600   8.7573   9.2434   9.2458  11.0180

     occupation numbers 
     1.0000   1.0000   1.0000   1.0000   1.0000   1.0000   1.0000   1.0000
     1.0000   1.0000   1.0000   1.0000   1.0000   1.0000   1.0000   1.0000
     1.0000  -0.0000  -0.0000  -0.0000  -0.0000

          k = 0.4991 0.8586 0.0000 ( 12181 PWs)   bands (ev):

   -49.8294 -26.2262 -25.8179 -25.7674 -10.9364  -8.9921  -8.9215  -0.5928
     1.1686   1.2313   1.7463   1.7815   2.1658   2.9726   3.5895   3.7335
     6.9390   8.9684   9.4029   9.5260  11.4567

     occupation numbers 
     1.0000   1.0000   1.0000   1.0000   1.0000   1.0000   1.0000   1.0000
     1.0000   1.0000   1.0000   1.0000   1.0000   1.0000   1.0000   1.0000
    -0.0109  -0.0000  -0.0000  -0.0000  -0.0000

          k =-1.2479-0.6440 0.0000 ( 12181 PWs)   bands (ev):

   -49.8247 -26.1931 -25.8938 -25.7548 -11.1335  -8.9492  -8.7623  -0.0679
     0.9084   1.1754   1.2594   1.9499   2.5459   2.6105   3.5070   3.7726
     7.9442   8.8530   9.0666   9.3684  11.1305

     occupation numbers 
     1.0000   1.0000   1.0000   1.0000   1.0000   1.0000   1.0000   1.0000
     1.0000   1.0000   1.0000   1.0000   1.0000   1.0000   1.0000   1.0000
    -0.0000  -0.0000  -0.0000  -0.0000  -0.0000

          k =-0.9983-0.4293 0.0000 ( 12173 PWs)   bands (ev):

   -49.8238 -26.1271 -25.9272 -25.7515 -11.6276  -8.9407  -8.7375   0.7806
     1.2189   1.2465   1.3648   2.0258   2.6689   2.7314   3.5787   4.0362
     7.8441   8.1200   8.4619   9.7576  10.8799

     occupation numbers 
     1.0000   1.0000   1.0000   1.0000   1.0000   1.0000   1.0000   1.0000
     1.0000   1.0000   1.0000   1.0000   1.0000   1.0000   1.0000   1.0000
    -0.0000  -0.0000  -0.0000  -0.0000  -0.0000

          k =-0.7487-0.2147 0.0000 ( 12171 PWs)   bands (ev):

   -49.8271 -26.0654 -25.8989 -25.7594 -12.1004  -8.9351  -8.9033   1.1191
     1.6344   1.6841   2.0093   2.5831   2.7228   3.0985   3.8491   4.0122
     7.0976   7.2325   7.8407   9.7202  10.5022

     occupation numbers 
     1.0000   1.0000   1.0000   1.0000   1.0000   1.0000   1.0000   1.0000
     1.0000   1.0000   1.0000   1.0000   1.0000   1.0000   1.0000   1.0000
    -0.0065  -0.0001  -0.0000  -0.0000  -0.0000

          k =-0.4991 0.0000 0.0000 ( 12159 PWs)   bands (ev):

   -49.8327 -26.0442 -25.8246 -25.7740 -12.3187  -9.2149  -8.8617   1.1964
     1.8905   2.1498   2.4045   3.0992   3.2595   3.4321   3.7566   3.9243
     6.7612   6.9646   7.0865   9.1836  10.1417

     occupation numbers 
     1.0000   1.0000   1.0000   1.0000   1.0000   1.0000   1.0000   1.0000
     1.0000   1.0000   1.0000   1.0000   1.0000   1.0000   1.0000   1.0000
     0.8168  -0.0318  -0.0085  -0.0000  -0.0000

          k = 0.9983 0.8586 0.2708 ( 12188 PWs)   bands (ev):

   -49.8221 -26.2158 -25.9234 -25.7482 -10.8865  -8.8999  -8.6925  -0.5563
     0.6381   0.8931   1.8082   1.8923   1.9043   2.5937   3.1831   3.9337
     8.4685   9.1876   9.3970   9.7077  11.3674

     occupation numbers 
     1.0000   1.0000   1.0000   1.0000   1.0000   1.0000   1.0000   1.0000
     1.0000   1.0000   1.0000   1.0000   1.0000   1.0000   1.0000   1.0000
    -0.0000  -0.0000  -0.0000  -0.0000  -0.0000

          k = 0.0000 0.0000 0.2708 ( 12121 PWs)   bands (ev):

   -49.8400 -26.0528 -25.7933 -25.7163 -12.3764  -9.4311  -8.9399   0.9153
     2.5532   2.5794   2.8114   3.1755   3.4064   3.5785   4.0330   4.1660
     5.5458   7.2175   7.4584   8.8204   9.6887

     occupation numbers 
     1.0000   1.0000   1.0000   1.0000   1.0000   1.0000   1.0000   1.0000
     1.0000   1.0000   1.0000   1.0000   1.0000   1.0000   1.0000   1.0000
     1.0000  -0.0001  -0.0000  -0.0000  -0.0000

          k = 0.0000-0.2147 0.3385 ( 12164 PWs)   bands (ev):

   -49.8396 -26.0805 -25.7923 -25.7154 -12.1978  -9.3629  -8.9914   1.0701
     2.1583   2.4285   2.6014   2.7747   3.2536   3.4541   3.9905   4.0865
     5.5651   7.6413   7.7320   8.8866  10.1502

     occupation numbers 
     1.0000   1.0000   1.0000   1.0000   1.0000   1.0000   1.0000   1.0000
     1.0000   1.0000   1.0000   1.0000   1.0000   1.0000   1.0000   1.0000
     1.0000  -0.0000  -0.0000  -0.0000  -0.0000

          k = 0.2496 0.0000 0.3385 ( 12138 PWs)   bands (ev):

   -49.8379 -26.0503 -25.7877 -25.7482 -12.3590  -9.3220  -8.9705   1.1456
     2.1101   2.5776   2.8439   2.9608   3.3156   3.6536   3.9104   3.9274
     6.0366   7.0890   7.3980   8.7123   9.9456

     occupation numbers 
     1.0000   1.0000   1.0000   1.0000   1.0000   1.0000   1.0000   1.0000
     1.0000   1.0000   1.0000   1.0000   1.0000   1.0000   1.0000   1.0000
     1.0000  -0.0080  -0.0000  -0.0000  -0.0000

          k =-1.9966-0.4293-0.1354 ( 12189 PWs)   bands (ev):

   -49.8384 -26.1461 -25.7899 -25.7133 -11.7372  -9.2622  -9.0377   0.9834
     1.2739   1.6911   2.3283   2.6459   2.8955   3.1208   3.8392   4.3105
     5.6098   8.4243   8.5351   8.9224  10.7404

     occupation numbers 
     1.0000   1.0000   1.0000   1.0000   1.0000   1.0000   1.0000   1.0000
     1.0000   1.0000   1.0000   1.0000   1.0000   1.0000   1.0000   1.0000
     1.0000  -0.0000  -0.0000  -0.0000  -0.0000

          k =-1.7470-0.2147-0.1354 ( 12147 PWs)   bands (ev):

   -49.8374 -26.0779 -25.7867 -25.7473 -12.1808  -9.2572  -9.0151   1.2865
     1.9233   2.3516   2.4524   2.7758   3.0848   3.3918   3.6982   4.1394
     6.0667   7.5071   7.6702   8.7509  10.3602

     occupation numbers 
     1.0000   1.0000   1.0000   1.0000   1.0000   1.0000   1.0000   1.0000
     1.0000   1.0000   1.0000   1.0000   1.0000   1.0000   1.0000   1.0000
     1.0000  -0.0000  -0.0000  -0.0000  -0.0000

          k =-1.4974 0.0000-0.1354 ( 12156 PWs)   bands (ev):

   -49.8327 -26.0442 -25.8246 -25.7741 -12.3178  -9.1654  -8.9129   1.1776
     1.5867   2.0920   2.6133   2.9431   3.5758   3.6336   3.7953   3.8944
     6.8462   6.9346   7.1176   8.7516   9.9389

     occupation numbers 
     1.0000   1.0000   1.0000   1.0000   1.0000   1.0000   1.0000   1.0000
     1.0000   1.0000   1.0000   1.0000   1.0000   1.0000   1.0000   1.0000
     0.3228  -0.0048  -0.0038  -0.0000  -0.0000

          k = 0.0000 1.0733-0.0677 ( 12170 PWs)   bands (ev):

   -49.8372 -26.2103 -25.7875 -25.7112 -11.2208  -9.2114  -9.0307  -0.1396
     1.0094   1.2554   2.3736   2.5622   2.6580   2.8984   3.8329   4.2944
     5.6470   8.9058   9.2222   9.3608  10.9450

     occupation numbers 
     1.0000   1.0000   1.0000   1.0000   1.0000   1.0000   1.0000   1.0000
     1.0000   1.0000   1.0000   1.0000   1.0000   1.0000   1.0000   1.0000
     1.0000  -0.0000  -0.0000  -0.0000  -0.0000

          k =-1.7470-0.4293-0.0677 ( 12175 PWs)   bands (ev):

   -49.8362 -26.1434 -25.7843 -25.7451 -11.7210  -9.1582  -9.0565   1.0335
     1.4388   1.6987   1.9088   2.4794   2.9683   3.2252   3.3340   4.3027
     6.1031   8.3579   8.4120   8.8170  10.9393

     occupation numbers 
     1.0000   1.0000   1.0000   1.0000   1.0000   1.0000   1.0000   1.0000
     1.0000   1.0000   1.0000   1.0000   1.0000   1.0000   1.0000   1.0000
     1.0000  -0.0000  -0.0000  -0.0000  -0.0000

          k =-1.4974-0.2147-0.0677 ( 12154 PWs)   bands (ev):

   -49.8323 -26.0716 -25.8237 -25.7731 -12.1403  -9.1346  -8.9195   1.2162
     1.5275   1.9765   2.4442   2.5446   3.1170   3.3097   3.7206   4.1294
     6.9682   7.2436   7.4592   8.7347  10.3136

     occupation numbers 
     1.0000   1.0000   1.0000   1.0000   1.0000   1.0000   1.0000   1.0000
     1.0000   1.0000   1.0000   1.0000   1.0000   1.0000   1.0000   1.0000
    -0.0332  -0.0000  -0.0000  -0.0000  -0.0000

          k =-1.2479 0.0000-0.0677 ( 12165 PWs)   bands (ev):

   -49.8276 -26.0382 -25.9000 -25.7604 -12.2768  -9.0650  -8.7867   0.8973
     1.0374   2.0156   2.3837   3.1023   3.5655   3.6467   3.8278   3.9022
     6.7086   6.7600   7.9309   9.2071   9.7306

     occupation numbers 
     1.0000   1.0000   1.0000   1.0000   1.0000   1.0000   1.0000   1.0000
     1.0000   1.0000   1.0000   1.0000   1.0000   1.0000   1.0000   1.0000
     0.9893   0.8225  -0.0000  -0.0000  -0.0000

          k = 0.0000 0.8586 0.0000 ( 12151 PWs)   bands (ev):

   -49.8367 -26.2365 -25.7864 -25.7103 -10.9847  -9.2668  -8.9461  -0.6290
     0.8439   1.0080   2.4369   2.6304   2.7281   2.7866   3.8934   4.1804
     5.6542   8.8469   9.5953   9.6998  10.8751

     occupation numbers 
     1.0000   1.0000   1.0000   1.0000   1.0000   1.0000   1.0000   1.0000
     1.0000   1.0000   1.0000   1.0000   1.0000   1.0000   1.0000   1.0000
     1.0000  -0.0000  -0.0000  -0.0000  -0.0000

          k = 0.2496 1.0733 0.0000 ( 12164 PWs)   bands (ev):

   -49.8350 -26.2074 -25.7819 -25.7430 -11.2059  -9.1272  -9.0278  -0.1278
     1.1485   1.3054   2.0017   2.1451   3.0145   3.1078   3.2342   4.2041
     6.1171   8.7555   9.2445   9.2541  11.1924

     occupation numbers 
     1.0000   1.0000   1.0000   1.0000   1.0000   1.0000   1.0000   1.0000
     1.0000   1.0000   1.0000   1.0000   1.0000   1.0000   1.0000   1.0000
     1.0000  -0.0000  -0.0000  -0.0000  -0.0000

          k =-1.4974-0.4293 0.0000 ( 12157 PWs)   bands (ev):

   -49.8311 -26.1366 -25.8213 -25.7708 -11.6824  -9.0705  -8.9249   1.0851
     1.2639   1.5915   1.7565   2.0223   2.7045   3.1170   3.5658   4.0746
     6.9840   8.1600   8.2859   8.8052  10.9216

     occupation numbers 
     1.0000   1.0000   1.0000   1.0000   1.0000   1.0000   1.0000   1.0000
     1.0000   1.0000   1.0000   1.0000   1.0000   1.0000   1.0000   1.0000
    -0.0355  -0.0000  -0.0000  -0.0000  -0.0000

          k =-1.2479-0.2147 0.0000 ( 12169 PWs)   bands (ev):

   -49.8271 -26.0654 -25.8989 -25.7595 -12.0999  -9.0499  -8.7774   0.9276
     1.0528   1.7834   2.3460   2.6380   3.0583   3.4142   3.8270   3.9413
     7.0634   7.2174   7.9474   9.2126  10.1073

     occupation numbers 
     1.0000   1.0000   1.0000   1.0000   1.0000   1.0000   1.0000   1.0000
     1.0000   1.0000   1.0000   1.0000   1.0000   1.0000   1.0000   1.0000
    -0.0140  -0.0001  -0.0000  -0.0000  -0.0000

          k =-0.9983 0.0000 0.0000 ( 12191 PWs)   bands (ev):

   -49.8254 -26.0356 -25.9309 -25.7547 -12.2600  -8.9807  -8.7815   0.7001
     1.2077   1.9213   2.0992   3.3070   3.4130   3.5355   3.7212   3.9207
     6.6198   6.7319   8.4264   9.7630   9.7842

     occupation numbers 
     1.0000   1.0000   1.0000   1.0000   1.0000   1.0000   1.0000   1.0000
     1.0000   1.0000   1.0000   1.0000   1.0000   1.0000   1.0000   1.0000
     1.0298   0.9310  -0.0000  -0.0000  -0.0000

          k = 0.0000 0.0000 0.4061 ( 12117 PWs)   bands (ev):

   -49.8400 -26.0528 -25.7933 -25.7163 -12.3757  -9.3321  -9.0538   1.2332
     2.3112   2.6315   2.7897   3.3073   3.3486   3.4028   3.8812   4.0905
     5.5545   7.2179   7.5284   8.9445   9.8697

     occupation numbers 
     1.0000   1.0000   1.0000   1.0000   1.0000   1.0000   1.0000   1.0000
     1.0000   1.0000   1.0000   1.0000   1.0000   1.0000   1.0000   1.0000
     1.0000  -0.0001  -0.0000  -0.0000  -0.0000

          k =-1.9966-0.2147-0.0677 ( 12164 PWs)   bands (ev):

   -49.8396 -26.0805 -25.7923 -25.7154 -12.1972  -9.2553  -9.1096   1.3466
     2.1530   2.4087   2.4889   2.6621   3.2235   3.3870   3.9220   4.0887
     5.5732   7.6411   7.7672   8.9744  10.3079

     occupation numbers 
     1.0000   1.0000   1.0000   1.0000   1.0000   1.0000   1.0000   1.0000
     1.0000   1.0000   1.0000   1.0000   1.0000   1.0000   1.0000   1.0000
     1.0000  -0.0000  -0.0000  -0.0000  -0.0000

          k =-1.7470 0.0000-0.0677 ( 12142 PWs)   bands (ev):

   -49.8379 -26.0503 -25.7877 -25.7482 -12.3585  -9.2404  -9.0600   1.4406
     1.8072   2.6747   2.8228   2.8626   3.4421   3.6532   3.8033   3.8431
     6.0721   7.0805   7.4324   8.7493   9.9707

     occupation numbers 
     1.0000   1.0000   1.0000   1.0000   1.0000   1.0000   1.0000   1.0000
     1.0000   1.0000   1.0000   1.0000   1.0000   1.0000   1.0000   1.0000
     1.0000  -0.0098  -0.0000  -0.0000  -0.0000

          k = 0.0000 1.2879 0.0000 ( 12185 PWs)   bands (ev):

   -49.8384 -26.1461 -25.7899 -25.7133 -11.7369  -9.1622  -9.1424   1.0040
     1.4264   1.6445   2.2642   2.6721   2.8910   2.9759   3.8020   4.3646
     5.6140   8.4316   8.5350   8.9586  10.8169

     occupation numbers 
     1.0000   1.0000   1.0000   1.0000   1.0000   1.0000   1.0000   1.0000
     1.0000   1.0000   1.0000   1.0000   1.0000   1.0000   1.0000   1.0000
     1.0000  -0.0000  -0.0000  -0.0000  -0.0000

          k =-1.7470-0.2147 0.0000 ( 12152 PWs)   bands (ev):

   -49.8374 -26.0779 -25.7867 -25.7473 -12.1805  -9.1944  -9.0820   1.5032
     1.7131   2.4020   2.4234   2.7827   3.0754   3.3560   3.6592   4.1450
     6.0866   7.5053   7.6768   8.7730  10.3826

     occupation numbers 
     1.0000   1.0000   1.0000   1.0000   1.0000   1.0000   1.0000   1.0000
     1.0000   1.0000   1.0000   1.0000   1.0000   1.0000   1.0000   1.0000
     1.0000  -0.0000  -0.0000  -0.0000  -0.0000

          k =-1.4974 0.0000 0.0000 ( 12179 PWs)   bands (ev):

   -49.8327 -26.0442 -25.8246 -25.7741 -12.3176  -9.1546  -8.9239   1.1997
     1.4970   2.1181   2.6299   2.9282   3.6762   3.6840   3.7074   3.9043
     6.8299   6.9729   7.1190   8.6840   9.8943

     occupation numbers 
     1.0000   1.0000   1.0000   1.0000   1.0000   1.0000   1.0000   1.0000
     1.0000   1.0000   1.0000   1.0000   1.0000   1.0000   1.0000   1.0000
     0.4202  -0.0344  -0.0037  -0.0000  -0.0000

          k =-1.9966-1.7173-0.5415 ( 12132 PWs)   bands (ev):

   -49.8401 -26.0528 -25.7933 -25.7163 -12.3753  -9.2461  -9.1459   1.4546
     2.0943   2.6701   2.7826   3.3170   3.3513   3.3825   3.7965   4.0614
     5.5549   7.2180   7.5571   8.9959   9.9356

     occupation numbers 
     1.0000   1.0000   1.0000   1.0000   1.0000   1.0000   1.0000   1.0000
     1.0000   1.0000   1.0000   1.0000   1.0000   1.0000   1.0000   1.0000
     1.0000  -0.0001  -0.0000  -0.0000  -0.0000

     the Fermi energy is     6.8170 ev

!    total energy              =    -534.96653533 Ry

     total all-electron energy =     -9636.856778 Ry
     estimated scf accuracy    <          6.8E-11 Ry
     smearing contrib. (-TS)   =      -0.00015674 Ry
     internal energy E=F+TS    =    -534.96637859 Ry

     The total energy is F=E-TS. E is the sum of the following terms:
     one-electron contribution =     -93.95638283 Ry
     hartree contribution      =      61.22423609 Ry
     xc contribution           =     -39.53479342 Ry
     ewald contribution        =    -135.48921389 Ry
     one-center paw contrib.   =    -327.21022455 Ry
      -> PAW hartree energy AE =      29.07599429 Ry
      -> PAW hartree energy PS =     -29.04593451 Ry
      -> PAW xc energy AE      =     -17.03565403 Ry
      -> PAW xc energy PS      =       7.41151626 Ry
      -> total E_H with PAW    =      61.25429587 Ry
      -> total E_XC with PAW   =     -49.15893119 Ry

     convergence has been achieved in  12 iterations

     Forces acting on atoms (cartesian axes, Ry/au):

     atom    1 type  1   force =     0.00000000    0.00000000    0.00000000
     atom    2 type  2   force =    -0.00000000   -0.00000000    0.03669777
     atom    3 type  2   force =     0.00000000    0.00000000   -0.03669777
     atom    4 type  3   force =    -0.00000000   -0.00000000    0.00000000
     The non-local contrib.  to forces
     atom    1 type  1   force =     0.00000000    0.00000000    0.00000000
     atom    2 type  2   force =    -0.00000000   -0.00000000    0.06287820
     atom    3 type  2   force =     0.00000000    0.00000000   -0.06287820
     atom    4 type  3   force =     0.00000000    0.00000000    0.00000000
     The ionic contribution  to forces
     atom    1 type  1   force =    -0.00000000   -0.00000000    0.00000000
     atom    2 type  2   force =     0.00000001    0.00000000  -10.07462875
     atom    3 type  2   force =    -0.00000001   -0.00000000   10.07462875
     atom    4 type  3   force =    -0.00000000   -0.00000000    0.00000000
     The local contribution  to forces
     atom    1 type  1   force =     0.00000000    0.00000000    0.00000000
     atom    2 type  2   force =     0.00000002   -0.00000003   10.04689421
     atom    3 type  2   force =    -0.00000002    0.00000003  -10.04689421
     atom    4 type  3   force =     0.00000000    0.00000000    0.00000000
     The core correction contribution to forces
     atom    1 type  1   force =     0.00000000    0.00000000    0.00000000
     atom    2 type  2   force =    -0.00000000    0.00000000    0.00155202
     atom    3 type  2   force =     0.00000000   -0.00000000   -0.00155202
     atom    4 type  3   force =     0.00000000    0.00000000    0.00000000
     The Hubbard contrib.    to forces
     atom    1 type  1   force =     0.00000000    0.00000000    0.00000000
     atom    2 type  2   force =     0.00000000    0.00000000    0.00000000
     atom    3 type  2   force =     0.00000000    0.00000000    0.00000000
     atom    4 type  3   force =     0.00000000    0.00000000    0.00000000
     The SCF correction term to forces
     atom    1 type  1   force =    -0.00000000   -0.00000000    0.00000000
     atom    2 type  2   force =    -0.00000000    0.00000000    0.00000210
     atom    3 type  2   force =     0.00000000   -0.00000000   -0.00000210
     atom    4 type  3   force =    -0.00000000   -0.00000000   -0.00000000

     Total force =     0.051898     Total SCF correction =     0.000003


     Computing stress (Cartesian axis) and pressure

          total   stress  (Ry/bohr**3)                   (kbar)     P=      -39.23
  -0.00026337  -0.00000000  -0.00000000          -38.74       -0.00       -0.00
  -0.00000000  -0.00026248   0.00000000           -0.00      -38.61        0.00
   0.00000000  -0.00000000  -0.00027425            0.00       -0.00      -40.34

     kinetic stress (kbar)  14744.06     -0.00     -0.00
                               -0.00  14848.45     -0.00
                               -0.00     -0.00  14758.21

     local   stress (kbar) -18878.60     -0.00      0.00
                               -0.00 -24252.09      0.00
                                0.00      0.00   4123.71

     nonloc. stress (kbar)   8011.16      0.00      0.00
                                0.00   7930.77      0.00
                                0.00      0.00   8005.37

     hartree stress (kbar)   8370.13     -0.00     -0.00
                               -0.00  10126.20      0.00
                               -0.00      0.00  -2059.24

     exc-cor stress (kbar)  -1131.07     -0.00     -0.00
                               -0.00  -1121.13     -0.00
                               -0.00     -0.00  -1130.55

     corecor stress (kbar)  -2029.29     -0.00      0.00
                               -0.00  -2029.37      0.00
                                0.00      0.00  -2029.14

     ewald   stress (kbar)  -9125.13      0.00     -0.00
                                0.00  -5541.44     -0.00
                               -0.00     -0.00 -21708.70

     hubbard stress (kbar)      0.00      0.00      0.00
                                0.00      0.00      0.00
                                0.00      0.00      0.00

     DFT-D   stress (kbar)      0.00      0.00      0.00
                                0.00      0.00      0.00
                                0.00      0.00      0.00

     XDM     stress (kbar)      0.00      0.00      0.00
                                0.00      0.00      0.00
                                0.00      0.00      0.00

     dft-nl  stress (kbar)      0.00      0.00      0.00
                                0.00      0.00      0.00
                                0.00      0.00      0.00

     TS-vdW  stress (kbar)      0.00      0.00      0.00
                                0.00      0.00      0.00
                                0.00      0.00      0.00



     Writing output data file /zfs_data/gutierre/Scratch/Cl2NbO/smearing/8x8x8/0.010/tmp/Cl2NbO.save/
 
     init_run     :      2.99s CPU      3.12s WALL (       1 calls)
     electrons    :     59.49s CPU     61.13s WALL (       1 calls)
     forces       :      0.78s CPU      0.78s WALL (       1 calls)
     stress       :      1.77s CPU      1.78s WALL (       1 calls)

     Called by init_run:
     wfcinit      :      1.78s CPU      1.85s WALL (       1 calls)
     wfcinit:atom :      0.01s CPU      0.01s WALL (      95 calls)
     wfcinit:wfcr :      1.71s CPU      1.77s WALL (      95 calls)
     potinit      :      0.37s CPU      0.39s WALL (       1 calls)
     hinit0       :      0.48s CPU      0.49s WALL (       1 calls)

     Called by electrons:
     c_bands      :     45.92s CPU     47.20s WALL (      12 calls)
     sum_band     :     10.61s CPU     10.90s WALL (      12 calls)
     v_of_rho     :      1.17s CPU      1.20s WALL (      13 calls)
     v_h          :      0.09s CPU      0.10s WALL (      13 calls)
     v_xc         :      1.24s CPU      1.27s WALL (      15 calls)
     newd         :      1.00s CPU      1.02s WALL (      13 calls)
     PAW_pot      :      0.67s CPU      0.69s WALL (      13 calls)
     mix_rho      :      0.17s CPU      0.17s WALL (      12 calls)

     Called by c_bands:
     init_us_2    :      0.62s CPU      0.65s WALL (    2565 calls)
     cegterg      :     44.61s CPU     45.80s WALL (    1140 calls)

     Called by sum_band:
     sum_band:wei :      0.04s CPU      0.04s WALL (      12 calls)
     sum_band:loo :      9.42s CPU      9.67s WALL (      12 calls)
     sum_band:buf :      0.09s CPU      0.09s WALL (    1140 calls)
     sum_band:ini :      0.30s CPU      0.30s WALL (    1140 calls)
     sum_band:cal :      0.34s CPU      0.34s WALL (    1140 calls)
     sum_band:bec :      0.03s CPU      0.03s WALL (    1140 calls)
     addusdens    :      0.98s CPU      1.02s WALL (      12 calls)
     addusd:skk   :      0.01s CPU      0.01s WALL (      36 calls)
     addusd:dgemm :      0.29s CPU      0.32s WALL (      36 calls)
     addusd:qvan2 :      0.64s CPU      0.64s WALL (      36 calls)

     Called by *egterg:
     cdiaghg      :      2.39s CPU      2.53s WALL (    4202 calls)
     cegterg:over :      0.89s CPU      0.91s WALL (    3062 calls)
     cegterg:upda :      0.26s CPU      0.27s WALL (    3062 calls)
     cegterg:last :      0.43s CPU      0.43s WALL (    2274 calls)
     h_psi        :     41.15s CPU     42.21s WALL (    4297 calls)
     s_psi        :      0.29s CPU      0.30s WALL (    4297 calls)
     g_psi        :      0.05s CPU      0.06s WALL (    3062 calls)

     Called by h_psi:
     h_psi:calbec :      1.06s CPU      1.09s WALL (    4297 calls)
     vloc_psi     :     39.49s CPU     40.51s WALL (    4297 calls)
     add_vuspsi   :      0.44s CPU      0.46s WALL (    4297 calls)

     General routines
     calbec       :      1.44s CPU      1.48s WALL (    5912 calls)
     fft          :      1.01s CPU      1.03s WALL (     192 calls)
     ffts         :      0.02s CPU      0.02s WALL (      25 calls)
     fftw         :     43.28s CPU     44.45s WALL (  146056 calls)
     interpolate  :      0.09s CPU      0.09s WALL (      13 calls)
 
     Parallel routines
     fft_scatt_xy :      5.78s CPU      5.92s WALL (  146273 calls)
     fft_scatt_yz :     19.82s CPU     20.33s WALL (  146273 calls)

     PAW routines
     PAW_pot      :      0.67s CPU      0.69s WALL (      13 calls)
     PAW_symme    :      0.02s CPU      0.02s WALL (      25 calls)
 
     PWSCF        :   1m 5.81s CPU   1m 8.67s WALL

 
   This run was terminated on:  17:51:40  18May2022            

=------------------------------------------------------------------------------=
   JOB DONE.
=------------------------------------------------------------------------------=
