MPI startup(): Warning: I_MPI_PMI_LIBRARY will be ignored since the hydra process manager was found
MPI startup(): Warning: I_MPI_PMI_LIBRARY will be ignored since the hydra process manager was found
MPI startup(): Warning: I_MPI_PMI_LIBRARY will be ignored since the hydra process manager was found
MPI startup(): Warning: I_MPI_PMI_LIBRARY will be ignored since the hydra process manager was found
MPI startup(): Warning: I_MPI_PMI_LIBRARY will be ignored since the hydra process manager was found
MPI startup(): Warning: I_MPI_PMI_LIBRARY will be ignored since the hydra process manager was found
MPI startup(): Warning: I_MPI_PMI_LIBRARY will be ignored since the hydra process manager was found
MPI startup(): Warning: I_MPI_PMI_LIBRARY will be ignored since the hydra process manager was found
MPI startup(): Warning: I_MPI_PMI_LIBRARY will be ignored since the hydra process manager was found
MPI startup(): Warning: I_MPI_PMI_LIBRARY will be ignored since the hydra process manager was found
MPI startup(): Warning: I_MPI_PMI_LIBRARY will be ignored since the hydra process manager was found
MPI startup(): Warning: I_MPI_PMI_LIBRARY will be ignored since the hydra process manager was found
MPI startup(): Warning: I_MPI_PMI_LIBRARY will be ignored since the hydra process manager was found
MPI startup(): Warning: I_MPI_PMI_LIBRARY will be ignored since the hydra process manager was found
MPI startup(): Warning: I_MPI_PMI_LIBRARY will be ignored since the hydra process manager was found
MPI startup(): Warning: I_MPI_PMI_LIBRARY will be ignored since the hydra process manager was found
MPI startup(): Warning: I_MPI_PMI_LIBRARY will be ignored since the hydra process manager was found
MPI startup(): Warning: I_MPI_PMI_LIBRARY will be ignored since the hydra process manager was found
MPI startup(): Warning: I_MPI_PMI_LIBRARY will be ignored since the hydra process manager was found
MPI startup(): Warning: I_MPI_PMI_LIBRARY will be ignored since the hydra process manager was found
MPI startup(): Warning: I_MPI_PMI_LIBRARY will be ignored since the hydra process manager was found
MPI startup(): Warning: I_MPI_PMI_LIBRARY will be ignored since the hydra process manager was found
MPI startup(): Warning: I_MPI_PMI_LIBRARY will be ignored since the hydra process manager was found
MPI startup(): Warning: I_MPI_PMI_LIBRARY will be ignored since the hydra process manager was found

     Program PWSCF v.6.7MaX starts on  1Aug2021 at 12:44:51 

     This program is part of the open-source Quantum ESPRESSO suite
     for quantum simulation of materials; please cite
         "P. Giannozzi et al., J. Phys.:Condens. Matter 21 395502 (2009);
         "P. Giannozzi et al., J. Phys.:Condens. Matter 29 465901 (2017);
          URL http://www.quantum-espresso.org", 
     in publications or presentations arising from this work. More details at
     http://www.quantum-espresso.org/quote

     Parallel version (MPI), running on    24 processors

     MPI processes distributed on     1 nodes
     R & G space division:  proc/nbgrp/npool/nimage =      24
     Waiting for input...
     Reading input from standard input

     Current dimensions of program PWSCF are:
     Max number of different atomic species (ntypx) = 10
     Max number of k-points (npk) =  40000
     Max angular momentum in pseudopotentials (lmaxx) =  3
     file Cr.rel-pbe-spn-kjpaw_psl.1.0.0.UPF: wavefunction(s)  3S 3P 3P 3D 3D renormalized
     file Si.rel-pbe-n-kjpaw_psl.1.0.0.UPF: wavefunction(s)  3S 3P 3P renormalized

     Subspace diagonalization in iterative solution of the eigenvalue problem:
     a serial algorithm will be used

     Message from routine setup:
     using ibrav=0 with symmetry is DISCOURAGED, use correct ibrav instead
 
     Parallelization info
     --------------------
     sticks:   dense  smooth     PW     G-vecs:    dense   smooth      PW
     Min         228      91     25                12702     3210     487
     Max         229      93     26                12704     3214     492
     Sum        5473    2201    621               304867    77053   11753
 


     bravais-lattice index     =            0
     lattice parameter (alat)  =       8.7475  a.u.
     unit-cell volume          =     669.3575 (a.u.)^3
     number of atoms/cell      =            8
     number of atomic types    =            2
     number of electrons       =        72.00
     number of Kohn-Sham states=           86
     kinetic-energy cutoff     =      90.0000  Ry
     charge density cutoff     =     900.0000  Ry
     scf convergence threshold =      1.0E-06
     mixing beta               =       0.7000
     number of iterations used =            8  plain     mixing
     Exchange-correlation= SLA  PW   PBX  PBC
                           (   1   4   3   4   0   0   0)
     Non magnetic calculation with spin-orbit


     celldm(1)=   8.747542  celldm(2)=   0.000000  celldm(3)=   0.000000
     celldm(4)=   0.000000  celldm(5)=   0.000000  celldm(6)=   0.000000

     crystal axes: (cart. coord. in units of alat)
               a(1) = (   1.000000   0.000000   0.000000 )  
               a(2) = (   0.000000   1.000000   0.000000 )  
               a(3) = (   0.000000   0.000000   1.000000 )  

     reciprocal axes: (cart. coord. in units 2 pi/alat)
               b(1) = (  1.000000  0.000000  0.000000 )  
               b(2) = (  0.000000  1.000000  0.000000 )  
               b(3) = (  0.000000  0.000000  1.000000 )  


     PseudoPot. # 1 for Cr read from file:
     ../../../../pseudo/Cr.rel-pbe-spn-kjpaw_psl.1.0.0.UPF
     MD5 check sum: 1e24e2b5251376a8b945118fca0c7981
     Pseudo is Projector augmented-wave + core cor, Zval = 14.0
     Generated using &quot;atomic&quot; code by A. Dal Corso  v.6.3
     Shape of augmentation charge: PSQ
     Using radial grid of 1183 points, 10 beta functions with: 
                l(1) =   0
                l(2) =   0
                l(3) =   1
                l(4) =   1
                l(5) =   1
                l(6) =   1
                l(7) =   2
                l(8) =   2
                l(9) =   2
               l(10) =   2
     Q(r) pseudized with 0 coefficients 


     PseudoPot. # 2 for Si read from file:
     ../../../../pseudo/Si.rel-pbe-n-kjpaw_psl.1.0.0.UPF
     MD5 check sum: d74f6caf6830ea4c2076867160cab1b0
     Pseudo is Projector augmented-wave + core cor, Zval =  4.0
     Generated using &quot;atomic&quot; code by A. Dal Corso  v.6.3
     Shape of augmentation charge: PSQ
     Using radial grid of 1141 points, 10 beta functions with: 
                l(1) =   0
                l(2) =   0
                l(3) =   1
                l(4) =   1
                l(5) =   1
                l(6) =   1
                l(7) =   2
                l(8) =   2
                l(9) =   2
               l(10) =   2
     Q(r) pseudized with 0 coefficients 


     atomic species   valence    mass     pseudopotential
        Cr            14.00    51.99600     Cr( 1.00)
        Si             4.00    28.08500     Si( 1.00)

     12 Sym. Ops. (no inversion) found ( 9 have fractional translation)


                                    s                        frac. trans.

      isym =  1     identity                                     

 cryst.   s( 1) = (     1          0          0      )
                  (     0          1          0      )
                  (     0          0          1      )

 cart.    s( 1) = (  1.0000000  0.0000000  0.0000000 )
                  (  0.0000000  1.0000000  0.0000000 )
                  (  0.0000000  0.0000000  1.0000000 )


      isym =  2     180 deg rotation - cart. axis [0,0,1]        

 cryst.   s( 2) = (    -1          0          0      )    f =(  0.5000000 )
                  (     0         -1          0      )       (  0.0000000 )
                  (     0          0          1      )       ( -0.5000000 )

 cart.    s( 2) = ( -1.0000000  0.0000000  0.0000000 )    f =(  0.5000000 )
                  (  0.0000000 -1.0000000  0.0000000 )       (  0.0000000 )
                  (  0.0000000  0.0000000  1.0000000 )       ( -0.5000000 )


      isym =  3     180 deg rotation - cart. axis [0,1,0]        

 cryst.   s( 3) = (    -1          0          0      )    f =(  0.0000000 )
                  (     0          1          0      )       ( -0.5000000 )
                  (     0          0         -1      )       (  0.5000000 )

 cart.    s( 3) = ( -1.0000000  0.0000000  0.0000000 )    f =(  0.0000000 )
                  (  0.0000000  1.0000000  0.0000000 )       ( -0.5000000 )
                  (  0.0000000  0.0000000 -1.0000000 )       (  0.5000000 )


      isym =  4     180 deg rotation - cart. axis [1,0,0]        

 cryst.   s( 4) = (     1          0          0      )    f =(  0.5000000 )
                  (     0         -1          0      )       (  0.5000000 )
                  (     0          0         -1      )       (  0.0000000 )

 cart.    s( 4) = (  1.0000000  0.0000000  0.0000000 )    f =(  0.5000000 )
                  (  0.0000000 -1.0000000  0.0000000 )       (  0.5000000 )
                  (  0.0000000  0.0000000 -1.0000000 )       (  0.0000000 )


      isym =  5     120 deg rotation - cart. axis [-1,-1,-1]     

 cryst.   s( 5) = (     0          0          1      )
                  (     1          0          0      )
                  (     0          1          0      )

 cart.    s( 5) = (  0.0000000  1.0000000  0.0000000 )
                  (  0.0000000  0.0000000  1.0000000 )
                  (  1.0000000  0.0000000  0.0000000 )


      isym =  6     120 deg rotation - cart. axis [-1,1,1]       

 cryst.   s( 6) = (     0          0         -1      )    f =(  0.0000000 )
                  (    -1          0          0      )       ( -0.5000000 )
                  (     0          1          0      )       (  0.5000000 )

 cart.    s( 6) = (  0.0000000 -1.0000000  0.0000000 )    f =(  0.0000000 )
                  (  0.0000000  0.0000000  1.0000000 )       ( -0.5000000 )
                  ( -1.0000000  0.0000000  0.0000000 )       (  0.5000000 )


      isym =  7     120 deg rotation - cart. axis [1,1,-1]       

 cryst.   s( 7) = (     0          0         -1      )    f =(  0.5000000 )
                  (     1          0          0      )       (  0.5000000 )
                  (     0         -1          0      )       (  0.0000000 )

 cart.    s( 7) = (  0.0000000  1.0000000  0.0000000 )    f =(  0.5000000 )
                  (  0.0000000  0.0000000 -1.0000000 )       (  0.5000000 )
                  ( -1.0000000  0.0000000  0.0000000 )       (  0.0000000 )


      isym =  8     120 deg rotation - cart. axis [1,-1,1]       

 cryst.   s( 8) = (     0          0          1      )    f =(  0.5000000 )
                  (    -1          0          0      )       (  0.0000000 )
                  (     0         -1          0      )       ( -0.5000000 )

 cart.    s( 8) = (  0.0000000 -1.0000000  0.0000000 )    f =(  0.5000000 )
                  (  0.0000000  0.0000000 -1.0000000 )       (  0.0000000 )
                  (  1.0000000  0.0000000  0.0000000 )       ( -0.5000000 )


      isym =  9     120 deg rotation - cart. axis [1,1,1]        

 cryst.   s( 9) = (     0          1          0      )
                  (     0          0          1      )
                  (     1          0          0      )

 cart.    s( 9) = (  0.0000000  0.0000000  1.0000000 )
                  (  1.0000000  0.0000000  0.0000000 )
                  (  0.0000000  1.0000000  0.0000000 )


      isym = 10     120 deg rotation - cart. axis [-1,1,-1]      

 cryst.   s(10) = (     0         -1          0      )    f =(  0.5000000 )
                  (     0          0         -1      )       (  0.5000000 )
                  (     1          0          0      )       (  0.0000000 )

 cart.    s(10) = (  0.0000000  0.0000000  1.0000000 )    f =(  0.5000000 )
                  ( -1.0000000  0.0000000  0.0000000 )       (  0.5000000 )
                  (  0.0000000 -1.0000000  0.0000000 )       (  0.0000000 )


      isym = 11     120 deg rotation - cart. axis [1,-1,-1]      

 cryst.   s(11) = (     0         -1          0      )    f =(  0.5000000 )
                  (     0          0          1      )       (  0.0000000 )
                  (    -1          0          0      )       ( -0.5000000 )

 cart.    s(11) = (  0.0000000  0.0000000 -1.0000000 )    f =(  0.5000000 )
                  ( -1.0000000  0.0000000  0.0000000 )       (  0.0000000 )
                  (  0.0000000  1.0000000  0.0000000 )       ( -0.5000000 )


      isym = 12     120 deg rotation - cart. axis [-1,-1,1]      

 cryst.   s(12) = (     0          1          0      )    f =(  0.0000000 )
                  (     0          0         -1      )       ( -0.5000000 )
                  (    -1          0          0      )       (  0.5000000 )

 cart.    s(12) = (  0.0000000  0.0000000 -1.0000000 )    f =(  0.0000000 )
                  (  1.0000000  0.0000000  0.0000000 )       ( -0.5000000 )
                  (  0.0000000 -1.0000000  0.0000000 )       (  0.5000000 )


   Cartesian axes

     site n.     atom                  positions (alat units)
         1           Cr  tau(   1) = (   0.8640000   0.3640000   0.1360000  )
         2           Cr  tau(   2) = (   0.3640000   0.1360000   0.8640000  )
         3           Cr  tau(   3) = (   0.1360000   0.8640000   0.3640000  )
         4           Cr  tau(   4) = (   0.6360000   0.6360000   0.6360000  )
         5           Si  tau(   5) = (   0.1540000   0.6540000   0.8460000  )
         6           Si  tau(   6) = (   0.6540000   0.8460000   0.1540000  )
         7           Si  tau(   7) = (   0.8460000   0.1540000   0.6540000  )
         8           Si  tau(   8) = (   0.3460000   0.3460000   0.3460000  )

   Crystallographic axes

     site n.     atom                  positions (cryst. coord.)
         1           Cr  tau(   1) = (  0.8640000  0.3640000  0.1360000  )
         2           Cr  tau(   2) = (  0.3640000  0.1360000  0.8640000  )
         3           Cr  tau(   3) = (  0.1360000  0.8640000  0.3640000  )
         4           Cr  tau(   4) = (  0.6360000  0.6360000  0.6360000  )
         5           Si  tau(   5) = (  0.1540000  0.6540000  0.8460000  )
         6           Si  tau(   6) = (  0.6540000  0.8460000  0.1540000  )
         7           Si  tau(   7) = (  0.8460000  0.1540000  0.6540000  )
         8           Si  tau(   8) = (  0.3460000  0.3460000  0.3460000  )

     number of k points=    45  Methfessel-Paxton smearing, width (Ry)=  0.0100
                       cart. coord. in units 2pi/alat
        k(    1) = (   0.0000000   0.0000000   0.0000000), wk =   0.0019531
        k(    2) = (   0.0000000   0.0000000   0.1250000), wk =   0.0117188
        k(    3) = (   0.0000000   0.0000000   0.2500000), wk =   0.0117188
        k(    4) = (   0.0000000   0.0000000   0.3750000), wk =   0.0117188
        k(    5) = (   0.0000000   0.0000000  -0.5000000), wk =   0.0058594
        k(    6) = (   0.0000000   0.1250000   0.1250000), wk =   0.0234375
        k(    7) = (   0.0000000   0.1250000   0.2500000), wk =   0.0234375
        k(    8) = (   0.0000000   0.1250000   0.3750000), wk =   0.0234375
        k(    9) = (   0.0000000   0.1250000  -0.5000000), wk =   0.0117188
        k(   10) = (   0.0000000   0.2500000   0.2500000), wk =   0.0234375
        k(   11) = (   0.0000000   0.2500000   0.3750000), wk =   0.0234375
        k(   12) = (   0.0000000   0.2500000  -0.5000000), wk =   0.0117188
        k(   13) = (   0.0000000   0.3750000   0.3750000), wk =   0.0234375
        k(   14) = (   0.0000000   0.3750000  -0.5000000), wk =   0.0117188
        k(   15) = (   0.0000000  -0.5000000  -0.5000000), wk =   0.0058594
        k(   16) = (   0.1250000   0.1250000   0.1250000), wk =   0.0156250
        k(   17) = (   0.1250000   0.1250000   0.2500000), wk =   0.0468750
        k(   18) = (   0.1250000   0.1250000   0.3750000), wk =   0.0468750
        k(   19) = (   0.1250000   0.1250000  -0.5000000), wk =   0.0234375
        k(   20) = (   0.1250000   0.2500000   0.2500000), wk =   0.0468750
        k(   21) = (   0.1250000   0.2500000   0.3750000), wk =   0.0468750
        k(   22) = (   0.1250000   0.2500000  -0.5000000), wk =   0.0234375
        k(   23) = (   0.1250000   0.3750000   0.3750000), wk =   0.0468750
        k(   24) = (   0.1250000   0.3750000  -0.5000000), wk =   0.0234375
        k(   25) = (   0.1250000  -0.5000000  -0.5000000), wk =   0.0117188
        k(   26) = (   0.2500000   0.2500000   0.2500000), wk =   0.0156250
        k(   27) = (   0.2500000   0.2500000   0.3750000), wk =   0.0468750
        k(   28) = (   0.2500000   0.2500000  -0.5000000), wk =   0.0234375
        k(   29) = (   0.2500000   0.3750000   0.3750000), wk =   0.0468750
        k(   30) = (   0.2500000   0.3750000  -0.5000000), wk =   0.0234375
        k(   31) = (   0.2500000  -0.5000000  -0.5000000), wk =   0.0117188
        k(   32) = (   0.3750000   0.3750000   0.3750000), wk =   0.0156250
        k(   33) = (   0.3750000   0.3750000  -0.5000000), wk =   0.0234375
        k(   34) = (   0.3750000  -0.5000000  -0.5000000), wk =   0.0117188
        k(   35) = (  -0.5000000  -0.5000000  -0.5000000), wk =   0.0019531
        k(   36) = (   0.0000000   0.2500000   0.1250000), wk =   0.0234375
        k(   37) = (   0.0000000   0.3750000   0.1250000), wk =   0.0234375
        k(   38) = (   0.0000000  -0.5000000   0.1250000), wk =   0.0117188
        k(   39) = (   0.0000000   0.3750000   0.2500000), wk =   0.0234375
        k(   40) = (   0.0000000  -0.5000000   0.2500000), wk =   0.0117188
        k(   41) = (   0.0000000  -0.5000000   0.3750000), wk =   0.0117188
        k(   42) = (  -0.1250000   0.3750000   0.2500000), wk =   0.0468750
        k(   43) = (  -0.1250000  -0.5000000   0.2500000), wk =   0.0234375
        k(   44) = (  -0.1250000  -0.5000000   0.3750000), wk =   0.0234375
        k(   45) = (  -0.2500000  -0.5000000   0.3750000), wk =   0.0234375

                       cryst. coord.
        k(    1) = (   0.0000000   0.0000000   0.0000000), wk =   0.0019531
        k(    2) = (   0.0000000   0.0000000   0.1250000), wk =   0.0117188
        k(    3) = (   0.0000000   0.0000000   0.2500000), wk =   0.0117188
        k(    4) = (   0.0000000   0.0000000   0.3750000), wk =   0.0117188
        k(    5) = (   0.0000000   0.0000000  -0.5000000), wk =   0.0058594
        k(    6) = (   0.0000000   0.1250000   0.1250000), wk =   0.0234375
        k(    7) = (   0.0000000   0.1250000   0.2500000), wk =   0.0234375
        k(    8) = (   0.0000000   0.1250000   0.3750000), wk =   0.0234375
        k(    9) = (   0.0000000   0.1250000  -0.5000000), wk =   0.0117188
        k(   10) = (   0.0000000   0.2500000   0.2500000), wk =   0.0234375
        k(   11) = (   0.0000000   0.2500000   0.3750000), wk =   0.0234375
        k(   12) = (   0.0000000   0.2500000  -0.5000000), wk =   0.0117188
        k(   13) = (   0.0000000   0.3750000   0.3750000), wk =   0.0234375
        k(   14) = (   0.0000000   0.3750000  -0.5000000), wk =   0.0117188
        k(   15) = (   0.0000000  -0.5000000  -0.5000000), wk =   0.0058594
        k(   16) = (   0.1250000   0.1250000   0.1250000), wk =   0.0156250
        k(   17) = (   0.1250000   0.1250000   0.2500000), wk =   0.0468750
        k(   18) = (   0.1250000   0.1250000   0.3750000), wk =   0.0468750
        k(   19) = (   0.1250000   0.1250000  -0.5000000), wk =   0.0234375
        k(   20) = (   0.1250000   0.2500000   0.2500000), wk =   0.0468750
        k(   21) = (   0.1250000   0.2500000   0.3750000), wk =   0.0468750
        k(   22) = (   0.1250000   0.2500000  -0.5000000), wk =   0.0234375
        k(   23) = (   0.1250000   0.3750000   0.3750000), wk =   0.0468750
        k(   24) = (   0.1250000   0.3750000  -0.5000000), wk =   0.0234375
        k(   25) = (   0.1250000  -0.5000000  -0.5000000), wk =   0.0117188
        k(   26) = (   0.2500000   0.2500000   0.2500000), wk =   0.0156250
        k(   27) = (   0.2500000   0.2500000   0.3750000), wk =   0.0468750
        k(   28) = (   0.2500000   0.2500000  -0.5000000), wk =   0.0234375
        k(   29) = (   0.2500000   0.3750000   0.3750000), wk =   0.0468750
        k(   30) = (   0.2500000   0.3750000  -0.5000000), wk =   0.0234375
        k(   31) = (   0.2500000  -0.5000000  -0.5000000), wk =   0.0117188
        k(   32) = (   0.3750000   0.3750000   0.3750000), wk =   0.0156250
        k(   33) = (   0.3750000   0.3750000  -0.5000000), wk =   0.0234375
        k(   34) = (   0.3750000  -0.5000000  -0.5000000), wk =   0.0117188
        k(   35) = (  -0.5000000  -0.5000000  -0.5000000), wk =   0.0019531
        k(   36) = (   0.0000000   0.2500000   0.1250000), wk =   0.0234375
        k(   37) = (   0.0000000   0.3750000   0.1250000), wk =   0.0234375
        k(   38) = (   0.0000000  -0.5000000   0.1250000), wk =   0.0117188
        k(   39) = (   0.0000000   0.3750000   0.2500000), wk =   0.0234375
        k(   40) = (   0.0000000  -0.5000000   0.2500000), wk =   0.0117188
        k(   41) = (   0.0000000  -0.5000000   0.3750000), wk =   0.0117188
        k(   42) = (  -0.1250000   0.3750000   0.2500000), wk =   0.0468750
        k(   43) = (  -0.1250000  -0.5000000   0.2500000), wk =   0.0234375
        k(   44) = (  -0.1250000  -0.5000000   0.3750000), wk =   0.0234375
        k(   45) = (  -0.2500000  -0.5000000   0.3750000), wk =   0.0234375

     Dense  grid:   304867 G-vectors     FFT dimensions: (  90,  90,  90)

     Smooth grid:    77053 G-vectors     FFT dimensions: (  54,  54,  54)

     Dynamical RAM for                 wfc:       1.06 MB

     Dynamical RAM for     wfc (w. buffer):      48.53 MB

     Dynamical RAM for           str. fact:       0.39 MB

     Dynamical RAM for           local pot:       0.00 MB

     Dynamical RAM for          nlocal pot:       1.67 MB

     Dynamical RAM for                qrad:      12.61 MB

     Dynamical RAM for          rho,v,vnew:       5.29 MB

     Dynamical RAM for               rhoin:       1.76 MB

     Dynamical RAM for            rho*nmix:      12.41 MB

     Dynamical RAM for           G-vectors:       0.75 MB

     Dynamical RAM for          h,s,v(r/c):       1.35 MB

     Dynamical RAM for          <psi|beta>:       0.71 MB

     Dynamical RAM for                 psi:       2.11 MB

     Dynamical RAM for                hpsi:       2.11 MB

     Dynamical RAM for                spsi:       2.11 MB

     Dynamical RAM for      wfcinit/wfcrot:       2.35 MB

     Dynamical RAM for           addusdens:     119.02 MB

     Dynamical RAM for          addusforce:     120.34 MB

     Dynamical RAM for         addusstress:     121.74 MB

     Estimated static dynamical RAM per process >      85.97 MB

     Estimated max dynamical RAM per process >     207.70 MB

     Estimated total dynamical RAM >       4.87 GB

     Initial potential from superposition of free atoms

     starting charge   71.99469, renormalised to   72.00000
     Starting wfcs are  112 randomized atomic wfcs
     Checking if some PAW data can be deallocated... 
       PAW data deallocated on   12 nodes for type:  1
       PAW data deallocated on   12 nodes for type:  2

     total cpu time spent up to now is       10.1 secs

     Self-consistent Calculation

     iteration #  1     ecut=    90.00 Ry     beta= 0.70
     Davidson diagonalization with overlap
     ethr =  1.00E-02,  avg # of iterations =  2.0

     Threshold (ethr) on eigenvalues was too large:
     Diagonalizing with lowered threshold

     Davidson diagonalization with overlap
     ethr =  2.09E-04,  avg # of iterations =  4.4

     total cpu time spent up to now is       51.4 secs

     total energy              =   -1180.30972581 Ry
     estimated scf accuracy    <       0.18981242 Ry

     iteration #  2     ecut=    90.00 Ry     beta= 0.70
     Davidson diagonalization with overlap
     ethr =  2.64E-04,  avg # of iterations =  3.2

     total cpu time spent up to now is       72.5 secs

     total energy              =   -1180.31345771 Ry
     estimated scf accuracy    <       0.08463648 Ry

     iteration #  3     ecut=    90.00 Ry     beta= 0.70
     Davidson diagonalization with overlap
     ethr =  1.18E-04,  avg # of iterations =  5.0

     total cpu time spent up to now is       98.1 secs

     total energy              =   -1180.32586546 Ry
     estimated scf accuracy    <       0.16538064 Ry

     iteration #  4     ecut=    90.00 Ry     beta= 0.70
     Davidson diagonalization with overlap
     ethr =  1.18E-04,  avg # of iterations =  4.1

     total cpu time spent up to now is      118.7 secs

     total energy              =   -1180.34992803 Ry
     estimated scf accuracy    <       0.00023989 Ry

     iteration #  5     ecut=    90.00 Ry     beta= 0.70
     Davidson diagonalization with overlap
     ethr =  3.33E-07,  avg # of iterations =  8.6

     total cpu time spent up to now is      152.1 secs

     total energy              =   -1180.35057229 Ry
     estimated scf accuracy    <       0.00041410 Ry

     iteration #  6     ecut=    90.00 Ry     beta= 0.70
     Davidson diagonalization with overlap
     ethr =  3.33E-07,  avg # of iterations =  4.2

     total cpu time spent up to now is      173.0 secs

     total energy              =   -1180.35064811 Ry
     estimated scf accuracy    <       0.00000871 Ry

     iteration #  7     ecut=    90.00 Ry     beta= 0.70
     Davidson diagonalization with overlap
     ethr =  1.21E-08,  avg # of iterations =  4.9

     total cpu time spent up to now is      193.5 secs

     total energy              =   -1180.35064849 Ry
     estimated scf accuracy    <       0.00000482 Ry

     iteration #  8     ecut=    90.00 Ry     beta= 0.70
     Davidson diagonalization with overlap
     ethr =  6.69E-09,  avg # of iterations =  4.0

     total cpu time spent up to now is      213.9 secs

     End of self-consistent calculation

          k = 0.0000 0.0000 0.0000 (  9771 PWs)   bands (ev):

   -56.5173 -56.5173 -56.4826 -56.4826 -56.4826 -56.4826 -56.4826 -56.4826
   -28.5831 -28.5831 -28.5751 -28.5751 -28.5751 -28.5751 -28.4859 -28.4859
   -27.6188 -27.6188 -27.6188 -27.6188 -27.5415 -27.5415 -27.5415 -27.5415
   -27.5329 -27.5329 -27.4517 -27.4517 -27.4517 -27.4517 -27.4499 -27.4499
     2.6989   2.6989   7.4570   7.4570   7.4570   7.4570   7.4662   7.4662
    10.5367  10.5367  10.5446  10.5446  10.5446  10.5446  11.9120  11.9120
    11.9120  11.9120  11.9231  11.9231  12.6030  12.6030  12.7718  12.7718
    12.7718  12.7718  13.1418  13.1418  13.1418  13.1418  13.1430  13.1430
    13.6702  13.6702  13.6702  13.6702  13.6740  13.6740  15.5504  15.5504
    15.5818  15.5818  15.5818  15.5818  15.7626  15.7626  15.7626  15.7626
    16.6652  16.6652  16.6955  16.6955  16.6955  16.6955

     occupation numbers 
     1.0000   1.0000   1.0000   1.0000   1.0000   1.0000   1.0000   1.0000
     1.0000   1.0000   1.0000   1.0000   1.0000   1.0000   1.0000   1.0000
     1.0000   1.0000   1.0000   1.0000   1.0000   1.0000   1.0000   1.0000
     1.0000   1.0000   1.0000   1.0000   1.0000   1.0000   1.0000   1.0000
     1.0000   1.0000   1.0000   1.0000   1.0000   1.0000   1.0000   1.0000
     1.0000   1.0000   1.0000   1.0000   1.0000   1.0000   1.0000   1.0000
     1.0000   1.0000   1.0000   1.0000   1.0000   1.0000   1.0000   1.0000
     1.0000   1.0000   1.0000   1.0000   1.0000   1.0000   1.0000   1.0000
     1.0000   1.0000   1.0000   1.0000   1.0000   1.0000  -0.0000  -0.0000
    -0.0000  -0.0000  -0.0000  -0.0000  -0.0000  -0.0000  -0.0000  -0.0000
    -0.0000  -0.0000  -0.0000  -0.0000  -0.0000  -0.0000

          k = 0.0000 0.0000 0.1250 (  9667 PWs)   bands (ev):

   -56.5163 -56.5163 -56.4866 -56.4866 -56.4822 -56.4822 -56.4799 -56.4799
   -28.5893 -28.5819 -28.5790 -28.5784 -28.5685 -28.5653 -28.4887 -28.4887
   -27.6321 -27.6258 -27.6091 -27.6029 -27.5501 -27.5471 -27.5403 -27.5362
   -27.5348 -27.5205 -27.4589 -27.4574 -27.4547 -27.4498 -27.4490 -27.4442
     2.8072   2.8073   6.7955   6.7988   7.5182   7.5196   7.9728   7.9815
    10.0747  10.0799  10.6131  10.6148  11.0389  11.0407  11.3209  11.3210
    11.6508  11.6546  12.5297  12.5363  12.5614  12.5796  12.7793  12.7865
    12.9230  12.9243  13.1121  13.1141  13.1766  13.1769  13.2076  13.2081
    13.5206  13.5283  13.6521  13.6536  13.8984  13.8986  15.3968  15.4150
    15.4435  15.4532  15.7196  15.7232  15.7384  15.7504  15.7634  15.7691
    16.4736  16.4906  16.6336  16.6385  16.8958  16.9164

     occupation numbers 
     1.0000   1.0000   1.0000   1.0000   1.0000   1.0000   1.0000   1.0000
     1.0000   1.0000   1.0000   1.0000   1.0000   1.0000   1.0000   1.0000
     1.0000   1.0000   1.0000   1.0000   1.0000   1.0000   1.0000   1.0000
     1.0000   1.0000   1.0000   1.0000   1.0000   1.0000   1.0000   1.0000
     1.0000   1.0000   1.0000   1.0000   1.0000   1.0000   1.0000   1.0000
     1.0000   1.0000   1.0000   1.0000   1.0000   1.0000   1.0000   1.0000
     1.0000   1.0000   1.0000   1.0000   1.0000   1.0000   1.0000   1.0000
     1.0000   1.0000   1.0000   1.0000   1.0000   1.0000   1.0000   1.0000
     1.0000   1.0000   1.0000   1.0000   1.0000   1.0000  -0.0000  -0.0000
    -0.0000  -0.0000  -0.0000  -0.0000  -0.0000  -0.0000  -0.0000  -0.0000
    -0.0000  -0.0000  -0.0000  -0.0000  -0.0000  -0.0000

          k = 0.0000 0.0000 0.2500 (  9618 PWs)   bands (ev):

   -56.5134 -56.5134 -56.4917 -56.4917 -56.4814 -56.4814 -56.4785 -56.4785
   -28.5928 -28.5854 -28.5824 -28.5798 -28.5559 -28.5528 -28.4970 -28.4967
   -27.6407 -27.6318 -27.5961 -27.5887 -27.5594 -27.5489 -27.5382 -27.5366
   -27.5316 -27.5062 -27.4704 -27.4624 -27.4604 -27.4508 -27.4480 -27.4412
     3.1274   3.1274   5.9922   5.9936   7.6896   7.6926   8.3701   8.3802
     9.7438   9.7451  10.7560  10.7612  10.8665  10.8752  11.1954  11.2028
    11.5679  11.5686  12.2653  12.2802  12.8661  12.8727  12.9120  12.9338
    13.1187  13.1229  13.1278  13.1331  13.2498  13.2504  13.2810  13.2849
    13.5431  13.5465  13.6970  13.7046  14.0456  14.0461  15.0723  15.1009
    15.3786  15.3792  15.6140  15.6292  15.7364  15.7606  15.8504  15.8743
    16.2849  16.2996  16.4931  16.5047  17.1871  17.2076

     occupation numbers 
     1.0000   1.0000   1.0000   1.0000   1.0000   1.0000   1.0000   1.0000
     1.0000   1.0000   1.0000   1.0000   1.0000   1.0000   1.0000   1.0000
     1.0000   1.0000   1.0000   1.0000   1.0000   1.0000   1.0000   1.0000
     1.0000   1.0000   1.0000   1.0000   1.0000   1.0000   1.0000   1.0000
     1.0000   1.0000   1.0000   1.0000   1.0000   1.0000   1.0000   1.0000
     1.0000   1.0000   1.0000   1.0000   1.0000   1.0000   1.0000   1.0000
     1.0000   1.0000   1.0000   1.0000   1.0000   1.0000   1.0000   1.0000
     1.0000   1.0000   1.0000   1.0000   1.0000   1.0000   1.0000   1.0000
     1.0000   1.0000   1.0000   1.0000   1.0000   1.0000  -0.0076  -0.0321
    -0.0000  -0.0000  -0.0000  -0.0000  -0.0000  -0.0000  -0.0000  -0.0000
    -0.0000  -0.0000  -0.0000  -0.0000  -0.0000  -0.0000

          k = 0.0000 0.0000 0.3750 (  9662 PWs)   bands (ev):

   -56.5089 -56.5089 -56.4975 -56.4975 -56.4802 -56.4802 -56.4783 -56.4783
   -28.5932 -28.5869 -28.5862 -28.5823 -28.5407 -28.5383 -28.5094 -28.5087
   -27.6439 -27.6377 -27.5823 -27.5776 -27.5679 -27.5458 -27.5456 -27.5335
   -27.5250 -27.4919 -27.4866 -27.4685 -27.4620 -27.4538 -27.4466 -27.4415
     3.6440   3.6441   5.1360   5.1365   7.9592   7.9638   8.5100   8.5189
     9.6770   9.6798  10.5127  10.5133  10.7727  10.7859  11.0296  11.0314
    12.0044  12.0066  12.1206  12.1352  12.7677  12.7830  12.9431  12.9559
    13.0777  13.0852  13.1837  13.1877  13.2448  13.2480  13.3241  13.3276
    13.5397  13.5401  13.9305  13.9349  14.2199  14.2333  14.8122  14.8471
    15.3551  15.3668  15.4940  15.5130  15.7511  15.7805  15.8449  15.8701
    16.1642  16.1800  16.3076  16.3215  17.3492  17.3603

     occupation numbers 
     1.0000   1.0000   1.0000   1.0000   1.0000   1.0000   1.0000   1.0000
     1.0000   1.0000   1.0000   1.0000   1.0000   1.0000   1.0000   1.0000
     1.0000   1.0000   1.0000   1.0000   1.0000   1.0000   1.0000   1.0000
     1.0000   1.0000   1.0000   1.0000   1.0000   1.0000   1.0000   1.0000
     1.0000   1.0000   1.0000   1.0000   1.0000   1.0000   1.0000   1.0000
     1.0000   1.0000   1.0000   1.0000   1.0000   1.0000   1.0000   1.0000
     1.0000   1.0000   1.0000   1.0000   1.0000   1.0000   1.0000   1.0000
     1.0000   1.0000   1.0000   1.0000   1.0000   1.0000   1.0000   1.0000
     1.0000   1.0000   1.0000   1.0000   1.0000   1.0000   1.0282   0.9836
    -0.0001  -0.0001  -0.0000  -0.0000  -0.0000  -0.0000  -0.0000  -0.0000
    -0.0000  -0.0000  -0.0000  -0.0000  -0.0000  -0.0000

          k = 0.0000 0.0000-0.5000 (  9658 PWs)   bands (ev):

   -56.5034 -56.5034 -56.5034 -56.5034 -56.4790 -56.4790 -56.4790 -56.4790
   -28.5909 -28.5909 -28.5848 -28.5848 -28.5246 -28.5246 -28.5231 -28.5231
   -27.6424 -27.6424 -27.5751 -27.5751 -27.5611 -27.5611 -27.5392 -27.5392
   -27.5058 -27.5058 -27.4791 -27.4791 -27.4581 -27.4581 -27.4439 -27.4439
     4.3289   4.3289   4.3291   4.3291   8.2825   8.2825   8.2889   8.2889
    10.0173  10.0173  10.0213  10.0213  10.8981  10.8981  10.9093  10.9093
    12.2470  12.2470  12.2535  12.2535  12.6843  12.6843  12.6967  12.6967
    13.1410  13.1410  13.1414  13.1414  13.2356  13.2356  13.2393  13.2393
    13.7821  13.7821  13.7852  13.7852  14.5652  14.5652  14.5938  14.5938
    15.3988  15.3988  15.4166  15.4166  15.8039  15.8039  15.8337  15.8337
    16.1651  16.1651  16.1788  16.1788  17.5421  17.5456

     occupation numbers 
     1.0000   1.0000   1.0000   1.0000   1.0000   1.0000   1.0000   1.0000
     1.0000   1.0000   1.0000   1.0000   1.0000   1.0000   1.0000   1.0000
     1.0000   1.0000   1.0000   1.0000   1.0000   1.0000   1.0000   1.0000
     1.0000   1.0000   1.0000   1.0000   1.0000   1.0000   1.0000   1.0000
     1.0000   1.0000   1.0000   1.0000   1.0000   1.0000   1.0000   1.0000
     1.0000   1.0000   1.0000   1.0000   1.0000   1.0000   1.0000   1.0000
     1.0000   1.0000   1.0000   1.0000   1.0000   1.0000   1.0000   1.0000
     1.0000   1.0000   1.0000   1.0000   1.0000   1.0000   1.0000   1.0000
     1.0000   1.0000   1.0000   1.0000   1.0002   1.0002   1.0006   1.0006
    -0.0000  -0.0000  -0.0000  -0.0000  -0.0000  -0.0000  -0.0000  -0.0000
    -0.0000  -0.0000  -0.0000  -0.0000  -0.0000  -0.0000

          k = 0.0000 0.1250 0.1250 (  9657 PWs)   bands (ev):

   -56.5153 -56.5153 -56.4881 -56.4881 -56.4826 -56.4826 -56.4790 -56.4790
   -28.5913 -28.5847 -28.5777 -28.5769 -28.5658 -28.5617 -28.4915 -28.4914
   -27.6339 -27.6302 -27.6021 -27.5982 -27.5527 -27.5483 -27.5428 -27.5405
   -27.5284 -27.5140 -27.4640 -27.4624 -27.4562 -27.4508 -27.4459 -27.4417
     2.9148   2.9149   6.6456   6.6505   7.3155   7.3194   8.2193   8.2252
     9.9472   9.9522  10.6664  10.6724  10.8547  10.8593  11.2387  11.2419
    11.8051  11.8061  12.4436  12.4547  12.5944  12.6023  12.9025  12.9087
    13.0098  13.0191  13.1588  13.1597  13.1640  13.1689  13.2655  13.2674
    13.4632  13.4696  13.6769  13.6883  13.9936  13.9990  15.3439  15.3562
    15.3919  15.4012  15.6220  15.6314  15.7211  15.7374  15.7917  15.8133
    16.3734  16.3916  16.6461  16.6535  16.9381  16.9674

     occupation numbers 
     1.0000   1.0000   1.0000   1.0000   1.0000   1.0000   1.0000   1.0000
     1.0000   1.0000   1.0000   1.0000   1.0000   1.0000   1.0000   1.0000
     1.0000   1.0000   1.0000   1.0000   1.0000   1.0000   1.0000   1.0000
     1.0000   1.0000   1.0000   1.0000   1.0000   1.0000   1.0000   1.0000
     1.0000   1.0000   1.0000   1.0000   1.0000   1.0000   1.0000   1.0000
     1.0000   1.0000   1.0000   1.0000   1.0000   1.0000   1.0000   1.0000
     1.0000   1.0000   1.0000   1.0000   1.0000   1.0000   1.0000   1.0000
     1.0000   1.0000   1.0000   1.0000   1.0000   1.0000   1.0000   1.0000
     1.0000   1.0000   1.0000   1.0000   1.0000   1.0000  -0.0002  -0.0001
    -0.0000  -0.0000  -0.0000  -0.0000  -0.0000  -0.0000  -0.0000  -0.0000
    -0.0000  -0.0000  -0.0000  -0.0000  -0.0000  -0.0000

          k = 0.0000 0.1250 0.2500 (  9633 PWs)   bands (ev):

   -56.5125 -56.5125 -56.4921 -56.4921 -56.4820 -56.4820 -56.4783 -56.4783
   -28.5930 -28.5868 -28.5796 -28.5782 -28.5555 -28.5521 -28.4994 -28.4993
   -27.6393 -27.6329 -27.5924 -27.5870 -27.5591 -27.5510 -27.5426 -27.5398
   -27.5260 -27.5018 -27.4762 -27.4675 -27.4603 -27.4531 -27.4433 -27.4385
     3.2326   3.2327   6.0269   6.0294   7.3763   7.3790   8.4794   8.4845
     9.7444   9.7459  10.4128  10.4165  10.8567  10.8575  11.4947  11.4999
    11.5882  11.5897  12.3106  12.3204  12.6385  12.6411  13.0336  13.0411
    13.0726  13.0840  13.2018  13.2079  13.2801  13.2814  13.3795  13.3837
    13.5194  13.5259  13.8039  13.8192  14.1002  14.1073  15.0882  15.1152
    15.2965  15.3114  15.5050  15.5196  15.6867  15.7087  15.8376  15.8632
    16.2231  16.2382  16.5269  16.5392  17.1516  17.1853

     occupation numbers 
     1.0000   1.0000   1.0000   1.0000   1.0000   1.0000   1.0000   1.0000
     1.0000   1.0000   1.0000   1.0000   1.0000   1.0000   1.0000   1.0000
     1.0000   1.0000   1.0000   1.0000   1.0000   1.0000   1.0000   1.0000
     1.0000   1.0000   1.0000   1.0000   1.0000   1.0000   1.0000   1.0000
     1.0000   1.0000   1.0000   1.0000   1.0000   1.0000   1.0000   1.0000
     1.0000   1.0000   1.0000   1.0000   1.0000   1.0000   1.0000   1.0000
     1.0000   1.0000   1.0000   1.0000   1.0000   1.0000   1.0000   1.0000
     1.0000   1.0000   1.0000   1.0000   1.0000   1.0000   1.0000   1.0000
     1.0000   1.0000   1.0000   1.0000   1.0000   1.0000  -0.0247  -0.0353
    -0.0010  -0.0006  -0.0000  -0.0000  -0.0000  -0.0000  -0.0000  -0.0000
    -0.0000  -0.0000  -0.0000  -0.0000  -0.0000  -0.0000

          k = 0.0000 0.1250 0.3750 (  9657 PWs)   bands (ev):

   -56.5082 -56.5082 -56.4974 -56.4974 -56.4808 -56.4808 -56.4785 -56.4785
   -28.5924 -28.5871 -28.5836 -28.5807 -28.5414 -28.5391 -28.5115 -28.5109
   -27.6415 -27.6364 -27.5822 -27.5760 -27.5674 -27.5505 -27.5450 -27.5321
   -27.5268 -27.4933 -27.4879 -27.4708 -27.4634 -27.4572 -27.4412 -27.4378
     3.7448   3.7450   5.2139   5.2150   7.6679   7.6698   8.4241   8.4278
     9.7361   9.7394  10.2161  10.2202  11.0142  11.0202  11.1802  11.1941
    11.8662  11.8715  12.1810  12.1906  12.6385  12.6451  12.8658  12.8757
    13.0647  13.0710  13.2694  13.2741  13.3333  13.3353  13.4462  13.4491
    13.6019  13.6088  13.9670  13.9738  14.2905  14.3076  14.8244  14.8581
    15.2777  15.2935  15.3774  15.3898  15.6910  15.7172  15.8245  15.8539
    16.1464  16.1550  16.3583  16.3718  17.3032  17.3267

     occupation numbers 
     1.0000   1.0000   1.0000   1.0000   1.0000   1.0000   1.0000   1.0000
     1.0000   1.0000   1.0000   1.0000   1.0000   1.0000   1.0000   1.0000
     1.0000   1.0000   1.0000   1.0000   1.0000   1.0000   1.0000   1.0000
     1.0000   1.0000   1.0000   1.0000   1.0000   1.0000   1.0000   1.0000
     1.0000   1.0000   1.0000   1.0000   1.0000   1.0000   1.0000   1.0000
     1.0000   1.0000   1.0000   1.0000   1.0000   1.0000   1.0000   1.0000
     1.0000   1.0000   1.0000   1.0000   1.0000   1.0000   1.0000   1.0000
     1.0000   1.0000   1.0000   1.0000   1.0000   1.0000   1.0000   1.0000
     1.0000   1.0000   1.0000   1.0000   1.0000   1.0000   1.0181   0.9583
    -0.0019  -0.0011  -0.0000  -0.0000  -0.0000  -0.0000  -0.0000  -0.0000
    -0.0000  -0.0000  -0.0000  -0.0000  -0.0000  -0.0000

          k = 0.0000 0.1250-0.5000 (  9664 PWs)   bands (ev):

   -56.5030 -56.5030 -56.5030 -56.5030 -56.4795 -56.4795 -56.4795 -56.4795
   -28.5896 -28.5896 -28.5835 -28.5835 -28.5266 -28.5266 -28.5243 -28.5243
   -27.6400 -27.6400 -27.5751 -27.5751 -27.5618 -27.5618 -27.5386 -27.5386
   -27.5105 -27.5105 -27.4779 -27.4779 -27.4614 -27.4614 -27.4392 -27.4392
     4.4222   4.4222   4.4227   4.4227   8.0586   8.0586   8.0655   8.0655
     9.9961   9.9961  10.0005  10.0005  11.0366  11.0366  11.0507  11.0507
    12.1469  12.1469  12.1523  12.1523  12.5969  12.5969  12.6132  12.6132
    13.2259  13.2259  13.2285  13.2285  13.3311  13.3311  13.3324  13.3324
    13.8291  13.8291  13.8327  13.8327  14.5986  14.5986  14.6290  14.6290
    15.3003  15.3003  15.3161  15.3161  15.7551  15.7551  15.7848  15.7848
    16.2044  16.2044  16.2154  16.2154  17.5186  17.5260

     occupation numbers 
     1.0000   1.0000   1.0000   1.0000   1.0000   1.0000   1.0000   1.0000
     1.0000   1.0000   1.0000   1.0000   1.0000   1.0000   1.0000   1.0000
     1.0000   1.0000   1.0000   1.0000   1.0000   1.0000   1.0000   1.0000
     1.0000   1.0000   1.0000   1.0000   1.0000   1.0000   1.0000   1.0000
     1.0000   1.0000   1.0000   1.0000   1.0000   1.0000   1.0000   1.0000
     1.0000   1.0000   1.0000   1.0000   1.0000   1.0000   1.0000   1.0000
     1.0000   1.0000   1.0000   1.0000   1.0000   1.0000   1.0000   1.0000
     1.0000   1.0000   1.0000   1.0000   1.0000   1.0000   1.0000   1.0000
     1.0000   1.0000   1.0000   1.0000   1.0007   1.0007   1.0020   1.0020
    -0.0009  -0.0009  -0.0005  -0.0005  -0.0000  -0.0000  -0.0000  -0.0000
    -0.0000  -0.0000  -0.0000  -0.0000  -0.0000  -0.0000

          k = 0.0000 0.2500 0.2500 (  9661 PWs)   bands (ev):

   -56.5100 -56.5100 -56.4939 -56.4939 -56.4826 -56.4826 -56.4784 -56.4784
   -28.5924 -28.5870 -28.5773 -28.5766 -28.5520 -28.5485 -28.5067 -28.5063
   -27.6368 -27.6337 -27.5854 -27.5830 -27.5594 -27.5555 -27.5433 -27.5424
   -27.5227 -27.4960 -27.4858 -27.4761 -27.4655 -27.4494 -27.4391 -27.4352
     3.5429   3.5431   5.9655   5.9688   6.9414   6.9453   8.4362   8.4413
     9.7517   9.7549  10.1865  10.1917  10.9255  10.9280  11.3504  11.3515
    11.8598  11.8636  12.2862  12.2896  12.5056  12.5149  12.9030  12.9106
    13.1465  13.1558  13.2691  13.2786  13.4406  13.4420  13.5191  13.5283
    13.5701  13.5805  13.9836  13.9959  14.2196  14.2252  15.0453  15.0657
    15.1387  15.1633  15.2920  15.3035  15.6128  15.6379  15.7613  15.7902
    16.1587  16.1697  16.5116  16.5223  17.1848  17.2277

     occupation numbers 
     1.0000   1.0000   1.0000   1.0000   1.0000   1.0000   1.0000   1.0000
     1.0000   1.0000   1.0000   1.0000   1.0000   1.0000   1.0000   1.0000
     1.0000   1.0000   1.0000   1.0000   1.0000   1.0000   1.0000   1.0000
     1.0000   1.0000   1.0000   1.0000   1.0000   1.0000   1.0000   1.0000
     1.0000   1.0000   1.0000   1.0000   1.0000   1.0000   1.0000   1.0000
     1.0000   1.0000   1.0000   1.0000   1.0000   1.0000   1.0000   1.0000
     1.0000   1.0000   1.0000   1.0000   1.0000   1.0000   1.0000   1.0000
     1.0000   1.0000   1.0000   1.0000   1.0000   1.0000   1.0000   1.0000
     1.0000   1.0000   1.0000   1.0000   1.0000   1.0000   0.0471   0.0025
    -0.0329  -0.0255  -0.0012  -0.0008  -0.0000  -0.0000  -0.0000  -0.0000
    -0.0000  -0.0000  -0.0000  -0.0000  -0.0000  -0.0000

          k = 0.0000 0.2500 0.3750 (  9639 PWs)   bands (ev):

   -56.5063 -56.5063 -56.4973 -56.4973 -56.4820 -56.4820 -56.4793 -56.4793
   -28.5898 -28.5853 -28.5795 -28.5776 -28.5427 -28.5404 -28.5174 -28.5169
   -27.6350 -27.6323 -27.5842 -27.5771 -27.5640 -27.5535 -27.5438 -27.5339
   -27.5266 -27.5012 -27.4925 -27.4826 -27.4620 -27.4497 -27.4362 -27.4337
     4.0411   4.0415   5.4175   5.4194   7.0450   7.0481   8.0210   8.0244
     9.9169   9.9203  10.1870  10.1903  11.0280  11.0318  11.3805  11.3880
    11.8894  11.8914  12.0244  12.0287  12.4325  12.4435  12.6519  12.6618
    13.2332  13.2426  13.3286  13.3339  13.4375  13.4413  13.6527  13.6556
    13.7895  13.7929  14.0659  14.0754  14.4535  14.4789  14.8297  14.8565
    15.0702  15.0914  15.1456  15.1511  15.5742  15.5987  15.6782  15.7103
    16.1994  16.2064  16.4535  16.4640  17.1897  17.2186

     occupation numbers 
     1.0000   1.0000   1.0000   1.0000   1.0000   1.0000   1.0000   1.0000
     1.0000   1.0000   1.0000   1.0000   1.0000   1.0000   1.0000   1.0000
     1.0000   1.0000   1.0000   1.0000   1.0000   1.0000   1.0000   1.0000
     1.0000   1.0000   1.0000   1.0000   1.0000   1.0000   1.0000   1.0000
     1.0000   1.0000   1.0000   1.0000   1.0000   1.0000   1.0000   1.0000
     1.0000   1.0000   1.0000   1.0000   1.0000   1.0000   1.0000   1.0000
     1.0000   1.0000   1.0000   1.0000   1.0000   1.0000   1.0000   1.0000
     1.0000   1.0000   1.0000   1.0000   1.0000   1.0000   1.0000   1.0000
     1.0000   1.0000   1.0000   1.0000   1.0000   1.0000   1.0121   0.9623
    -0.0047  -0.0271  -0.0311  -0.0295  -0.0000  -0.0000  -0.0000  -0.0000
    -0.0000  -0.0000  -0.0000  -0.0000  -0.0000  -0.0000

          k = 0.0000 0.2500-0.5000 (  9686 PWs)   bands (ev):

   -56.5018 -56.5018 -56.5018 -56.5018 -56.4807 -56.4807 -56.4807 -56.4807
   -28.5859 -28.5859 -28.5804 -28.5804 -28.5312 -28.5312 -28.5280 -28.5280
   -27.6329 -27.6329 -27.5807 -27.5807 -27.5584 -27.5584 -27.5370 -27.5370
   -27.5175 -27.5175 -27.4885 -27.4885 -27.4546 -27.4546 -27.4342 -27.4342
     4.6919   4.6919   4.6929   4.6929   7.4838   7.4838   7.4899   7.4899
    10.1293  10.1293  10.1323  10.1323  11.2000  11.2000  11.2117  11.2117
    11.9548  11.9548  11.9567  11.9567  12.4180  12.4180  12.4305  12.4305
    13.3453  13.3453  13.3518  13.3518  13.5150  13.5150  13.5210  13.5210
    13.9868  13.9868  13.9924  13.9924  14.6537  14.6537  14.6842  14.6842
    15.0832  15.0832  15.0949  15.0949  15.6013  15.6013  15.6301  15.6301
    16.3318  16.3318  16.3428  16.3428  17.3574  17.3605

     occupation numbers 
     1.0000   1.0000   1.0000   1.0000   1.0000   1.0000   1.0000   1.0000
     1.0000   1.0000   1.0000   1.0000   1.0000   1.0000   1.0000   1.0000
     1.0000   1.0000   1.0000   1.0000   1.0000   1.0000   1.0000   1.0000
     1.0000   1.0000   1.0000   1.0000   1.0000   1.0000   1.0000   1.0000
     1.0000   1.0000   1.0000   1.0000   1.0000   1.0000   1.0000   1.0000
     1.0000   1.0000   1.0000   1.0000   1.0000   1.0000   1.0000   1.0000
     1.0000   1.0000   1.0000   1.0000   1.0000   1.0000   1.0000   1.0000
     1.0000   1.0000   1.0000   1.0000   1.0000   1.0000   1.0000   1.0000
     1.0000   1.0000   1.0000   1.0000   1.0040   1.0040   1.0087   1.0087
    -0.0204  -0.0204  -0.0292  -0.0292  -0.0000  -0.0000  -0.0000  -0.0000
    -0.0000  -0.0000  -0.0000  -0.0000  -0.0000  -0.0000

          k = 0.0000 0.3750 0.3750 (  9632 PWs)   bands (ev):

   -56.5034 -56.5034 -56.4982 -56.4982 -56.4826 -56.4826 -56.4806 -56.4806
   -28.5854 -28.5820 -28.5771 -28.5762 -28.5413 -28.5394 -28.5259 -28.5250
   -27.6267 -27.6262 -27.5900 -27.5860 -27.5558 -27.5503 -27.5398 -27.5337
   -27.5280 -27.5072 -27.5049 -27.4954 -27.4526 -27.4432 -27.4349 -27.4322
     4.5100   4.5106   5.5236   5.5252   6.5730   6.5751   7.4028   7.4058
    10.2461  10.2474  10.4517  10.4528  10.9112  10.9120  11.2394  11.2424
    11.7860  11.7889  12.0554  12.0593  12.2632  12.2656  12.4683  12.4760
    13.2318  13.2394  13.3884  13.3899  13.6714  13.6719  13.8192  13.8242
    14.0544  14.0665  14.1491  14.1600  14.5563  14.5763  14.7394  14.7514
    14.8521  14.8712  14.9541  14.9775  15.4750  15.4945  15.5154  15.5427
    16.3207  16.3312  16.5098  16.5154  17.0885  17.1109

     occupation numbers 
     1.0000   1.0000   1.0000   1.0000   1.0000   1.0000   1.0000   1.0000
     1.0000   1.0000   1.0000   1.0000   1.0000   1.0000   1.0000   1.0000
     1.0000   1.0000   1.0000   1.0000   1.0000   1.0000   1.0000   1.0000
     1.0000   1.0000   1.0000   1.0000   1.0000   1.0000   1.0000   1.0000
     1.0000   1.0000   1.0000   1.0000   1.0000   1.0000   1.0000   1.0000
     1.0000   1.0000   1.0000   1.0000   1.0000   1.0000   1.0000   1.0000
     1.0000   1.0000   1.0000   1.0000   1.0000   1.0000   1.0000   1.0000
     1.0000   1.0000   1.0000   1.0000   1.0000   1.0000   1.0000   1.0000
     1.0000   1.0000   1.0000   1.0000   1.0002   1.0003   1.0246   1.0286
     0.9729   0.9196   0.4911   0.3487  -0.0000  -0.0000  -0.0000  -0.0000
    -0.0000  -0.0000  -0.0000  -0.0000  -0.0000  -0.0000

          k = 0.0000 0.3750-0.5000 (  9642 PWs)   bands (ev):

   -56.5004 -56.5004 -56.5004 -56.5004 -56.4820 -56.4820 -56.4820 -56.4820
   -28.5810 -28.5810 -28.5773 -28.5773 -28.5356 -28.5356 -28.5330 -28.5330
   -27.6219 -27.6219 -27.5934 -27.5934 -27.5491 -27.5491 -27.5357 -27.5357
   -27.5212 -27.5212 -27.5039 -27.5039 -27.4446 -27.4446 -27.4333 -27.4333
     5.0902   5.0902   5.0916   5.0916   6.8117   6.8117   6.8158   6.8158
    10.4496  10.4496  10.4510  10.4510  11.2415  11.2415  11.2495  11.2495
    11.6401  11.6401  11.6479  11.6479  12.3095  12.3095  12.3146  12.3146
    13.3636  13.3636  13.3694  13.3694  13.7675  13.7675  13.7766  13.7766
    14.2715  14.2715  14.2743  14.2743  14.5426  14.5426  14.5533  14.5533
    14.8842  14.8842  14.9033  14.9033  15.4559  15.4559  15.4757  15.4757
    16.4912  16.4912  16.5013  16.5013  17.1127  17.1158

     occupation numbers 
     1.0000   1.0000   1.0000   1.0000   1.0000   1.0000   1.0000   1.0000
     1.0000   1.0000   1.0000   1.0000   1.0000   1.0000   1.0000   1.0000
     1.0000   1.0000   1.0000   1.0000   1.0000   1.0000   1.0000   1.0000
     1.0000   1.0000   1.0000   1.0000   1.0000   1.0000   1.0000   1.0000
     1.0000   1.0000   1.0000   1.0000   1.0000   1.0000   1.0000   1.0000
     1.0000   1.0000   1.0000   1.0000   1.0000   1.0000   1.0000   1.0000
     1.0000   1.0000   1.0000   1.0000   1.0000   1.0000   1.0000   1.0000
     1.0000   1.0000   1.0000   1.0000   1.0000   1.0000   1.0000   1.0000
     1.0000   1.0000   1.0000   1.0000   1.0001   1.0001   1.0001   1.0001
     0.8718   0.8718   0.7859   0.7859  -0.0000  -0.0000  -0.0000  -0.0000
    -0.0000  -0.0000  -0.0000  -0.0000  -0.0000  -0.0000

          k = 0.0000-0.5000-0.5000 (  9580 PWs)   bands (ev):

   -56.4998 -56.4998 -56.4998 -56.4998 -56.4826 -56.4826 -56.4826 -56.4826
   -28.5772 -28.5772 -28.5772 -28.5772 -28.5364 -28.5364 -28.5364 -28.5364
   -27.6081 -27.6081 -27.6081 -27.6081 -27.5397 -27.5397 -27.5397 -27.5397
   -27.5166 -27.5166 -27.5166 -27.5166 -27.4370 -27.4370 -27.4370 -27.4370
     5.3718   5.3718   5.3718   5.3718   6.4279   6.4279   6.4279   6.4279
    10.7055  10.7055  10.7055  10.7055  11.2418  11.2418  11.2418  11.2418
    11.3849  11.3849  11.3849  11.3849  12.2842  12.2842  12.2842  12.2842
    13.3605  13.3605  13.3605  13.3605  14.0061  14.0061  14.0061  14.0061
    14.2911  14.2911  14.2911  14.2911  14.5248  14.5248  14.5248  14.5248
    14.7573  14.7573  14.7573  14.7573  15.4143  15.4143  15.4143  15.4143
    16.5865  16.5865  16.5865  16.5865  16.9820  16.9820

     occupation numbers 
     1.0000   1.0000   1.0000   1.0000   1.0000   1.0000   1.0000   1.0000
     1.0000   1.0000   1.0000   1.0000   1.0000   1.0000   1.0000   1.0000
     1.0000   1.0000   1.0000   1.0000   1.0000   1.0000   1.0000   1.0000
     1.0000   1.0000   1.0000   1.0000   1.0000   1.0000   1.0000   1.0000
     1.0000   1.0000   1.0000   1.0000   1.0000   1.0000   1.0000   1.0000
     1.0000   1.0000   1.0000   1.0000   1.0000   1.0000   1.0000   1.0000
     1.0000   1.0000   1.0000   1.0000   1.0000   1.0000   1.0000   1.0000
     1.0000   1.0000   1.0000   1.0000   1.0000   1.0000   1.0000   1.0000
     1.0000   1.0000   1.0000   1.0000   1.0000   1.0000   1.0000   1.0000
     1.0304   1.0304   1.0304   1.0304  -0.0000  -0.0000  -0.0000  -0.0000
    -0.0000  -0.0000  -0.0000  -0.0000  -0.0000  -0.0000

          k = 0.1250 0.1250 0.1250 (  9633 PWs)   bands (ev):

   -56.5144 -56.5144 -56.4891 -56.4891 -56.4829 -56.4829 -56.4786 -56.4786
   -28.5923 -28.5861 -28.5766 -28.5758 -28.5639 -28.5593 -28.4943 -28.4941
   -27.6343 -27.6328 -27.5985 -27.5935 -27.5542 -27.5477 -27.5455 -27.5444
   -27.5243 -27.5089 -27.4716 -27.4615 -27.4565 -27.4555 -27.4425 -27.4401
     3.0217   3.0217   6.5638   6.5704   7.1840   7.1913   8.2854   8.2895
     9.9222   9.9269  10.6108  10.6111  10.6518  10.6520  11.2990  11.3045
    11.9445  11.9456  12.3495  12.3608  12.7367  12.7386  12.8155  12.8245
    13.0606  13.0642  13.1623  13.1628  13.2406  13.2464  13.3403  13.3491
    13.4542  13.4622  13.7027  13.7071  14.0626  14.0701  15.3190  15.3233
    15.3544  15.3556  15.5726  15.5734  15.6347  15.6491  15.8103  15.8225
    16.3128  16.3324  16.6473  16.6558  16.9607  16.9959

     occupation numbers 
     1.0000   1.0000   1.0000   1.0000   1.0000   1.0000   1.0000   1.0000
     1.0000   1.0000   1.0000   1.0000   1.0000   1.0000   1.0000   1.0000
     1.0000   1.0000   1.0000   1.0000   1.0000   1.0000   1.0000   1.0000
     1.0000   1.0000   1.0000   1.0000   1.0000   1.0000   1.0000   1.0000
     1.0000   1.0000   1.0000   1.0000   1.0000   1.0000   1.0000   1.0000
     1.0000   1.0000   1.0000   1.0000   1.0000   1.0000   1.0000   1.0000
     1.0000   1.0000   1.0000   1.0000   1.0000   1.0000   1.0000   1.0000
     1.0000   1.0000   1.0000   1.0000   1.0000   1.0000   1.0000   1.0000
     1.0000   1.0000   1.0000   1.0000   1.0000   1.0000  -0.0005  -0.0004
    -0.0001  -0.0001  -0.0000  -0.0000  -0.0000  -0.0000  -0.0000  -0.0000
    -0.0000  -0.0000  -0.0000  -0.0000  -0.0000  -0.0000

          k = 0.1250 0.1250 0.2500 (  9648 PWs)   bands (ev):

   -56.5117 -56.5117 -56.4924 -56.4924 -56.4826 -56.4826 -56.4783 -56.4783
   -28.5929 -28.5872 -28.5776 -28.5767 -28.5554 -28.5516 -28.5020 -28.5016
   -27.6380 -27.6332 -27.5909 -27.5840 -27.5583 -27.5517 -27.5468 -27.5427
   -27.5219 -27.4995 -27.4812 -27.4665 -27.4624 -27.4562 -27.4396 -27.4374
     3.3370   3.3371   6.0628   6.0660   7.2204   7.2248   8.4041   8.4082
     9.6715   9.6736  10.4342  10.4381  10.6889  10.6928  11.4161  11.4202
    11.8414  11.8464  12.2989  12.3023  12.7367  12.7420  13.0061  13.0112
    13.0808  13.0876  13.1132  13.1209  13.2793  13.2839  13.4372  13.4466
    13.6231  13.6316  13.8374  13.8461  14.1512  14.1572  15.0806  15.1058
    15.2814  15.2965  15.4426  15.4563  15.5859  15.6032  15.8082  15.8274
    16.2001  16.2158  16.5420  16.5558  17.1163  17.1521

     occupation numbers 
     1.0000   1.0000   1.0000   1.0000   1.0000   1.0000   1.0000   1.0000
     1.0000   1.0000   1.0000   1.0000   1.0000   1.0000   1.0000   1.0000
     1.0000   1.0000   1.0000   1.0000   1.0000   1.0000   1.0000   1.0000
     1.0000   1.0000   1.0000   1.0000   1.0000   1.0000   1.0000   1.0000
     1.0000   1.0000   1.0000   1.0000   1.0000   1.0000   1.0000   1.0000
     1.0000   1.0000   1.0000   1.0000   1.0000   1.0000   1.0000   1.0000
     1.0000   1.0000   1.0000   1.0000   1.0000   1.0000   1.0000   1.0000
     1.0000   1.0000   1.0000   1.0000   1.0000   1.0000   1.0000   1.0000
     1.0000   1.0000   1.0000   1.0000   1.0000   1.0000  -0.0177  -0.0337
    -0.0017  -0.0010  -0.0000  -0.0000  -0.0000  -0.0000  -0.0000  -0.0000
    -0.0000  -0.0000  -0.0000  -0.0000  -0.0000  -0.0000

          k = 0.1250 0.1250 0.3750 (  9660 PWs)   bands (ev):

   -56.5075 -56.5075 -56.4972 -56.4972 -56.4814 -56.4814 -56.4788 -56.4788
   -28.5915 -28.5867 -28.5817 -28.5793 -28.5424 -28.5399 -28.5137 -28.5129
   -27.6394 -27.6349 -27.5812 -27.5756 -27.5665 -27.5536 -27.5457 -27.5340
   -27.5250 -27.5004 -27.4827 -27.4705 -27.4661 -27.4593 -27.4379 -27.4362
     3.8448   3.8450   5.2906   5.2917   7.5135   7.5158   8.3089   8.3132
     9.5583   9.5593  10.2041  10.2074  10.9208  10.9252  11.4068  11.4128
    11.7846  11.7880  12.2114  12.2151  12.7413  12.7470  12.9478  12.9554
    13.0572  13.0655  13.2269  13.2341  13.3241  13.3277  13.4294  13.4359
    13.6934  13.6963  13.9763  13.9837  14.3493  14.3693  14.8296  14.8623
    15.2430  15.2593  15.3150  15.3283  15.6070  15.6270  15.7656  15.7890
    16.1525  16.1619  16.3763  16.3907  17.3089  17.3324

     occupation numbers 
     1.0000   1.0000   1.0000   1.0000   1.0000   1.0000   1.0000   1.0000
     1.0000   1.0000   1.0000   1.0000   1.0000   1.0000   1.0000   1.0000
     1.0000   1.0000   1.0000   1.0000   1.0000   1.0000   1.0000   1.0000
     1.0000   1.0000   1.0000   1.0000   1.0000   1.0000   1.0000   1.0000
     1.0000   1.0000   1.0000   1.0000   1.0000   1.0000   1.0000   1.0000
     1.0000   1.0000   1.0000   1.0000   1.0000   1.0000   1.0000   1.0000
     1.0000   1.0000   1.0000   1.0000   1.0000   1.0000   1.0000   1.0000
     1.0000   1.0000   1.0000   1.0000   1.0000   1.0000   1.0000   1.0000
     1.0000   1.0000   1.0000   1.0000   1.0000   1.0000   1.0122   0.9467
    -0.0051  -0.0032  -0.0005  -0.0003  -0.0000  -0.0000  -0.0000  -0.0000
    -0.0000  -0.0000  -0.0000  -0.0000  -0.0000  -0.0000

          k = 0.1250 0.1250-0.5000 (  9650 PWs)   bands (ev):

   -56.5025 -56.5025 -56.5025 -56.5025 -56.4800 -56.4800 -56.4800 -56.4800
   -28.5882 -28.5882 -28.5823 -28.5823 -28.5285 -28.5285 -28.5256 -28.5256
   -27.6377 -27.6377 -27.5740 -27.5740 -27.5641 -27.5641 -27.5375 -27.5375
   -27.5147 -27.5147 -27.4757 -27.4757 -27.4638 -27.4638 -27.4367 -27.4367
     4.5143   4.5143   4.5149   4.5149   7.9202   7.9202   7.9265   7.9265
     9.8404   9.8404   9.8418   9.8418  11.1809  11.1809  11.1906  11.1906
    12.0262  12.0262  12.0299  12.0299  12.7771  12.7771  12.7899  12.7899
    13.1749  13.1749  13.1830  13.1830  13.3643  13.3643  13.3672  13.3672
    13.8477  13.8477  13.8538  13.8538  14.6280  14.6280  14.6601  14.6601
    15.2438  15.2438  15.2630  15.2630  15.6820  15.6820  15.7081  15.7081
    16.2227  16.2227  16.2329  16.2329  17.6136  17.6150

     occupation numbers 
     1.0000   1.0000   1.0000   1.0000   1.0000   1.0000   1.0000   1.0000
     1.0000   1.0000   1.0000   1.0000   1.0000   1.0000   1.0000   1.0000
     1.0000   1.0000   1.0000   1.0000   1.0000   1.0000   1.0000   1.0000
     1.0000   1.0000   1.0000   1.0000   1.0000   1.0000   1.0000   1.0000
     1.0000   1.0000   1.0000   1.0000   1.0000   1.0000   1.0000   1.0000
     1.0000   1.0000   1.0000   1.0000   1.0000   1.0000   1.0000   1.0000
     1.0000   1.0000   1.0000   1.0000   1.0000   1.0000   1.0000   1.0000
     1.0000   1.0000   1.0000   1.0000   1.0000   1.0000   1.0000   1.0000
     1.0000   1.0000   1.0000   1.0000   1.0019   1.0019   1.0048   1.0048
    -0.0050  -0.0050  -0.0029  -0.0029  -0.0000  -0.0000  -0.0000  -0.0000
    -0.0000  -0.0000  -0.0000  -0.0000  -0.0000  -0.0000

          k = 0.1250 0.2500 0.2500 (  9649 PWs)   bands (ev):

   -56.5092 -56.5092 -56.4939 -56.4938 -56.4832 -56.4832 -56.4787 -56.4787
   -28.5917 -28.5866 -28.5757 -28.5751 -28.5524 -28.5488 -28.5091 -28.5085
   -27.6355 -27.6324 -27.5869 -27.5789 -27.5597 -27.5546 -27.5481 -27.5443
   -27.5184 -27.5017 -27.4834 -27.4709 -27.4689 -27.4537 -27.4368 -27.4346
     3.6448   3.6449   6.0136   6.0181   6.9146   6.9210   8.2970   8.3007
     9.4086   9.4114  10.4280  10.4297  10.6903  10.6928  11.4592  11.4640
    11.9037  11.9063  12.3017  12.3036  12.6211  12.6275  12.9553  12.9616
    13.1165  13.1214  13.1926  13.2033  13.2817  13.2872  13.5781  13.5849
    13.7487  13.7563  13.9701  13.9792  14.2864  14.2934  15.0241  15.0414
    15.1575  15.1780  15.2830  15.2956  15.4967  15.5087  15.7187  15.7393
    16.1676  16.1785  16.5165  16.5289  17.1456  17.1862

     occupation numbers 
     1.0000   1.0000   1.0000   1.0000   1.0000   1.0000   1.0000   1.0000
     1.0000   1.0000   1.0000   1.0000   1.0000   1.0000   1.0000   1.0000
     1.0000   1.0000   1.0000   1.0000   1.0000   1.0000   1.0000   1.0000
     1.0000   1.0000   1.0000   1.0000   1.0000   1.0000   1.0000   1.0000
     1.0000   1.0000   1.0000   1.0000   1.0000   1.0000   1.0000   1.0000
     1.0000   1.0000   1.0000   1.0000   1.0000   1.0000   1.0000   1.0000
     1.0000   1.0000   1.0000   1.0000   1.0000   1.0000   1.0000   1.0000
     1.0000   1.0000   1.0000   1.0000   1.0000   1.0000   1.0000   1.0000
     1.0000   1.0000   1.0000   1.0000   1.0000   1.0000   0.1166   0.0581
    -0.0274  -0.0205  -0.0016  -0.0011  -0.0000  -0.0000  -0.0000  -0.0000
    -0.0000  -0.0000  -0.0000  -0.0000  -0.0000  -0.0000

          k = 0.1250 0.2500 0.3750 (  9647 PWs)   bands (ev):

   -56.5056 -56.5056 -56.4970 -56.4970 -56.4826 -56.4826 -56.4797 -56.4797
   -28.5887 -28.5844 -28.5780 -28.5762 -28.5438 -28.5415 -28.5195 -28.5187
   -27.6333 -27.6304 -27.5834 -27.5757 -27.5661 -27.5561 -27.5436 -27.5369
   -27.5224 -27.5098 -27.4849 -27.4786 -27.4646 -27.4532 -27.4353 -27.4332
     4.1382   4.1386   5.4911   5.4931   7.0393   7.0432   7.9715   7.9747
     9.4103   9.4127  10.1452  10.1476  11.0639  11.0671  11.5736  11.5796
    11.8037  11.8112  12.0650  12.0667  12.5149  12.5250  12.7874  12.7951
    13.2073  13.2126  13.2893  13.3017  13.3520  13.3576  13.5983  13.6076
    13.8621  13.8736  14.0962  14.1076  14.5021  14.5302  14.8366  14.8634
    15.0688  15.0784  15.1451  15.1587  15.5060  15.5188  15.6314  15.6543
    16.2012  16.2081  16.4430  16.4539  17.1756  17.2022

     occupation numbers 
     1.0000   1.0000   1.0000   1.0000   1.0000   1.0000   1.0000   1.0000
     1.0000   1.0000   1.0000   1.0000   1.0000   1.0000   1.0000   1.0000
     1.0000   1.0000   1.0000   1.0000   1.0000   1.0000   1.0000   1.0000
     1.0000   1.0000   1.0000   1.0000   1.0000   1.0000   1.0000   1.0000
     1.0000   1.0000   1.0000   1.0000   1.0000   1.0000   1.0000   1.0000
     1.0000   1.0000   1.0000   1.0000   1.0000   1.0000   1.0000   1.0000
     1.0000   1.0000   1.0000   1.0000   1.0000   1.0000   1.0000   1.0000
     1.0000   1.0000   1.0000   1.0000   1.0000   1.0000   1.0000   1.0000
     1.0000   1.0000   1.0000   1.0000   1.0000   1.0001   1.0024   0.9438
    -0.0025  -0.0153  -0.0312  -0.0270  -0.0000  -0.0000  -0.0000  -0.0000
    -0.0000  -0.0000  -0.0000  -0.0000  -0.0000  -0.0000

          k = 0.1250 0.2500-0.5000 (  9646 PWs)   bands (ev):

   -56.5013 -56.5013 -56.5013 -56.5013 -56.4812 -56.4812 -56.4812 -56.4812
   -28.5845 -28.5845 -28.5791 -28.5791 -28.5329 -28.5329 -28.5294 -28.5294
   -27.6309 -27.6309 -27.5794 -27.5794 -27.5624 -27.5624 -27.5349 -27.5349
   -27.5211 -27.5211 -27.4837 -27.4837 -27.4574 -27.4574 -27.4337 -27.4337
     4.7808   4.7808   4.7819   4.7819   7.4688   7.4688   7.4751   7.4751
     9.7440   9.7440   9.7465   9.7465  11.5278  11.5278  11.5354  11.5354
    11.7435  11.7435  11.7473  11.7473  12.5994  12.5994  12.6108  12.6108
    13.2912  13.2912  13.2975  13.2975  13.4694  13.4694  13.4810  13.4810
    14.0233  14.0233  14.0314  14.0314  14.6929  14.6929  14.7253  14.7253
    15.0650  15.0650  15.0813  15.0813  15.5543  15.5543  15.5779  15.5779
    16.3188  16.3188  16.3277  16.3277  17.3777  17.3813

     occupation numbers 
     1.0000   1.0000   1.0000   1.0000   1.0000   1.0000   1.0000   1.0000
     1.0000   1.0000   1.0000   1.0000   1.0000   1.0000   1.0000   1.0000
     1.0000   1.0000   1.0000   1.0000   1.0000   1.0000   1.0000   1.0000
     1.0000   1.0000   1.0000   1.0000   1.0000   1.0000   1.0000   1.0000
     1.0000   1.0000   1.0000   1.0000   1.0000   1.0000   1.0000   1.0000
     1.0000   1.0000   1.0000   1.0000   1.0000   1.0000   1.0000   1.0000
     1.0000   1.0000   1.0000   1.0000   1.0000   1.0000   1.0000   1.0000
     1.0000   1.0000   1.0000   1.0000   1.0000   1.0000   1.0000   1.0000
     1.0000   1.0000   1.0000   1.0000   1.0106   1.0106   1.0198   1.0198
     0.0038   0.0038  -0.0185  -0.0185  -0.0000  -0.0000  -0.0000  -0.0000
    -0.0000  -0.0000  -0.0000  -0.0000  -0.0000  -0.0000

          k = 0.1250 0.3750 0.3750 (  9632 PWs)   bands (ev):

   -56.5028 -56.5028 -56.4977 -56.4977 -56.4833 -56.4833 -56.4812 -56.4812
   -28.5842 -28.5809 -28.5757 -28.5748 -28.5427 -28.5408 -28.5279 -28.5268
   -27.6255 -27.6239 -27.5889 -27.5847 -27.5614 -27.5541 -27.5401 -27.5337
   -27.5246 -27.5165 -27.4941 -27.4896 -27.4550 -27.4467 -27.4352 -27.4323
     4.6021   4.6026   5.5963   5.5985   6.6180   6.6214   7.4192   7.4223
     9.5842   9.5867  10.2018  10.2052  10.9489  10.9509  11.5401  11.5425
    11.7635  11.7680  12.1093  12.1111  12.3538  12.3582  12.6176  12.6242
    13.1906  13.1962  13.3125  13.3176  13.5595  13.5682  13.7639  13.7800
    14.0176  14.0311  14.2990  14.3081  14.5613  14.5799  14.7902  14.8051
    14.8759  14.8809  14.9903  15.0202  15.4308  15.4315  15.5013  15.5133
    16.3010  16.3104  16.4767  16.4831  17.0631  17.0843

     occupation numbers 
     1.0000   1.0000   1.0000   1.0000   1.0000   1.0000   1.0000   1.0000
     1.0000   1.0000   1.0000   1.0000   1.0000   1.0000   1.0000   1.0000
     1.0000   1.0000   1.0000   1.0000   1.0000   1.0000   1.0000   1.0000
     1.0000   1.0000   1.0000   1.0000   1.0000   1.0000   1.0000   1.0000
     1.0000   1.0000   1.0000   1.0000   1.0000   1.0000   1.0000   1.0000
     1.0000   1.0000   1.0000   1.0000   1.0000   1.0000   1.0000   1.0000
     1.0000   1.0000   1.0000   1.0000   1.0000   1.0000   1.0000   1.0000
     1.0000   1.0000   1.0000   1.0000   1.0000   1.0000   1.0000   1.0000
     1.0000   1.0000   1.0000   1.0000   1.0002   1.0004   1.0353   1.0319
     0.9033   0.8851   0.2756   0.1319  -0.0000  -0.0000  -0.0000  -0.0000
    -0.0000  -0.0000  -0.0000  -0.0000  -0.0000  -0.0000

          k = 0.1250 0.3750-0.5000 (  9656 PWs)   bands (ev):

   -56.4998 -56.4998 -56.4998 -56.4998 -56.4826 -56.4826 -56.4826 -56.4826
   -28.5796 -28.5796 -28.5759 -28.5759 -28.5373 -28.5373 -28.5346 -28.5346
   -27.6203 -27.6203 -27.5919 -27.5919 -27.5558 -27.5558 -27.5339 -27.5339
   -27.5230 -27.5230 -27.4964 -27.4964 -27.4474 -27.4474 -27.4340 -27.4340
     5.1733   5.1733   5.1748   5.1748   6.8552   6.8552   6.8597   6.8597
     9.9259   9.9259   9.9290   9.9290  11.2675  11.2675  11.2695  11.2695
    11.8653  11.8653  11.8728  11.8728  12.4199  12.4199  12.4276  12.4276
    13.2909  13.2909  13.2947  13.2947  13.6802  13.6802  13.6943  13.6943
    14.2854  14.2854  14.2921  14.2921  14.6323  14.6323  14.6448  14.6448
    14.9011  14.9011  14.9201  14.9201  15.4284  15.4284  15.4442  15.4442
    16.4451  16.4451  16.4528  16.4528  17.0923  17.0956

     occupation numbers 
     1.0000   1.0000   1.0000   1.0000   1.0000   1.0000   1.0000   1.0000
     1.0000   1.0000   1.0000   1.0000   1.0000   1.0000   1.0000   1.0000
     1.0000   1.0000   1.0000   1.0000   1.0000   1.0000   1.0000   1.0000
     1.0000   1.0000   1.0000   1.0000   1.0000   1.0000   1.0000   1.0000
     1.0000   1.0000   1.0000   1.0000   1.0000   1.0000   1.0000   1.0000
     1.0000   1.0000   1.0000   1.0000   1.0000   1.0000   1.0000   1.0000
     1.0000   1.0000   1.0000   1.0000   1.0000   1.0000   1.0000   1.0000
     1.0000   1.0000   1.0000   1.0000   1.0000   1.0000   1.0000   1.0000
     1.0000   1.0000   1.0000   1.0000   1.0022   1.0022   1.0031   1.0031
     0.7969   0.7969   0.6965   0.6965  -0.0000  -0.0000  -0.0000  -0.0000
    -0.0000  -0.0000  -0.0000  -0.0000  -0.0000  -0.0000

          k = 0.1250-0.5000-0.5000 (  9632 PWs)   bands (ev):

   -56.4992 -56.4992 -56.4992 -56.4992 -56.4833 -56.4833 -56.4833 -56.4833
   -28.5760 -28.5760 -28.5757 -28.5757 -28.5383 -28.5383 -28.5380 -28.5380
   -27.6093 -27.6093 -27.6038 -27.6038 -27.5520 -27.5520 -27.5354 -27.5354
   -27.5205 -27.5205 -27.5036 -27.5036 -27.4413 -27.4413 -27.4365 -27.4365
     5.4490   5.4490   5.4500   5.4500   6.4887   6.4887   6.4906   6.4906
    10.0926  10.0926  10.0962  10.0962  11.0427  11.0427  11.0443  11.0443
    11.9592  11.9592  11.9616  11.9616  12.3350  12.3350  12.3375  12.3375
    13.2733  13.2733  13.2741  13.2741  13.8455  13.8455  13.8589  13.8589
    14.3430  14.3430  14.3484  14.3484  14.6304  14.6304  14.6469  14.6469
    14.8008  14.8008  14.8028  14.8028  15.3825  15.3825  15.3828  15.3828
    16.5196  16.5196  16.5211  16.5211  16.9682  16.9697

     occupation numbers 
     1.0000   1.0000   1.0000   1.0000   1.0000   1.0000   1.0000   1.0000
     1.0000   1.0000   1.0000   1.0000   1.0000   1.0000   1.0000   1.0000
     1.0000   1.0000   1.0000   1.0000   1.0000   1.0000   1.0000   1.0000
     1.0000   1.0000   1.0000   1.0000   1.0000   1.0000   1.0000   1.0000
     1.0000   1.0000   1.0000   1.0000   1.0000   1.0000   1.0000   1.0000
     1.0000   1.0000   1.0000   1.0000   1.0000   1.0000   1.0000   1.0000
     1.0000   1.0000   1.0000   1.0000   1.0000   1.0000   1.0000   1.0000
     1.0000   1.0000   1.0000   1.0000   1.0000   1.0000   1.0000   1.0000
     1.0000   1.0000   1.0000   1.0000   1.0020   1.0020   1.0033   1.0033
     1.0334   1.0334   1.0327   1.0327  -0.0000  -0.0000  -0.0000  -0.0000
    -0.0000  -0.0000  -0.0000  -0.0000  -0.0000  -0.0000

          k = 0.2500 0.2500 0.2500 (  9651 PWs)   bands (ev):

   -56.5070 -56.5070 -56.4943 -56.4943 -56.4841 -56.4841 -56.4794 -56.4794
   -28.5895 -28.5848 -28.5729 -28.5729 -28.5518 -28.5484 -28.5157 -28.5147
   -27.6324 -27.6289 -27.5858 -27.5747 -27.5623 -27.5598 -27.5461 -27.5458
   -27.5131 -27.5126 -27.4769 -27.4756 -27.4640 -27.4611 -27.4354 -27.4331
     3.9446   3.9448   6.0545   6.0612   6.7952   6.8055   8.0512   8.0521
     9.0667   9.0694  10.0619  10.0655  11.1542  11.1585  11.1985  11.1989
    11.9197  11.9211  12.3547  12.3563  12.8099  12.8165  12.8813  12.8821
    13.1327  13.1393  13.1415  13.1521  13.1835  13.1884  13.7566  13.7654
    13.7726  13.7849  14.0632  14.0707  14.4485  14.4658  14.9851  15.0013
    15.1267  15.1301  15.2641  15.2647  15.3038  15.3098  15.6121  15.6313
    16.1807  16.1889  16.4807  16.4920  17.1241  17.1539

     occupation numbers 
     1.0000   1.0000   1.0000   1.0000   1.0000   1.0000   1.0000   1.0000
     1.0000   1.0000   1.0000   1.0000   1.0000   1.0000   1.0000   1.0000
     1.0000   1.0000   1.0000   1.0000   1.0000   1.0000   1.0000   1.0000
     1.0000   1.0000   1.0000   1.0000   1.0000   1.0000   1.0000   1.0000
     1.0000   1.0000   1.0000   1.0000   1.0000   1.0000   1.0000   1.0000
     1.0000   1.0000   1.0000   1.0000   1.0000   1.0000   1.0000   1.0000
     1.0000   1.0000   1.0000   1.0000   1.0000   1.0000   1.0000   1.0000
     1.0000   1.0000   1.0000   1.0000   1.0000   1.0000   1.0000   1.0000
     1.0000   1.0000   1.0000   1.0000   1.0000   1.0000   0.3044   0.2182
    -0.0350  -0.0346  -0.0028  -0.0028  -0.0008  -0.0007  -0.0000  -0.0000
    -0.0000  -0.0000  -0.0000  -0.0000  -0.0000  -0.0000

          k = 0.2500 0.2500 0.3750 (  9650 PWs)   bands (ev):

   -56.5037 -56.5037 -56.4964 -56.4964 -56.4840 -56.4840 -56.4809 -56.4809
   -28.5855 -28.5817 -28.5743 -28.5730 -28.5463 -28.5438 -28.5253 -28.5240
   -27.6282 -27.6252 -27.5824 -27.5748 -27.5692 -27.5646 -27.5427 -27.5357
   -27.5236 -27.5137 -27.4812 -27.4719 -27.4667 -27.4582 -27.4353 -27.4327
     4.4229   4.4232   5.6842   5.6871   6.9126   6.9186   7.7716   7.7744
     8.9808   8.9846   9.7543   9.7582  11.0331  11.0361  11.5965  11.5993
    11.6769  11.6802  12.2572  12.2619  12.7408  12.7504  12.8761  12.8834
    13.1089  13.1209  13.2120  13.2233  13.2921  13.2962  13.6206  13.6284
    13.9364  13.9464  14.2608  14.2721  14.6144  14.6468  14.8435  14.8627
    15.0182  15.0285  15.1796  15.2059  15.3247  15.3396  15.5235  15.5405
    16.2204  16.2272  16.4112  16.4194  17.1182  17.1333

     occupation numbers 
     1.0000   1.0000   1.0000   1.0000   1.0000   1.0000   1.0000   1.0000
     1.0000   1.0000   1.0000   1.0000   1.0000   1.0000   1.0000   1.0000
     1.0000   1.0000   1.0000   1.0000   1.0000   1.0000   1.0000   1.0000
     1.0000   1.0000   1.0000   1.0000   1.0000   1.0000   1.0000   1.0000
     1.0000   1.0000   1.0000   1.0000   1.0000   1.0000   1.0000   1.0000
     1.0000   1.0000   1.0000   1.0000   1.0000   1.0000   1.0000   1.0000
     1.0000   1.0000   1.0000   1.0000   1.0000   1.0000   1.0000   1.0000
     1.0000   1.0000   1.0000   1.0000   1.0000   1.0000   1.0000   1.0000
     1.0000   1.0000   1.0000   1.0000   1.0012   1.0033   0.9908   0.9456
     0.1403   0.1002  -0.0200  -0.0122  -0.0004  -0.0002  -0.0000  -0.0000
    -0.0000  -0.0000  -0.0000  -0.0000  -0.0000  -0.0000

          k = 0.2500 0.2500-0.5000 (  9666 PWs)   bands (ev):

   -56.4998 -56.4998 -56.4998 -56.4998 -56.4826 -56.4826 -56.4826 -56.4826
   -28.5809 -28.5809 -28.5758 -28.5758 -28.5374 -28.5374 -28.5335 -28.5335
   -27.6249 -27.6249 -27.5785 -27.5785 -27.5692 -27.5692 -27.5351 -27.5351
   -27.5221 -27.5221 -27.4789 -27.4789 -27.4600 -27.4600 -27.4341 -27.4341
     5.0371   5.0371   5.0384   5.0384   7.3198   7.3198   7.3258   7.3258
     9.3110   9.3110   9.3151   9.3151  11.2763  11.2763  11.2787  11.2787
    11.9762  11.9762  11.9844  11.9844  12.8024  12.8024  12.8126  12.8126
    13.1730  13.1730  13.1857  13.1857  13.4375  13.4375  13.4446  13.4446
    14.1667  14.1667  14.1763  14.1763  14.7495  14.7495  14.7768  14.7768
    15.0537  15.0537  15.0726  15.0726  15.4300  15.4300  15.4463  15.4463
    16.3100  16.3100  16.3196  16.3196  17.2548  17.2560

     occupation numbers 
     1.0000   1.0000   1.0000   1.0000   1.0000   1.0000   1.0000   1.0000
     1.0000   1.0000   1.0000   1.0000   1.0000   1.0000   1.0000   1.0000
     1.0000   1.0000   1.0000   1.0000   1.0000   1.0000   1.0000   1.0000
     1.0000   1.0000   1.0000   1.0000   1.0000   1.0000   1.0000   1.0000
     1.0000   1.0000   1.0000   1.0000   1.0000   1.0000   1.0000   1.0000
     1.0000   1.0000   1.0000   1.0000   1.0000   1.0000   1.0000   1.0000
     1.0000   1.0000   1.0000   1.0000   1.0000   1.0000   1.0000   1.0000
     1.0000   1.0000   1.0000   1.0000   1.0000   1.0000   1.0000   1.0000
     1.0000   1.0000   1.0000   1.0000   1.0280   1.0280   1.0348   1.0348
     0.0261   0.0261  -0.0081  -0.0081  -0.0000  -0.0000  -0.0000  -0.0000
    -0.0000  -0.0000  -0.0000  -0.0000  -0.0000  -0.0000

          k = 0.2500 0.3750 0.3750 (  9650 PWs)   bands (ev):

   -56.5009 -56.5009 -56.4964 -56.4964 -56.4849 -56.4849 -56.4826 -56.4826
   -28.5807 -28.5775 -28.5718 -28.5710 -28.5465 -28.5444 -28.5332 -28.5316
   -27.6210 -27.6183 -27.5861 -27.5814 -27.5702 -27.5660 -27.5436 -27.5328
   -27.5259 -27.5110 -27.4854 -27.4767 -27.4600 -27.4549 -27.4370 -27.4342
     4.8701   4.8707   5.7971   5.8010   6.6826   6.6894   7.3949   7.3981
     8.9588   8.9633   9.5728   9.5782  10.6883  10.6921  11.2067  11.2085
    12.0017  12.0046  12.4196  12.4237  12.6317  12.6372  12.8190  12.8248
    13.1272  13.1355  13.1816  13.1901  13.3815  13.3909  13.5829  13.5948
    14.1404  14.1490  14.4960  14.5132  14.6825  14.7061  14.8360  14.8552
    14.9333  14.9373  15.1297  15.1620  15.2730  15.2849  15.4287  15.4422
    16.2760  16.2836  16.4036  16.4080  16.9720  16.9822

     occupation numbers 
     1.0000   1.0000   1.0000   1.0000   1.0000   1.0000   1.0000   1.0000
     1.0000   1.0000   1.0000   1.0000   1.0000   1.0000   1.0000   1.0000
     1.0000   1.0000   1.0000   1.0000   1.0000   1.0000   1.0000   1.0000
     1.0000   1.0000   1.0000   1.0000   1.0000   1.0000   1.0000   1.0000
     1.0000   1.0000   1.0000   1.0000   1.0000   1.0000   1.0000   1.0000
     1.0000   1.0000   1.0000   1.0000   1.0000   1.0000   1.0000   1.0000
     1.0000   1.0000   1.0000   1.0000   1.0000   1.0000   1.0000   1.0000
     1.0000   1.0000   1.0000   1.0000   1.0000   1.0000   1.0000   1.0000
     1.0000   1.0000   1.0000   1.0000   1.0084   1.0140   1.0034   0.9655
     0.6194   0.5953  -0.0347  -0.0259  -0.0022  -0.0015  -0.0000  -0.0000
    -0.0000  -0.0000  -0.0000  -0.0000  -0.0000  -0.0000

          k = 0.2500 0.3750-0.5000 (  9644 PWs)   bands (ev):

   -56.4981 -56.4981 -56.4981 -56.4981 -56.4843 -56.4843 -56.4843 -56.4843
   -28.5758 -28.5758 -28.5722 -28.5722 -28.5420 -28.5420 -28.5390 -28.5390
   -27.6154 -27.6154 -27.5884 -27.5884 -27.5673 -27.5673 -27.5400 -27.5400
   -27.5159 -27.5159 -27.4841 -27.4841 -27.4540 -27.4540 -27.4369 -27.4369
     5.4126   5.4126   5.4144   5.4144   6.9221   6.9221   6.9275   6.9275
     9.2725   9.2725   9.2777   9.2777  10.7880  10.7880  10.7906  10.7906
    12.2806  12.2806  12.2892  12.2892  12.6854  12.6854  12.6928  12.6928
    13.1710  13.1710  13.1788  13.1788  13.4752  13.4752  13.4882  13.4882
    14.4045  14.4045  14.4132  14.4132  14.7916  14.7916  14.8090  14.8090
    14.9878  14.9878  15.0097  15.0097  15.3463  15.3463  15.3569  15.3569
    16.3651  16.3651  16.3722  16.3722  16.9838  16.9877

     occupation numbers 
     1.0000   1.0000   1.0000   1.0000   1.0000   1.0000   1.0000   1.0000
     1.0000   1.0000   1.0000   1.0000   1.0000   1.0000   1.0000   1.0000
     1.0000   1.0000   1.0000   1.0000   1.0000   1.0000   1.0000   1.0000
     1.0000   1.0000   1.0000   1.0000   1.0000   1.0000   1.0000   1.0000
     1.0000   1.0000   1.0000   1.0000   1.0000   1.0000   1.0000   1.0000
     1.0000   1.0000   1.0000   1.0000   1.0000   1.0000   1.0000   1.0000
     1.0000   1.0000   1.0000   1.0000   1.0000   1.0000   1.0000   1.0000
     1.0000   1.0000   1.0000   1.0000   1.0000   1.0000   1.0000   1.0000
     1.0000   1.0000   1.0000   1.0000   1.0352   1.0352   1.0300   1.0300
     0.2897   0.2897   0.1775   0.1775  -0.0002  -0.0002  -0.0001  -0.0001
    -0.0000  -0.0000  -0.0000  -0.0000  -0.0000  -0.0000

          k = 0.2500-0.5000-0.5000 (  9644 PWs)   bands (ev):

   -56.4973 -56.4973 -56.4973 -56.4973 -56.4851 -56.4851 -56.4851 -56.4851
   -28.5720 -28.5720 -28.5716 -28.5716 -28.5432 -28.5432 -28.5427 -28.5427
   -27.6067 -27.6067 -27.5980 -27.5980 -27.5654 -27.5654 -27.5423 -27.5423
   -27.5117 -27.5117 -27.4887 -27.4887 -27.4484 -27.4484 -27.4404 -27.4404
     5.6737   5.6737   5.6759   5.6759   6.6213   6.6213   6.6255   6.6255
     9.3816   9.3816   9.3871   9.3871  10.5090  10.5090  10.5122  10.5122
    12.4772  12.4772  12.4804  12.4804  12.5632  12.5632  12.5653  12.5653
    13.1143  13.1143  13.1146  13.1146  13.5540  13.5540  13.5668  13.5668
    14.5064  14.5064  14.5151  14.5151  14.8353  14.8353  14.8499  14.8499
    14.9372  14.9372  14.9383  14.9383  15.3081  15.3081  15.3111  15.3111
    16.4140  16.4140  16.4147  16.4147  16.8606  16.8634

     occupation numbers 
     1.0000   1.0000   1.0000   1.0000   1.0000   1.0000   1.0000   1.0000
     1.0000   1.0000   1.0000   1.0000   1.0000   1.0000   1.0000   1.0000
     1.0000   1.0000   1.0000   1.0000   1.0000   1.0000   1.0000   1.0000
     1.0000   1.0000   1.0000   1.0000   1.0000   1.0000   1.0000   1.0000
     1.0000   1.0000   1.0000   1.0000   1.0000   1.0000   1.0000   1.0000
     1.0000   1.0000   1.0000   1.0000   1.0000   1.0000   1.0000   1.0000
     1.0000   1.0000   1.0000   1.0000   1.0000   1.0000   1.0000   1.0000
     1.0000   1.0000   1.0000   1.0000   1.0000   1.0000   1.0000   1.0000
     1.0000   1.0000   1.0000   1.0000   1.0045   1.0045   0.9777   0.9777
     0.5956   0.5956   0.5891   0.5891  -0.0007  -0.0007  -0.0006  -0.0006
    -0.0000  -0.0000  -0.0000  -0.0000  -0.0000  -0.0000

          k = 0.3750 0.3750 0.3750 (  9682 PWs)   bands (ev):

   -56.4983 -56.4983 -56.4952 -56.4952 -56.4867 -56.4867 -56.4847 -56.4847
   -28.5754 -28.5727 -28.5678 -28.5673 -28.5497 -28.5479 -28.5404 -28.5386
   -27.6137 -27.6111 -27.5851 -27.5796 -27.5782 -27.5763 -27.5468 -27.5409
   -27.5158 -27.5052 -27.4797 -27.4669 -27.4631 -27.4612 -27.4409 -27.4385
     5.2851   5.2859   6.0004   6.0067   6.6318   6.6417   7.1895   7.1929
     8.7559   8.7616   9.2623   9.2697  10.1954  10.2005  10.6461  10.6485
    12.3230  12.3261  12.5903  12.5946  12.7690  12.7724  12.8661  12.8679
    13.1085  13.1188  13.1685  13.1737  13.2699  13.2702  13.3943  13.3991
    14.3596  14.3623  14.7218  14.7433  14.7807  14.7897  14.9220  14.9568
    15.0668  15.0731  15.0956  15.1013  15.2531  15.2835  15.3059  15.3276
    16.2839  16.2914  16.3580  16.3598  16.8088  16.8131

     occupation numbers 
     1.0000   1.0000   1.0000   1.0000   1.0000   1.0000   1.0000   1.0000
     1.0000   1.0000   1.0000   1.0000   1.0000   1.0000   1.0000   1.0000
     1.0000   1.0000   1.0000   1.0000   1.0000   1.0000   1.0000   1.0000
[...]
    11.8722  11.8722  11.8754  11.8754  12.3352  12.3352  12.3430  12.3430
    13.3005  13.3005  13.3060  13.3060  13.9482  13.9482  13.9549  13.9549
    14.0773  14.0773  14.0851  14.0851  14.6213  14.6213  14.6532  14.6532
    14.8210  14.8210  14.8612  14.8612  15.4439  15.4439  15.4631  15.4631
    16.4429  16.4429  16.4552  16.4552  17.1872  17.1875

     occupation numbers 
     1.0000   1.0000   1.0000   1.0000   1.0000   1.0000   1.0000   1.0000
     1.0000   1.0000   1.0000   1.0000   1.0000   1.0000   1.0000   1.0000
     1.0000   1.0000   1.0000   1.0000   1.0000   1.0000   1.0000   1.0000
     1.0000   1.0000   1.0000   1.0000   1.0000   1.0000   1.0000   1.0000
     1.0000   1.0000   1.0000   1.0000   1.0000   1.0000   1.0000   1.0000
     1.0000   1.0000   1.0000   1.0000   1.0000   1.0000   1.0000   1.0000
     1.0000   1.0000   1.0000   1.0000   1.0000   1.0000   1.0000   1.0000
     1.0000   1.0000   1.0000   1.0000   1.0000   1.0000   1.0000   1.0000
     1.0000   1.0000   1.0000   1.0000   1.0015   1.0015   1.0040   1.0040
     1.0215   1.0215   0.9499   0.9499  -0.0000  -0.0000  -0.0000  -0.0000
    -0.0000  -0.0000  -0.0000  -0.0000  -0.0000  -0.0000

          k =-0.1250 0.3750 0.2500 (  9647 PWs)   bands (ev):

   -56.5056 -56.5056 -56.4970 -56.4970 -56.4826 -56.4826 -56.4797 -56.4797
   -28.5887 -28.5845 -28.5778 -28.5763 -28.5440 -28.5413 -28.5197 -28.5185
   -27.6333 -27.6305 -27.5823 -27.5768 -27.5650 -27.5572 -27.5435 -27.5371
   -27.5220 -27.5104 -27.4845 -27.4788 -27.4647 -27.4530 -27.4353 -27.4332
     4.1382   4.1385   5.4907   5.4921   7.0414   7.0441   7.9715   7.9758
     9.4174   9.4200  10.2012  10.2026  10.9145  10.9161  11.5447  11.5483
    11.7461  11.7482  12.1886  12.1923  12.6581  12.6625  12.8596  12.8651
    13.0819  13.0866  13.2579  13.2697  13.4120  13.4151  13.6445  13.6558
    13.7941  13.8030  14.0764  14.0854  14.4876  14.5146  14.8186  14.8464
    15.0829  15.1020  15.1621  15.1798  15.4818  15.4939  15.6218  15.6404
    16.1943  16.2026  16.4155  16.4271  17.2531  17.2826

     occupation numbers 
     1.0000   1.0000   1.0000   1.0000   1.0000   1.0000   1.0000   1.0000
     1.0000   1.0000   1.0000   1.0000   1.0000   1.0000   1.0000   1.0000
     1.0000   1.0000   1.0000   1.0000   1.0000   1.0000   1.0000   1.0000
     1.0000   1.0000   1.0000   1.0000   1.0000   1.0000   1.0000   1.0000
     1.0000   1.0000   1.0000   1.0000   1.0000   1.0000   1.0000   1.0000
     1.0000   1.0000   1.0000   1.0000   1.0000   1.0000   1.0000   1.0000
     1.0000   1.0000   1.0000   1.0000   1.0000   1.0000   1.0000   1.0000
     1.0000   1.0000   1.0000   1.0000   1.0000   1.0000   1.0000   1.0000
     1.0000   1.0000   1.0000   1.0000   1.0000   1.0000   1.0236   0.9850
    -0.0201  -0.0325  -0.0259  -0.0199  -0.0000  -0.0000  -0.0000  -0.0000
    -0.0000  -0.0000  -0.0000  -0.0000  -0.0000  -0.0000

          k =-0.1250-0.5000 0.2500 (  9646 PWs)   bands (ev):

   -56.5013 -56.5013 -56.5013 -56.5013 -56.4812 -56.4812 -56.4812 -56.4812
   -28.5845 -28.5845 -28.5791 -28.5791 -28.5330 -28.5330 -28.5293 -28.5293
   -27.6310 -27.6310 -27.5785 -27.5785 -27.5632 -27.5632 -27.5346 -27.5346
   -27.5215 -27.5215 -27.4836 -27.4836 -27.4573 -27.4573 -27.4338 -27.4338
     4.7805   4.7805   4.7814   4.7814   7.4712   7.4712   7.4757   7.4757
     9.7730   9.7730   9.7741   9.7741  11.2718  11.2718  11.2769  11.2769
    11.9364  11.9364  11.9414  11.9414  12.7533  12.7533  12.7634  12.7634
    13.1572  13.1572  13.1658  13.1658  13.5584  13.5584  13.5667  13.5667
    13.9618  13.9618  13.9711  13.9711  14.6790  14.6790  14.7125  14.7125
    15.0768  15.0768  15.1018  15.1018  15.5292  15.5292  15.5511  15.5511
    16.2879  16.2879  16.2984  16.2984  17.4670  17.4677

     occupation numbers 
     1.0000   1.0000   1.0000   1.0000   1.0000   1.0000   1.0000   1.0000
     1.0000   1.0000   1.0000   1.0000   1.0000   1.0000   1.0000   1.0000
     1.0000   1.0000   1.0000   1.0000   1.0000   1.0000   1.0000   1.0000
     1.0000   1.0000   1.0000   1.0000   1.0000   1.0000   1.0000   1.0000
     1.0000   1.0000   1.0000   1.0000   1.0000   1.0000   1.0000   1.0000
     1.0000   1.0000   1.0000   1.0000   1.0000   1.0000   1.0000   1.0000
     1.0000   1.0000   1.0000   1.0000   1.0000   1.0000   1.0000   1.0000
     1.0000   1.0000   1.0000   1.0000   1.0000   1.0000   1.0000   1.0000
     1.0000   1.0000   1.0000   1.0000   1.0077   1.0077   1.0158   1.0158
    -0.0134  -0.0134  -0.0324  -0.0324  -0.0000  -0.0000  -0.0000  -0.0000
    -0.0000  -0.0000  -0.0000  -0.0000  -0.0000  -0.0000

          k =-0.1250-0.5000 0.3750 (  9656 PWs)   bands (ev):

   -56.4998 -56.4998 -56.4998 -56.4998 -56.4826 -56.4826 -56.4826 -56.4826
   -28.5796 -28.5796 -28.5759 -28.5759 -28.5374 -28.5374 -28.5345 -28.5345
   -27.6205 -27.6205 -27.5915 -27.5915 -27.5562 -27.5562 -27.5333 -27.5333
   -27.5236 -27.5236 -27.4963 -27.4963 -27.4474 -27.4474 -27.4340 -27.4340
     5.1730   5.1730   5.1741   5.1741   6.8572   6.8572   6.8600   6.8600
     9.9472   9.9472   9.9498   9.9498  11.1544  11.1544  11.1576  11.1576
    11.9544  11.9544  11.9598  11.9598  12.4568  12.4568  12.4661  12.4661
    13.2309  13.2309  13.2368  13.2368  13.7786  13.7786  13.7917  13.7917
    14.1898  14.1898  14.1982  14.1982  14.6770  14.6770  14.7038  14.7038
    14.8659  14.8659  14.9046  14.9046  15.4147  15.4147  15.4311  15.4311
    16.4116  16.4116  16.4229  16.4229  17.1476  17.1483

     occupation numbers 
     1.0000   1.0000   1.0000   1.0000   1.0000   1.0000   1.0000   1.0000
     1.0000   1.0000   1.0000   1.0000   1.0000   1.0000   1.0000   1.0000
     1.0000   1.0000   1.0000   1.0000   1.0000   1.0000   1.0000   1.0000
     1.0000   1.0000   1.0000   1.0000   1.0000   1.0000   1.0000   1.0000
     1.0000   1.0000   1.0000   1.0000   1.0000   1.0000   1.0000   1.0000
     1.0000   1.0000   1.0000   1.0000   1.0000   1.0000   1.0000   1.0000
     1.0000   1.0000   1.0000   1.0000   1.0000   1.0000   1.0000   1.0000
     1.0000   1.0000   1.0000   1.0000   1.0000   1.0000   1.0000   1.0000
     1.0000   1.0000   1.0000   1.0000   1.0073   1.0073   1.0133   1.0133
     0.9364   0.9364   0.7792   0.7792  -0.0000  -0.0000  -0.0000  -0.0000
    -0.0000  -0.0000  -0.0000  -0.0000  -0.0000  -0.0000

          k =-0.2500-0.5000 0.3750 (  9644 PWs)   bands (ev):

   -56.4981 -56.4981 -56.4981 -56.4981 -56.4843 -56.4843 -56.4843 -56.4843
   -28.5758 -28.5758 -28.5722 -28.5722 -28.5421 -28.5421 -28.5389 -28.5389
   -27.6155 -27.6155 -27.5882 -27.5882 -27.5675 -27.5675 -27.5399 -27.5399
   -27.5160 -27.5160 -27.4840 -27.4840 -27.4539 -27.4539 -27.4369 -27.4369
     5.4125   5.4125   5.4141   5.4141   6.9229   6.9229   6.9276   6.9276
     9.2750   9.2750   9.2797   9.2797  10.7781  10.7781  10.7808  10.7808
    12.2796  12.2796  12.2878  12.2878  12.7215  12.7215  12.7315  12.7315
    13.1087  13.1087  13.1177  13.1177  13.5267  13.5267  13.5385  13.5385
    14.3790  14.3790  14.3862  14.3862  14.7977  14.7977  14.8161  14.8161
    14.9939  14.9939  15.0256  15.0256  15.3320  15.3320  15.3462  15.3462
    16.3541  16.3541  16.3640  16.3640  17.0015  17.0021

     occupation numbers 
     1.0000   1.0000   1.0000   1.0000   1.0000   1.0000   1.0000   1.0000
     1.0000   1.0000   1.0000   1.0000   1.0000   1.0000   1.0000   1.0000
     1.0000   1.0000   1.0000   1.0000   1.0000   1.0000   1.0000   1.0000
     1.0000   1.0000   1.0000   1.0000   1.0000   1.0000   1.0000   1.0000
     1.0000   1.0000   1.0000   1.0000   1.0000   1.0000   1.0000   1.0000
     1.0000   1.0000   1.0000   1.0000   1.0000   1.0000   1.0000   1.0000
     1.0000   1.0000   1.0000   1.0000   1.0000   1.0000   1.0000   1.0000
     1.0000   1.0000   1.0000   1.0000   1.0000   1.0000   1.0000   1.0000
     1.0000   1.0000   1.0000   1.0000   1.0342   1.0342   1.0255   1.0255
     0.2562   0.2562   0.1109   0.1109  -0.0003  -0.0003  -0.0002  -0.0002
    -0.0000  -0.0000  -0.0000  -0.0000  -0.0000  -0.0000

     the Fermi energy is    14.9527 ev

!    total energy              =   -1180.35064934 Ry

     total all-electron energy =    -10727.811486 Ry
     estimated scf accuracy    <       0.00000061 Ry
     smearing contrib. (-TS)   =       0.00047430 Ry
     internal energy E=F+TS    =   -1180.35112364 Ry

     The total energy is F=E-TS. E is the sum of the following terms:
     one-electron contribution =    -336.79942866 Ry
     hartree contribution      =     207.04325640 Ry
     xc contribution           =    -114.36222899 Ry
     ewald contribution        =    -496.51183961 Ry
     one-center paw contrib.   =    -439.72088279 Ry
      -> PAW hartree energy AE =     126.71626905 Ry
      -> PAW hartree energy PS =    -125.74890528 Ry
      -> PAW xc energy AE      =     -96.23995914 Ry
      -> PAW xc energy PS      =      20.93256685 Ry
      -> total E_H with PAW    =     208.01062017 Ry
      -> total E_XC with PAW   =    -189.66962128 Ry

     convergence has been achieved in   8 iterations

     Forces acting on atoms (cartesian axes, Ry/au):

     atom    1 type  1   force =    -0.00272360   -0.00272360    0.00272360
     atom    2 type  1   force =    -0.00272360    0.00272360   -0.00272360
     atom    3 type  1   force =     0.00272360   -0.00272360   -0.00272360
     atom    4 type  1   force =     0.00272360    0.00272360    0.00272360
     atom    5 type  2   force =    -0.00436130   -0.00436130    0.00436130
     atom    6 type  2   force =    -0.00436130    0.00436130   -0.00436130
     atom    7 type  2   force =     0.00436130   -0.00436130   -0.00436130
     atom    8 type  2   force =     0.00436130    0.00436130    0.00436130
     The non-local contrib.  to forces
     atom    1 type  1   force =     0.05116795    0.05116795   -0.05116795
     atom    2 type  1   force =     0.05116795   -0.05116795    0.05116795
     atom    3 type  1   force =    -0.05116795    0.05116795    0.05116795
     atom    4 type  1   force =    -0.05116795   -0.05116795   -0.05116795
     atom    5 type  2   force =    -0.00798846   -0.00798846    0.00798846
     atom    6 type  2   force =    -0.00798846    0.00798846   -0.00798846
     atom    7 type  2   force =     0.00798846   -0.00798846   -0.00798846
     atom    8 type  2   force =     0.00798846    0.00798846    0.00798846
     The ionic contribution  to forces
     atom    1 type  1   force =    -0.85044630   -0.85044630    0.85044630
     atom    2 type  1   force =    -0.85044630    0.85044630   -0.85044630
     atom    3 type  1   force =     0.85044630   -0.85044630   -0.85044630
     atom    4 type  1   force =     0.85044630    0.85044630    0.85044630
     atom    5 type  2   force =    -0.24524978   -0.24524978    0.24524978
     atom    6 type  2   force =    -0.24524978    0.24524978   -0.24524978
     atom    7 type  2   force =     0.24524978   -0.24524978   -0.24524978
     atom    8 type  2   force =     0.24524978    0.24524978    0.24524978
     The local contribution  to forces
     atom    1 type  1   force =     0.79753464    0.79753464   -0.79753464
     atom    2 type  1   force =     0.79753464   -0.79753464    0.79753464
     atom    3 type  1   force =    -0.79753464    0.79753464    0.79753464
     atom    4 type  1   force =    -0.79753464   -0.79753464   -0.79753464
     atom    5 type  2   force =     0.24810664    0.24810664   -0.24810664
     atom    6 type  2   force =     0.24810664   -0.24810664    0.24810664
     atom    7 type  2   force =    -0.24810664    0.24810664    0.24810664
     atom    8 type  2   force =    -0.24810664   -0.24810664   -0.24810664
     The core correction contribution to forces
     atom    1 type  1   force =    -0.00103013   -0.00103013    0.00103013
     atom    2 type  1   force =    -0.00103013    0.00103013   -0.00103013
     atom    3 type  1   force =     0.00103013   -0.00103013   -0.00103013
     atom    4 type  1   force =     0.00103013    0.00103013    0.00103013
     atom    5 type  2   force =     0.00078651    0.00078651   -0.00078651
     atom    6 type  2   force =     0.00078651   -0.00078651    0.00078651
     atom    7 type  2   force =    -0.00078651    0.00078651    0.00078651
     atom    8 type  2   force =    -0.00078651   -0.00078651   -0.00078651
     The Hubbard contrib.    to forces
     atom    1 type  1   force =     0.00000000    0.00000000    0.00000000
     atom    2 type  1   force =     0.00000000    0.00000000    0.00000000
     atom    3 type  1   force =     0.00000000    0.00000000    0.00000000
     atom    4 type  1   force =     0.00000000    0.00000000    0.00000000
     atom    5 type  2   force =     0.00000000    0.00000000    0.00000000
     atom    6 type  2   force =     0.00000000    0.00000000    0.00000000
     atom    7 type  2   force =     0.00000000    0.00000000    0.00000000
     atom    8 type  2   force =     0.00000000    0.00000000    0.00000000
     The SCF correction term to forces
     atom    1 type  1   force =     0.00005024    0.00005024   -0.00005024
     atom    2 type  1   force =     0.00005024   -0.00005024    0.00005024
     atom    3 type  1   force =    -0.00005024    0.00005024    0.00005024
     atom    4 type  1   force =    -0.00005024   -0.00005024   -0.00005024
     atom    5 type  2   force =    -0.00001622   -0.00001622    0.00001622
     atom    6 type  2   force =    -0.00001622    0.00001622   -0.00001622
     atom    7 type  2   force =     0.00001622   -0.00001622   -0.00001622
     atom    8 type  2   force =     0.00001622    0.00001622    0.00001622

     Total force =     0.017812     Total SCF correction =     0.000183


     Computing stress (Cartesian axis) and pressure

          total   stress  (Ry/bohr**3)                   (kbar)     P=      -41.08
  -0.00027923   0.00000000   0.00000000          -41.08        0.00        0.00
   0.00000000  -0.00027923   0.00000000            0.00      -41.08        0.00
   0.00000000   0.00000000  -0.00027923            0.00        0.00      -41.08

     kinetic stress (kbar)  35759.83      0.00      0.00
                                0.00  35759.83      0.00
                                0.00      0.00  35759.83

     local   stress (kbar) -10012.53     -0.00     -0.00
                               -0.00 -10012.53     -0.00
                               -0.00     -0.00 -10012.53

     nonloc. stress (kbar)   2428.17      0.00      0.00
                                0.00   2428.17      0.00
                                0.00      0.00   2428.17

     hartree stress (kbar)  15167.34     -0.00      0.00
                               -0.00  15167.34      0.00
                                0.00      0.00  15167.34

     exc-cor stress (kbar)  -1706.61      0.00     -0.00
                                0.00  -1706.61     -0.00
                               -0.00     -0.00  -1706.61

     corecor stress (kbar)  -5304.37      0.00     -0.00
                                0.00  -5304.37     -0.00
                               -0.00     -0.00  -5304.37

     ewald   stress (kbar) -36372.90      0.00      0.00
                                0.00 -36372.90      0.00
                                0.00      0.00 -36372.90

     hubbard stress (kbar)      0.00      0.00      0.00
                                0.00      0.00      0.00
                                0.00      0.00      0.00

     DFT-D   stress (kbar)      0.00      0.00      0.00
                                0.00      0.00      0.00
                                0.00      0.00      0.00

     XDM     stress (kbar)      0.00      0.00      0.00
                                0.00      0.00      0.00
                                0.00      0.00      0.00

     dft-nl  stress (kbar)      0.00      0.00      0.00
                                0.00      0.00      0.00
                                0.00      0.00      0.00

     TS-vdW  stress (kbar)      0.00      0.00      0.00
                                0.00      0.00      0.00
                                0.00      0.00      0.00



     Writing output data file /zfs_data/vergnior/martin/Scratch/OAL/CrSi/convergence/smearing/8x8x8/0.010/tmp/CrSi.save/
 
     init_run     :      7.17s CPU      7.44s WALL (       1 calls)
     electrons    :    199.57s CPU    203.92s WALL (       1 calls)
     forces       :      6.81s CPU      6.90s WALL (       1 calls)
     stress       :     16.87s CPU     17.11s WALL (       1 calls)

     Called by init_run:
     wfcinit      :      5.98s CPU      6.14s WALL (       1 calls)
     wfcinit:atom :      0.06s CPU      0.06s WALL (      45 calls)
     wfcinit:wfcr :      5.68s CPU      5.83s WALL (      45 calls)
     potinit      :      0.18s CPU      0.21s WALL (       1 calls)
     hinit0       :      0.18s CPU      0.18s WALL (       1 calls)

     Called by electrons:
     c_bands      :    162.13s CPU    164.64s WALL (       9 calls)
     sum_band     :     32.21s CPU     33.44s WALL (       9 calls)
     v_of_rho     :      0.20s CPU      0.21s WALL (       9 calls)
     v_h          :      0.01s CPU      0.02s WALL (       9 calls)
     v_xc         :      0.23s CPU      0.23s WALL (      11 calls)
     newd         :      4.31s CPU      4.89s WALL (       9 calls)
     PAW_pot      :      1.12s CPU      1.14s WALL (       9 calls)
     mix_rho      :      0.12s CPU      0.13s WALL (       9 calls)

     Called by c_bands:
     init_us_2    :      1.04s CPU      1.06s WALL (     945 calls)
     cegterg      :    146.28s CPU    148.70s WALL (     405 calls)

     Called by sum_band:
     sum_band:wei :      0.05s CPU      0.05s WALL (       9 calls)
     sum_band:loo :     29.01s CPU     29.47s WALL (       9 calls)
     sum_band:buf :      0.29s CPU      0.31s WALL (     405 calls)
     sum_band:ini :      0.47s CPU      0.48s WALL (     405 calls)
     sum_band:cal :      2.03s CPU      2.04s WALL (     405 calls)
     sum_band:bec :      5.01s CPU      5.03s WALL (     405 calls)
     addusdens    :      2.97s CPU      3.74s WALL (       9 calls)
     addusd:skk   :      0.01s CPU      0.01s WALL (      18 calls)
     addusd:dgemm :      1.14s CPU      1.89s WALL (      18 calls)
     addusd:qvan2 :      1.79s CPU      1.79s WALL (      18 calls)

     Called by *egterg:
     cdiaghg      :     14.95s CPU     15.01s WALL (    2182 calls)
     cegterg:over :      7.66s CPU      7.70s WALL (    1822 calls)
     cegterg:upda :      4.09s CPU      4.11s WALL (    1822 calls)
     cegterg:last :      6.96s CPU      7.00s WALL (    1033 calls)
     h_psi        :     99.32s CPU    101.69s WALL (    2272 calls)
     s_psi        :     14.98s CPU     15.03s WALL (    2272 calls)
     g_psi        :      0.23s CPU      0.23s WALL (    1822 calls)

     Called by h_psi:
     h_psi:calbec :      6.96s CPU      7.02s WALL (    2272 calls)
     vloc_psi     :     77.91s CPU     80.12s WALL (    2272 calls)
     add_vuspsi   :     13.95s CPU     14.04s WALL (    2272 calls)

     General routines
     calbec       :     10.03s CPU     10.11s WALL (    2902 calls)
     fft          :      0.20s CPU      0.21s WALL (     216 calls)
     ffts         :      0.02s CPU      0.05s WALL (      72 calls)
     fftw         :     72.20s CPU     74.19s WALL (  526364 calls)
     interpolate  :      0.05s CPU      0.07s WALL (      36 calls)
 
     Parallel routines
     fft_scatt_xy :      7.06s CPU      7.22s WALL (  526652 calls)
     fft_scatt_yz :     26.35s CPU     27.05s WALL (  526652 calls)

     PAW routines
     PAW_pot      :      1.12s CPU      1.14s WALL (       9 calls)
     PAW_symme    :      0.02s CPU      0.02s WALL (      18 calls)
 
     PWSCF        :   3m53.61s CPU   4m 0.78s WALL

 
   This run was terminated on:  12:48:52   1Aug2021            

=------------------------------------------------------------------------------=
   JOB DONE.
=------------------------------------------------------------------------------=
