
     Program PWSCF v.6.7MaX starts on 18May2022 at 17:37:33 

     This program is part of the open-source Quantum ESPRESSO suite
     for quantum simulation of materials; please cite
         "P. Giannozzi et al., J. Phys.:Condens. Matter 21 395502 (2009);
         "P. Giannozzi et al., J. Phys.:Condens. Matter 29 465901 (2017);
          URL http://www.quantum-espresso.org", 
     in publications or presentations arising from this work. More details at
     http://www.quantum-espresso.org/quote

     Parallel version (MPI), running on    48 processors

     MPI processes distributed on     1 nodes
     R & G space division:  proc/nbgrp/npool/nimage =      48
     Waiting for input...
     Reading input from standard input

     Current dimensions of program PWSCF are:
     Max number of different atomic species (ntypx) = 10
     Max number of k-points (npk) =  40000
     Max angular momentum in pseudopotentials (lmaxx) =  3
     file O.pbe-nl-kjpaw_psl.1.0.0.UPF: wavefunction(s)  2S 2P renormalized
     file Cl.pbe-nl-kjpaw_psl.1.0.0.UPF: wavefunction(s)  3S renormalized
     file Nb.pbe-spn-kjpaw_psl.1.0.0.UPF: wavefunction(s)  4S 4P 4D renormalized

     Subspace diagonalization in iterative solution of the eigenvalue problem:
     a serial algorithm will be used

     Message from routine setup:
     using ibrav=0 with symmetry is DISCOURAGED, use correct ibrav instead
 
     Parallelization info
     --------------------
     sticks:   dense  smooth     PW     G-vecs:    dense   smooth      PW
     Min         226      90     28                 8011     2025     357
     Max         227      91     29                 8013     2026     359
     Sum       10861    4353   1363               384583    97215   17183
 


     bravais-lattice index     =            0
     lattice parameter (alat)  =      12.6717  a.u.
     unit-cell volume          =     547.9313 (a.u.)^3
     number of atoms/cell      =            4
     number of atomic types    =            3
     number of electrons       =        33.00
     number of Kohn-Sham states=           21
     kinetic-energy cutoff     =     120.0000  Ry
     charge density cutoff     =    1200.0000  Ry
     scf convergence threshold =      1.0E-10
     mixing beta               =       0.7000
     number of iterations used =            8  plain     mixing
     Exchange-correlation= SLA  PW   PBX  PBC
                           (   1   4   3   4   0   0   0)

     celldm(1)=  12.671676  celldm(2)=   0.000000  celldm(3)=   0.000000
     celldm(4)=   0.000000  celldm(5)=   0.000000  celldm(6)=   0.000000

     crystal axes: (cart. coord. in units of alat)
               a(1) = (  -0.250426   0.291161   0.923316 )  
               a(2) = (   0.250426  -0.291161   0.923316 )  
               a(3) = (   0.250426   0.291161  -0.923316 )  

     reciprocal axes: (cart. coord. in units 2 pi/alat)
               b(1) = (  0.000000  1.717261  0.541527 )  
               b(2) = (  1.996594  0.000000  0.541527 )  
               b(3) = (  1.996594  1.717261  0.000000 )  


     PseudoPot. # 1 for O  read from file:
     /zfs_data/gutierre/Scratch/Cl2NbO/smearing/10x10x10/0.016/pseudo/O.pbe-nl-kjpaw_psl.1.0.0.UPF
     MD5 check sum: df3ddea38124b4e5de5e1084591730e4
     Pseudo is Projector augmented-wave + core cor, Zval =  6.0
     Generated using 'atomic' code by A. Dal Corso  v.6.7MaX
     Shape of augmentation charge: PSQ
     Using radial grid of 1095 points,  4 beta functions with: 
                l(1) =   0
                l(2) =   0
                l(3) =   1
                l(4) =   1
     Q(r) pseudized with 0 coefficients 


     PseudoPot. # 2 for Cl read from file:
     /zfs_data/gutierre/Scratch/Cl2NbO/smearing/10x10x10/0.016/pseudo/Cl.pbe-nl-kjpaw_psl.1.0.0.UPF
     MD5 check sum: 8cf6bde52c08f6236e0f72a8870677af
     Pseudo is Projector augmented-wave + core cor, Zval =  7.0
     Generated using 'atomic' code by A. Dal Corso  v.6.7MaX
     Shape of augmentation charge: PSQ
     Using radial grid of 1157 points,  4 beta functions with: 
                l(1) =   0
                l(2) =   0
                l(3) =   1
                l(4) =   1
     Q(r) pseudized with 0 coefficients 


     PseudoPot. # 3 for Nb read from file:
     /zfs_data/gutierre/Scratch/Cl2NbO/smearing/10x10x10/0.016/pseudo/Nb.pbe-spn-kjpaw_psl.1.0.0.UPF
     MD5 check sum: 1ec1a3aa7bf3cbf7f7e0d720422bce7a
     Pseudo is Projector augmented-wave + core cor, Zval = 13.0
     Generated using 'atomic' code by A. Dal Corso  v.6.7MaX
     Shape of augmentation charge: PSQ
     Using radial grid of 1227 points,  6 beta functions with: 
                l(1) =   0
                l(2) =   0
                l(3) =   1
                l(4) =   1
                l(5) =   2
                l(6) =   2
     Q(r) pseudized with 0 coefficients 


     atomic species   valence    mass     pseudopotential
        O              6.00    15.99940     O ( 1.00)
        Cl             7.00    35.45150     Cl( 1.00)
        Nb            13.00    92.90637     Nb( 1.00)

      8 Sym. Ops., with inversion, found


                                    s                        frac. trans.

      isym =  1     identity                                     

 cryst.   s( 1) = (     1          0          0      )
                  (     0          1          0      )
                  (     0          0          1      )

 cart.    s( 1) = (  1.0000000  0.0000000  0.0000000 )
                  (  0.0000000  1.0000000  0.0000000 )
                  (  0.0000000  0.0000000  1.0000000 )


      isym =  2     180 deg rotation - cart. axis [0,0,1]        

 cryst.   s( 2) = (     0          1          0      )
                  (     1          0          0      )
                  (    -1         -1         -1      )

 cart.    s( 2) = ( -1.0000000  0.0000000  0.0000000 )
                  (  0.0000000 -1.0000000  0.0000000 )
                  (  0.0000000  0.0000000  1.0000000 )


      isym =  3     180 deg rotation - cart. axis [0,1,0]        

 cryst.   s( 3) = (     0          0          1      )
                  (    -1         -1         -1      )
                  (     1          0          0      )

 cart.    s( 3) = ( -1.0000000  0.0000000  0.0000000 )
                  (  0.0000000  1.0000000  0.0000000 )
                  (  0.0000000  0.0000000 -1.0000000 )


      isym =  4     180 deg rotation - cart. axis [1,0,0]        

 cryst.   s( 4) = (    -1         -1         -1      )
                  (     0          0          1      )
                  (     0          1          0      )

 cart.    s( 4) = (  1.0000000  0.0000000  0.0000000 )
                  (  0.0000000 -1.0000000  0.0000000 )
                  (  0.0000000  0.0000000 -1.0000000 )


      isym =  5     inversion                                    

 cryst.   s( 5) = (    -1          0          0      )
                  (     0         -1          0      )
                  (     0          0         -1      )

 cart.    s( 5) = ( -1.0000000  0.0000000  0.0000000 )
                  (  0.0000000 -1.0000000  0.0000000 )
                  (  0.0000000  0.0000000 -1.0000000 )


      isym =  6     inv. 180 deg rotation - cart. axis [0,0,1]   

 cryst.   s( 6) = (     0         -1          0      )
                  (    -1          0          0      )
                  (     1          1          1      )

 cart.    s( 6) = (  1.0000000  0.0000000  0.0000000 )
                  (  0.0000000  1.0000000  0.0000000 )
                  (  0.0000000  0.0000000 -1.0000000 )


      isym =  7     inv. 180 deg rotation - cart. axis [0,1,0]   

 cryst.   s( 7) = (     0          0         -1      )
                  (     1          1          1      )
                  (    -1          0          0      )

 cart.    s( 7) = (  1.0000000  0.0000000  0.0000000 )
                  (  0.0000000 -1.0000000  0.0000000 )
                  (  0.0000000  0.0000000  1.0000000 )


      isym =  8     inv. 180 deg rotation - cart. axis [1,0,0]   

 cryst.   s( 8) = (     1          1          1      )
                  (     0          0         -1      )
                  (     0         -1          0      )

 cart.    s( 8) = ( -1.0000000  0.0000000  0.0000000 )
                  (  0.0000000  1.0000000  0.0000000 )
                  (  0.0000000  0.0000000  1.0000000 )


   Cartesian axes

     site n.     atom                  positions (alat units)
         1           O   tau(   1) = (   0.0000000   0.2911613   0.0000000  )
         2           Cl  tau(   2) = (  -0.0000000   0.2911613   0.6365338  )
         3           Cl  tau(   3) = (   0.2504264  -0.0000000   0.2867819  )
         4           Nb  tau(   4) = (   0.0000000   0.0000000   0.0000000  )

   Crystallographic axes

     site n.     atom                  positions (cryst. coord.)
         1           O   tau(   1) = (  0.5000000  0.0000000  0.5000000  )
         2           Cl  tau(   2) = (  0.8447000  0.3447000  0.5000000  )
         3           Cl  tau(   3) = (  0.1553000  0.6553000  0.5000000  )
         4           Nb  tau(   4) = (  0.0000000  0.0000000  0.0000000  )

     number of k points=   171  Methfessel-Paxton smearing, width (Ry)=  0.0160
                       cart. coord. in units 2pi/alat
        k(    1) = (   0.0000000   0.0000000   0.0000000), wk =   0.0020000
        k(    2) = (   0.1996594   0.1717261   0.0000000), wk =   0.0080000
        k(    3) = (   0.3993189   0.3434523   0.0000000), wk =   0.0080000
        k(    4) = (   0.5989783   0.5151784   0.0000000), wk =   0.0080000
        k(    5) = (   0.7986377   0.6869045   0.0000000), wk =   0.0080000
        k(    6) = (  -0.9982971  -0.8586307   0.0000000), wk =   0.0040000
        k(    7) = (   0.1996594   0.0000000   0.0541527), wk =   0.0080000
        k(    8) = (   0.3993189   0.1717261   0.0541527), wk =   0.0160000
        k(    9) = (   0.5989783   0.3434523   0.0541527), wk =   0.0160000
        k(   10) = (   0.7986377   0.5151784   0.0541527), wk =   0.0160000
        k(   11) = (   0.9982971   0.6869045   0.0541527), wk =   0.0160000
        k(   12) = (  -0.7986377  -0.8586307   0.0541527), wk =   0.0160000
        k(   13) = (  -0.5989783  -0.6869045   0.0541527), wk =   0.0160000
        k(   14) = (  -0.3993189  -0.5151784   0.0541527), wk =   0.0160000
        k(   15) = (  -0.1996594  -0.3434523   0.0541527), wk =   0.0160000
        k(   16) = (   0.0000000  -0.1717261   0.0541527), wk =   0.0080000
        k(   17) = (   0.3993189   0.0000000   0.1083053), wk =   0.0080000
        k(   18) = (   0.5989783   0.1717261   0.1083053), wk =   0.0160000
        k(   19) = (   0.7986377   0.3434523   0.1083053), wk =   0.0160000
        k(   20) = (   0.9982971   0.5151784   0.1083053), wk =   0.0160000
        k(   21) = (   1.1979566   0.6869045   0.1083053), wk =   0.0160000
        k(   22) = (  -0.5989783  -0.8586307   0.1083053), wk =   0.0160000
        k(   23) = (  -0.3993189  -0.6869045   0.1083053), wk =   0.0160000
        k(   24) = (  -0.1996594  -0.5151784   0.1083053), wk =   0.0160000
        k(   25) = (   0.0000000  -0.3434523   0.1083053), wk =   0.0080000
        k(   26) = (   0.1996594  -0.1717261   0.1083053), wk =   0.0160000
        k(   27) = (   0.5989783   0.0000000   0.1624580), wk =   0.0080000
        k(   28) = (   0.7986377   0.1717261   0.1624580), wk =   0.0160000
        k(   29) = (   0.9982971   0.3434523   0.1624580), wk =   0.0160000
        k(   30) = (   1.1979566   0.5151784   0.1624580), wk =   0.0160000
        k(   31) = (   1.3976160   0.6869045   0.1624580), wk =   0.0160000
        k(   32) = (  -0.3993189  -0.8586307   0.1624580), wk =   0.0160000
        k(   33) = (  -0.1996594  -0.6869045   0.1624580), wk =   0.0160000
        k(   34) = (  -0.0000000  -0.5151784   0.1624580), wk =   0.0080000
        k(   35) = (   0.1996594  -0.3434523   0.1624580), wk =   0.0160000
        k(   36) = (   0.3993189  -0.1717261   0.1624580), wk =   0.0160000
        k(   37) = (   0.7986377   0.0000000   0.2166107), wk =   0.0080000
        k(   38) = (   0.9982971   0.1717261   0.2166107), wk =   0.0160000
        k(   39) = (   1.1979566   0.3434523   0.2166107), wk =   0.0160000
        k(   40) = (   1.3976160   0.5151784   0.2166107), wk =   0.0160000
        k(   41) = (   1.5972754   0.6869045   0.2166107), wk =   0.0160000
        k(   42) = (  -0.1996594  -0.8586307   0.2166107), wk =   0.0160000
        k(   43) = (   0.0000000  -0.6869045   0.2166107), wk =   0.0080000
        k(   44) = (   0.1996594  -0.5151784   0.2166107), wk =   0.0160000
        k(   45) = (   0.3993189  -0.3434523   0.2166107), wk =   0.0160000
        k(   46) = (   0.5989783  -0.1717261   0.2166107), wk =   0.0160000
        k(   47) = (  -0.9982971   0.0000000  -0.2707633), wk =   0.0040000
        k(   48) = (  -0.7986377   0.1717261  -0.2707633), wk =   0.0160000
        k(   49) = (  -0.5989783   0.3434523  -0.2707633), wk =   0.0160000
        k(   50) = (  -0.3993189   0.5151784  -0.2707633), wk =   0.0160000
        k(   51) = (  -0.1996594   0.6869045  -0.2707633), wk =   0.0160000
        k(   52) = (  -1.9965943  -0.8586307  -0.2707633), wk =   0.0040000
        k(   53) = (   0.3993189   0.3434523   0.1083053), wk =   0.0160000
        k(   54) = (   0.5989783   0.5151784   0.1083053), wk =   0.0160000
        k(   55) = (   0.7986377   0.6869045   0.1083053), wk =   0.0160000
        k(   56) = (   0.9982971   0.8586307   0.1083053), wk =   0.0080000
        k(   57) = (   0.0000000   0.0000000   0.1083053), wk =   0.0040000
        k(   58) = (   0.5989783   0.3434523   0.1624580), wk =   0.0160000
        k(   59) = (   0.7986377   0.5151784   0.1624580), wk =   0.0160000
        k(   60) = (   0.9982971   0.6869045   0.1624580), wk =   0.0160000
        k(   61) = (   1.1979566   0.8586307   0.1624580), wk =   0.0160000
        k(   62) = (  -0.5989783  -0.6869045   0.1624580), wk =   0.0160000
        k(   63) = (  -0.3993189  -0.5151784   0.1624580), wk =   0.0160000
        k(   64) = (   0.0000000  -0.1717261   0.1624580), wk =   0.0080000
        k(   65) = (   0.1996594   0.0000000   0.1624580), wk =   0.0080000
        k(   66) = (   0.7986377   0.3434523   0.2166107), wk =   0.0160000
        k(   67) = (   0.9982971   0.5151784   0.2166107), wk =   0.0160000
        k(   68) = (   1.1979566   0.6869045   0.2166107), wk =   0.0160000
        k(   69) = (   1.3976160   0.8586307   0.2166107), wk =   0.0160000
        k(   70) = (  -0.3993189  -0.6869045   0.2166107), wk =   0.0160000
        k(   71) = (  -0.0000000  -0.3434523   0.2166107), wk =   0.0080000
        k(   72) = (   0.1996594  -0.1717261   0.2166107), wk =   0.0160000
        k(   73) = (   0.3993189   0.0000000   0.2166107), wk =   0.0080000
        k(   74) = (   0.9982971   0.3434523   0.2707633), wk =   0.0080000
        k(   75) = (   1.1979566   0.5151784   0.2707633), wk =   0.0160000
        k(   76) = (   1.3976160   0.6869045   0.2707633), wk =   0.0160000
        k(   77) = (   1.5972754   0.8586307   0.2707633), wk =   0.0080000
        k(   78) = (   0.0000000  -0.5151784   0.2707633), wk =   0.0080000
        k(   79) = (   0.1996594  -0.3434523   0.2707633), wk =   0.0160000
        k(   80) = (   0.3993189  -0.1717261   0.2707633), wk =   0.0160000
        k(   81) = (   0.5989783   0.0000000   0.2707633), wk =   0.0080000
        k(   82) = (  -0.5989783   0.5151784  -0.2166107), wk =   0.0160000
        k(   83) = (  -1.9965943  -0.6869045  -0.2166107), wk =   0.0080000
        k(   84) = (  -1.7969349  -0.5151784  -0.2166107), wk =   0.0160000
        k(   85) = (  -1.5972754  -0.3434523  -0.2166107), wk =   0.0160000
        k(   86) = (  -1.3976160  -0.1717261  -0.2166107), wk =   0.0160000
        k(   87) = (  -1.1979566   0.0000000  -0.2166107), wk =   0.0080000
        k(   88) = (   0.0000000   0.8586307  -0.1624580), wk =   0.0080000
        k(   89) = (  -1.7969349  -0.6869045  -0.1624580), wk =   0.0160000
        k(   90) = (  -1.5972754  -0.5151784  -0.1624580), wk =   0.0160000
        k(   91) = (  -1.3976160  -0.3434523  -0.1624580), wk =   0.0160000
        k(   92) = (  -1.1979566  -0.1717261  -0.1624580), wk =   0.0160000
        k(   93) = (  -0.9982971   0.0000000  -0.1624580), wk =   0.0080000
        k(   94) = (  -0.0000000   0.6869045  -0.1083053), wk =   0.0080000
        k(   95) = (   0.1996594   0.8586307  -0.1083053), wk =   0.0160000
        k(   96) = (  -1.5972754  -0.6869045  -0.1083053), wk =   0.0160000
        k(   97) = (  -1.3976160  -0.5151784  -0.1083053), wk =   0.0160000
        k(   98) = (  -1.1979566  -0.3434523  -0.1083053), wk =   0.0160000
        k(   99) = (  -0.9982971  -0.1717261  -0.1083053), wk =   0.0160000
        k(  100) = (  -0.7986377   0.0000000  -0.1083053), wk =   0.0080000
        k(  101) = (   0.0000000   0.5151784  -0.0541527), wk =   0.0080000
        k(  102) = (   0.1996594   0.6869045  -0.0541527), wk =   0.0160000
        k(  103) = (   0.3993189   0.8586307  -0.0541527), wk =   0.0160000
        k(  104) = (  -1.3976160  -0.6869045  -0.0541527), wk =   0.0160000
        k(  105) = (  -1.1979566  -0.5151784  -0.0541527), wk =   0.0160000
        k(  106) = (  -0.9982971  -0.3434523  -0.0541527), wk =   0.0160000
        k(  107) = (  -0.7986377  -0.1717261  -0.0541527), wk =   0.0160000
        k(  108) = (  -0.5989783   0.0000000  -0.0541527), wk =   0.0080000
        k(  109) = (   0.0000000   0.3434523   0.0000000), wk =   0.0040000
        k(  110) = (   0.1996594   0.5151784   0.0000000), wk =   0.0080000
        k(  111) = (   0.3993189   0.6869045   0.0000000), wk =   0.0080000
        k(  112) = (   0.5989783   0.8586307   0.0000000), wk =   0.0080000
        k(  113) = (  -1.1979566  -0.6869045   0.0000000), wk =   0.0080000
        k(  114) = (  -0.9982971  -0.5151784   0.0000000), wk =   0.0080000
        k(  115) = (  -0.7986377  -0.3434523   0.0000000), wk =   0.0080000
        k(  116) = (  -0.5989783  -0.1717261   0.0000000), wk =   0.0080000
        k(  117) = (  -0.3993189   0.0000000   0.0000000), wk =   0.0040000
        k(  118) = (   0.7986377   0.6869045   0.2166107), wk =   0.0160000
        k(  119) = (   0.9982971   0.8586307   0.2166107), wk =   0.0080000
        k(  120) = (   0.0000000   0.0000000   0.2166107), wk =   0.0040000
        k(  121) = (   0.9982971   0.6869045   0.2707633), wk =   0.0080000
        k(  122) = (   1.1979566   0.8586307   0.2707633), wk =   0.0080000
        k(  123) = (  -0.0000000  -0.1717261   0.2707633), wk =   0.0080000
        k(  124) = (   0.1996594   0.0000000   0.2707633), wk =   0.0080000
        k(  125) = (   0.0000000  -0.3434523   0.3249160), wk =   0.0080000
        k(  126) = (   0.1996594  -0.1717261   0.3249160), wk =   0.0160000
        k(  127) = (   0.3993189   0.0000000   0.3249160), wk =   0.0080000
        k(  128) = (  -1.9965943  -0.5151784  -0.1624580), wk =   0.0080000
        k(  129) = (  -1.7969349  -0.3434523  -0.1624580), wk =   0.0160000
        k(  130) = (  -1.5972754  -0.1717261  -0.1624580), wk =   0.0160000
        k(  131) = (  -1.3976160   0.0000000  -0.1624580), wk =   0.0080000
        k(  132) = (   0.0000000   1.0303568  -0.1083053), wk =   0.0080000
        k(  133) = (  -1.7969349  -0.5151784  -0.1083053), wk =   0.0160000
        k(  134) = (  -1.5972754  -0.3434523  -0.1083053), wk =   0.0160000
        k(  135) = (  -1.3976160  -0.1717261  -0.1083053), wk =   0.0160000
        k(  136) = (  -1.1979566   0.0000000  -0.1083053), wk =   0.0080000
        k(  137) = (  -0.0000000   0.8586307  -0.0541527), wk =   0.0080000
        k(  138) = (   0.1996594   1.0303568  -0.0541527), wk =   0.0160000
        k(  139) = (  -1.5972754  -0.5151784  -0.0541527), wk =   0.0160000
        k(  140) = (  -1.3976160  -0.3434523  -0.0541527), wk =   0.0160000
        k(  141) = (  -1.1979566  -0.1717261  -0.0541527), wk =   0.0160000
        k(  142) = (  -0.9982971   0.0000000  -0.0541527), wk =   0.0080000
        k(  143) = (   0.0000000   0.6869045   0.0000000), wk =   0.0040000
        k(  144) = (   0.1996594   0.8586307   0.0000000), wk =   0.0080000
        k(  145) = (   0.3993189   1.0303568   0.0000000), wk =   0.0080000
        k(  146) = (  -1.3976160  -0.5151784   0.0000000), wk =   0.0080000
        k(  147) = (  -1.1979566  -0.3434523   0.0000000), wk =   0.0080000
        k(  148) = (  -0.9982971  -0.1717261   0.0000000), wk =   0.0080000
        k(  149) = (  -0.7986377   0.0000000   0.0000000), wk =   0.0040000
        k(  150) = (  -0.0000000   0.0000000   0.3249160), wk =   0.0040000
        k(  151) = (   0.0000000  -0.1717261   0.3790686), wk =   0.0080000
        k(  152) = (   0.1996594   0.0000000   0.3790686), wk =   0.0080000
        k(  153) = (  -1.9965943  -0.3434523  -0.1083053), wk =   0.0080000
        k(  154) = (  -1.7969349  -0.1717261  -0.1083053), wk =   0.0160000
        k(  155) = (  -1.5972754   0.0000000  -0.1083053), wk =   0.0080000
        k(  156) = (   0.0000000   1.2020829  -0.0541527), wk =   0.0080000
        k(  157) = (  -1.7969349  -0.3434523  -0.0541527), wk =   0.0160000
        k(  158) = (  -1.5972754  -0.1717261  -0.0541527), wk =   0.0160000
        k(  159) = (  -1.3976160   0.0000000  -0.0541527), wk =   0.0080000
        k(  160) = (  -0.0000000   1.0303568  -0.0000000), wk =   0.0040000
        k(  161) = (   0.1996594   1.2020829  -0.0000000), wk =   0.0080000
        k(  162) = (  -1.5972754  -0.3434523  -0.0000000), wk =   0.0080000
        k(  163) = (  -1.3976160  -0.1717261  -0.0000000), wk =   0.0080000
        k(  164) = (  -1.1979566   0.0000000  -0.0000000), wk =   0.0040000
        k(  165) = (   0.0000000   0.0000000   0.4332213), wk =   0.0040000
        k(  166) = (  -1.9965943  -0.1717261  -0.0541527), wk =   0.0080000
        k(  167) = (  -1.7969349   0.0000000  -0.0541527), wk =   0.0080000
        k(  168) = (   0.0000000   1.3738091   0.0000000), wk =   0.0040000
        k(  169) = (  -1.7969349  -0.1717261   0.0000000), wk =   0.0080000
        k(  170) = (  -1.5972754   0.0000000   0.0000000), wk =   0.0040000
        k(  171) = (  -1.9965943  -1.7172613  -0.5415266), wk =   0.0020000

                       cryst. coord.
        k(    1) = (   0.0000000   0.0000000   0.0000000), wk =   0.0020000
        k(    2) = (  -0.0000000   0.0000000   0.1000000), wk =   0.0080000
        k(    3) = (  -0.0000000   0.0000000   0.2000000), wk =   0.0080000
        k(    4) = (   0.0000000   0.0000000   0.3000000), wk =   0.0080000
        k(    5) = (  -0.0000000   0.0000000   0.4000000), wk =   0.0080000
        k(    6) = (   0.0000000   0.0000000  -0.5000000), wk =   0.0040000
        k(    7) = (  -0.0000000   0.1000000   0.0000000), wk =   0.0080000
        k(    8) = (  -0.0000000   0.1000000   0.1000000), wk =   0.0160000
        k(    9) = (  -0.0000000   0.1000000   0.2000000), wk =   0.0160000
        k(   10) = (  -0.0000000   0.1000000   0.3000000), wk =   0.0160000
        k(   11) = (  -0.0000000   0.1000000   0.4000000), wk =   0.0160000
        k(   12) = (   0.0000000   0.1000000  -0.5000000), wk =   0.0160000
        k(   13) = (   0.0000000   0.1000000  -0.4000000), wk =   0.0160000
        k(   14) = (   0.0000000   0.1000000  -0.3000000), wk =   0.0160000
        k(   15) = (   0.0000000   0.1000000  -0.2000000), wk =   0.0160000
        k(   16) = (   0.0000000   0.1000000  -0.1000000), wk =   0.0080000
        k(   17) = (  -0.0000000   0.2000000   0.0000000), wk =   0.0080000
        k(   18) = (  -0.0000000   0.2000000   0.1000000), wk =   0.0160000
        k(   19) = (  -0.0000000   0.2000000   0.2000000), wk =   0.0160000
        k(   20) = (   0.0000000   0.2000000   0.3000000), wk =   0.0160000
        k(   21) = (  -0.0000000   0.2000000   0.4000000), wk =   0.0160000
        k(   22) = (   0.0000000   0.2000000  -0.5000000), wk =   0.0160000
        k(   23) = (   0.0000000   0.2000000  -0.4000000), wk =   0.0160000
        k(   24) = (   0.0000000   0.2000000  -0.3000000), wk =   0.0160000
        k(   25) = (   0.0000000   0.2000000  -0.2000000), wk =   0.0080000
        k(   26) = (   0.0000000   0.2000000  -0.1000000), wk =   0.0160000
        k(   27) = (   0.0000000   0.3000000   0.0000000), wk =   0.0080000
        k(   28) = (  -0.0000000   0.3000000   0.1000000), wk =   0.0160000
        k(   29) = (   0.0000000   0.3000000   0.2000000), wk =   0.0160000
        k(   30) = (   0.0000000   0.3000000   0.3000000), wk =   0.0160000
        k(   31) = (  -0.0000000   0.3000000   0.4000000), wk =   0.0160000
        k(   32) = (   0.0000000   0.3000000  -0.5000000), wk =   0.0160000
        k(   33) = (   0.0000000   0.3000000  -0.4000000), wk =   0.0160000
        k(   34) = (   0.0000000   0.3000000  -0.3000000), wk =   0.0080000
        k(   35) = (   0.0000000   0.3000000  -0.2000000), wk =   0.0160000
        k(   36) = (   0.0000000   0.3000000  -0.1000000), wk =   0.0160000
        k(   37) = (  -0.0000000   0.4000000   0.0000000), wk =   0.0080000
        k(   38) = (  -0.0000000   0.4000000   0.1000000), wk =   0.0160000
        k(   39) = (  -0.0000000   0.4000000   0.2000000), wk =   0.0160000
        k(   40) = (  -0.0000000   0.4000000   0.3000000), wk =   0.0160000
        k(   41) = (  -0.0000000   0.4000000   0.4000000), wk =   0.0160000
        k(   42) = (   0.0000000   0.4000000  -0.5000000), wk =   0.0160000
        k(   43) = (   0.0000000   0.4000000  -0.4000000), wk =   0.0080000
        k(   44) = (   0.0000000   0.4000000  -0.3000000), wk =   0.0160000
        k(   45) = (   0.0000000   0.4000000  -0.2000000), wk =   0.0160000
        k(   46) = (  -0.0000000   0.4000000  -0.1000000), wk =   0.0160000
        k(   47) = (   0.0000000  -0.5000000   0.0000000), wk =   0.0040000
        k(   48) = (   0.0000000  -0.5000000   0.1000000), wk =   0.0160000
        k(   49) = (   0.0000000  -0.5000000   0.2000000), wk =   0.0160000
        k(   50) = (   0.0000000  -0.5000000   0.3000000), wk =   0.0160000
        k(   51) = (   0.0000000  -0.5000000   0.4000000), wk =   0.0160000
        k(   52) = (   0.0000000  -0.5000000  -0.5000000), wk =   0.0040000
        k(   53) = (   0.1000000   0.1000000   0.1000000), wk =   0.0160000
        k(   54) = (   0.1000000   0.1000000   0.2000000), wk =   0.0160000
        k(   55) = (   0.1000000   0.1000000   0.3000000), wk =   0.0160000
        k(   56) = (   0.1000000   0.1000000   0.4000000), wk =   0.0080000
        k(   57) = (   0.1000000   0.1000000  -0.1000000), wk =   0.0040000
        k(   58) = (   0.1000000   0.2000000   0.1000000), wk =   0.0160000
        k(   59) = (   0.1000000   0.2000000   0.2000000), wk =   0.0160000
        k(   60) = (   0.1000000   0.2000000   0.3000000), wk =   0.0160000
        k(   61) = (   0.1000000   0.2000000   0.4000000), wk =   0.0160000
        k(   62) = (   0.1000000   0.2000000  -0.5000000), wk =   0.0160000
        k(   63) = (   0.1000000   0.2000000  -0.4000000), wk =   0.0160000
        k(   64) = (   0.1000000   0.2000000  -0.2000000), wk =   0.0080000
        k(   65) = (   0.1000000   0.2000000  -0.1000000), wk =   0.0080000
        k(   66) = (   0.1000000   0.3000000   0.1000000), wk =   0.0160000
        k(   67) = (   0.1000000   0.3000000   0.2000000), wk =   0.0160000
        k(   68) = (   0.1000000   0.3000000   0.3000000), wk =   0.0160000
        k(   69) = (   0.1000000   0.3000000   0.4000000), wk =   0.0160000
        k(   70) = (   0.1000000   0.3000000  -0.5000000), wk =   0.0160000
        k(   71) = (   0.1000000   0.3000000  -0.3000000), wk =   0.0080000
        k(   72) = (   0.1000000   0.3000000  -0.2000000), wk =   0.0160000
        k(   73) = (   0.1000000   0.3000000  -0.1000000), wk =   0.0080000
        k(   74) = (   0.1000000   0.4000000   0.1000000), wk =   0.0080000
        k(   75) = (   0.1000000   0.4000000   0.2000000), wk =   0.0160000
        k(   76) = (   0.1000000   0.4000000   0.3000000), wk =   0.0160000
        k(   77) = (   0.1000000   0.4000000   0.4000000), wk =   0.0080000
        k(   78) = (   0.1000000   0.4000000  -0.4000000), wk =   0.0080000
        k(   79) = (   0.1000000   0.4000000  -0.3000000), wk =   0.0160000
        k(   80) = (   0.1000000   0.4000000  -0.2000000), wk =   0.0160000
        k(   81) = (   0.1000000   0.4000000  -0.1000000), wk =   0.0080000
        k(   82) = (   0.1000000  -0.5000000   0.2000000), wk =   0.0160000
        k(   83) = (   0.1000000  -0.5000000  -0.5000000), wk =   0.0080000
        k(   84) = (   0.1000000  -0.5000000  -0.4000000), wk =   0.0160000
        k(   85) = (   0.1000000  -0.5000000  -0.3000000), wk =   0.0160000
        k(   86) = (   0.1000000  -0.5000000  -0.2000000), wk =   0.0160000
        k(   87) = (   0.1000000  -0.5000000  -0.1000000), wk =   0.0080000
        k(   88) = (   0.1000000  -0.4000000   0.4000000), wk =   0.0080000
        k(   89) = (   0.1000000  -0.4000000  -0.5000000), wk =   0.0160000
        k(   90) = (   0.1000000  -0.4000000  -0.4000000), wk =   0.0160000
        k(   91) = (   0.1000000  -0.4000000  -0.3000000), wk =   0.0160000
        k(   92) = (   0.1000000  -0.4000000  -0.2000000), wk =   0.0160000
        k(   93) = (   0.1000000  -0.4000000  -0.1000000), wk =   0.0080000
        k(   94) = (   0.1000000  -0.3000000   0.3000000), wk =   0.0080000
        k(   95) = (   0.1000000  -0.3000000   0.4000000), wk =   0.0160000
        k(   96) = (   0.1000000  -0.3000000  -0.5000000), wk =   0.0160000
        k(   97) = (   0.1000000  -0.3000000  -0.4000000), wk =   0.0160000
        k(   98) = (   0.1000000  -0.3000000  -0.3000000), wk =   0.0160000
        k(   99) = (   0.1000000  -0.3000000  -0.2000000), wk =   0.0160000
        k(  100) = (   0.1000000  -0.3000000  -0.1000000), wk =   0.0080000
        k(  101) = (   0.1000000  -0.2000000   0.2000000), wk =   0.0080000
        k(  102) = (   0.1000000  -0.2000000   0.3000000), wk =   0.0160000
        k(  103) = (   0.1000000  -0.2000000   0.4000000), wk =   0.0160000
        k(  104) = (   0.1000000  -0.2000000  -0.5000000), wk =   0.0160000
        k(  105) = (   0.1000000  -0.2000000  -0.4000000), wk =   0.0160000
        k(  106) = (   0.1000000  -0.2000000  -0.3000000), wk =   0.0160000
        k(  107) = (   0.1000000  -0.2000000  -0.2000000), wk =   0.0160000
        k(  108) = (   0.1000000  -0.2000000  -0.1000000), wk =   0.0080000
        k(  109) = (   0.1000000  -0.1000000   0.1000000), wk =   0.0040000
        k(  110) = (   0.1000000  -0.1000000   0.2000000), wk =   0.0080000
        k(  111) = (   0.1000000  -0.1000000   0.3000000), wk =   0.0080000
        k(  112) = (   0.1000000  -0.1000000   0.4000000), wk =   0.0080000
        k(  113) = (   0.1000000  -0.1000000  -0.5000000), wk =   0.0080000
        k(  114) = (   0.1000000  -0.1000000  -0.4000000), wk =   0.0080000
        k(  115) = (   0.1000000  -0.1000000  -0.3000000), wk =   0.0080000
        k(  116) = (   0.1000000  -0.1000000  -0.2000000), wk =   0.0080000
        k(  117) = (   0.1000000  -0.1000000  -0.1000000), wk =   0.0040000
        k(  118) = (   0.2000000   0.2000000   0.2000000), wk =   0.0160000
        k(  119) = (   0.2000000   0.2000000   0.3000000), wk =   0.0080000
        k(  120) = (   0.2000000   0.2000000  -0.2000000), wk =   0.0040000
        k(  121) = (   0.2000000   0.3000000   0.2000000), wk =   0.0080000
        k(  122) = (   0.2000000   0.3000000   0.3000000), wk =   0.0080000
        k(  123) = (   0.2000000   0.3000000  -0.3000000), wk =   0.0080000
        k(  124) = (   0.2000000   0.3000000  -0.2000000), wk =   0.0080000
        k(  125) = (   0.2000000   0.4000000  -0.4000000), wk =   0.0080000
        k(  126) = (   0.2000000   0.4000000  -0.3000000), wk =   0.0160000
        k(  127) = (   0.2000000   0.4000000  -0.2000000), wk =   0.0080000
        k(  128) = (   0.2000000  -0.5000000  -0.5000000), wk =   0.0080000
        k(  129) = (   0.2000000  -0.5000000  -0.4000000), wk =   0.0160000
        k(  130) = (   0.2000000  -0.5000000  -0.3000000), wk =   0.0160000
        k(  131) = (   0.2000000  -0.5000000  -0.2000000), wk =   0.0080000
        k(  132) = (   0.2000000  -0.4000000   0.4000000), wk =   0.0080000
        k(  133) = (   0.2000000  -0.4000000  -0.5000000), wk =   0.0160000
        k(  134) = (   0.2000000  -0.4000000  -0.4000000), wk =   0.0160000
        k(  135) = (   0.2000000  -0.4000000  -0.3000000), wk =   0.0160000
        k(  136) = (   0.2000000  -0.4000000  -0.2000000), wk =   0.0080000
        k(  137) = (   0.2000000  -0.3000000   0.3000000), wk =   0.0080000
        k(  138) = (   0.2000000  -0.3000000   0.4000000), wk =   0.0160000
        k(  139) = (   0.2000000  -0.3000000  -0.5000000), wk =   0.0160000
        k(  140) = (   0.2000000  -0.3000000  -0.4000000), wk =   0.0160000
        k(  141) = (   0.2000000  -0.3000000  -0.3000000), wk =   0.0160000
        k(  142) = (   0.2000000  -0.3000000  -0.2000000), wk =   0.0080000
        k(  143) = (   0.2000000  -0.2000000   0.2000000), wk =   0.0040000
        k(  144) = (   0.2000000  -0.2000000   0.3000000), wk =   0.0080000
        k(  145) = (   0.2000000  -0.2000000   0.4000000), wk =   0.0080000
        k(  146) = (   0.2000000  -0.2000000  -0.5000000), wk =   0.0080000
        k(  147) = (   0.2000000  -0.2000000  -0.4000000), wk =   0.0080000
        k(  148) = (   0.2000000  -0.2000000  -0.3000000), wk =   0.0080000
        k(  149) = (   0.2000000  -0.2000000  -0.2000000), wk =   0.0040000
        k(  150) = (   0.3000000   0.3000000  -0.3000000), wk =   0.0040000
        k(  151) = (   0.3000000   0.4000000  -0.4000000), wk =   0.0080000
        k(  152) = (   0.3000000   0.4000000  -0.3000000), wk =   0.0080000
        k(  153) = (   0.3000000  -0.5000000  -0.5000000), wk =   0.0080000
        k(  154) = (   0.3000000  -0.5000000  -0.4000000), wk =   0.0160000
        k(  155) = (   0.3000000  -0.5000000  -0.3000000), wk =   0.0080000
        k(  156) = (   0.3000000  -0.4000000   0.4000000), wk =   0.0080000
        k(  157) = (   0.3000000  -0.4000000  -0.5000000), wk =   0.0160000
        k(  158) = (   0.3000000  -0.4000000  -0.4000000), wk =   0.0160000
        k(  159) = (   0.3000000  -0.4000000  -0.3000000), wk =   0.0080000
        k(  160) = (   0.3000000  -0.3000000   0.3000000), wk =   0.0040000
        k(  161) = (   0.3000000  -0.3000000   0.4000000), wk =   0.0080000
        k(  162) = (   0.3000000  -0.3000000  -0.5000000), wk =   0.0080000
        k(  163) = (   0.3000000  -0.3000000  -0.4000000), wk =   0.0080000
        k(  164) = (   0.3000000  -0.3000000  -0.3000000), wk =   0.0040000
        k(  165) = (   0.4000000   0.4000000  -0.4000000), wk =   0.0040000
        k(  166) = (   0.4000000  -0.5000000  -0.5000000), wk =   0.0080000
        k(  167) = (   0.4000000  -0.5000000  -0.4000000), wk =   0.0080000
        k(  168) = (   0.4000000  -0.4000000   0.4000000), wk =   0.0040000
        k(  169) = (   0.4000000  -0.4000000  -0.5000000), wk =   0.0080000
        k(  170) = (   0.4000000  -0.4000000  -0.4000000), wk =   0.0040000
        k(  171) = (  -0.5000000  -0.5000000  -0.5000000), wk =   0.0020000

     Dense  grid:   384583 G-vectors     FFT dimensions: ( 144, 144, 144)

     Smooth grid:    97215 G-vectors     FFT dimensions: (  90,  90,  90)

     Dynamical RAM for                 wfc:       0.08 MB

     Dynamical RAM for     wfc (w. buffer):      13.94 MB

     Dynamical RAM for           str. fact:       0.37 MB

     Dynamical RAM for           local pot:       0.00 MB

     Dynamical RAM for          nlocal pot:       0.16 MB

     Dynamical RAM for                qrad:       8.33 MB

     Dynamical RAM for          rho,v,vnew:       1.79 MB

     Dynamical RAM for               rhoin:       0.60 MB

     Dynamical RAM for            rho*nmix:       1.96 MB

     Dynamical RAM for           G-vectors:       0.47 MB

     Dynamical RAM for          h,s,v(r/c):       0.08 MB

     Dynamical RAM for          <psi|beta>:       0.01 MB

     Dynamical RAM for                 psi:       0.16 MB

     Dynamical RAM for                hpsi:       0.16 MB

     Dynamical RAM for                spsi:       0.16 MB

     Dynamical RAM for      wfcinit/wfcrot:       0.21 MB

     Dynamical RAM for           addusdens:      22.98 MB

     Dynamical RAM for          addusforce:      23.30 MB

     Dynamical RAM for         addusstress:      24.57 MB

     Estimated static dynamical RAM per process >      30.49 MB

     Estimated max dynamical RAM per process >      55.06 MB

     Estimated total dynamical RAM >       2.58 GB

     Initial potential from superposition of free atoms

     starting charge   32.99867, renormalised to   33.00000
     Starting wfcs are   25 randomized atomic wfcs
     Checking if some PAW data can be deallocated... 
       PAW data deallocated on   36 nodes for type:  1
       PAW data deallocated on   24 nodes for type:  2
       PAW data deallocated on   36 nodes for type:  3

     total cpu time spent up to now is        4.9 secs

     Self-consistent Calculation

     iteration #  1     ecut=   120.00 Ry     beta= 0.70
     Davidson diagonalization with overlap
     ethr =  1.00E-02,  avg # of iterations =  2.2

     total cpu time spent up to now is       13.2 secs

     total energy              =    -534.52924806 Ry
     estimated scf accuracy    <       0.76093735 Ry

     iteration #  2     ecut=   120.00 Ry     beta= 0.70
     Davidson diagonalization with overlap
     ethr =  2.31E-03,  avg # of iterations =  3.7

     total cpu time spent up to now is       23.1 secs

     total energy              =    -533.59242509 Ry
     estimated scf accuracy    <       8.55406940 Ry

     iteration #  3     ecut=   120.00 Ry     beta= 0.70
     Davidson diagonalization with overlap
     ethr =  2.31E-03,  avg # of iterations =  3.5

     total cpu time spent up to now is       32.2 secs

     total energy              =    -534.97551802 Ry
     estimated scf accuracy    <       0.12691693 Ry

     iteration #  4     ecut=   120.00 Ry     beta= 0.70
     Davidson diagonalization with overlap
     ethr =  3.85E-04,  avg # of iterations =  1.3

     total cpu time spent up to now is       39.6 secs

     total energy              =    -534.96783724 Ry
     estimated scf accuracy    <       0.06126688 Ry

     iteration #  5     ecut=   120.00 Ry     beta= 0.70
     Davidson diagonalization with overlap
     ethr =  1.86E-04,  avg # of iterations =  1.5

     total cpu time spent up to now is       47.0 secs

     total energy              =    -534.96475231 Ry
     estimated scf accuracy    <       0.02300910 Ry

     iteration #  6     ecut=   120.00 Ry     beta= 0.70
     Davidson diagonalization with overlap
     ethr =  6.97E-05,  avg # of iterations =  1.9

     total cpu time spent up to now is       54.6 secs

     total energy              =    -534.96712434 Ry
     estimated scf accuracy    <       0.00078668 Ry

     iteration #  7     ecut=   120.00 Ry     beta= 0.70
     Davidson diagonalization with overlap
     ethr =  2.38E-06,  avg # of iterations =  3.4

     total cpu time spent up to now is       64.3 secs

     total energy              =    -534.96736338 Ry
     estimated scf accuracy    <       0.00016172 Ry

     iteration #  8     ecut=   120.00 Ry     beta= 0.70
     Davidson diagonalization with overlap
     ethr =  4.90E-07,  avg # of iterations =  1.4

     total cpu time spent up to now is       71.7 secs

     total energy              =    -534.96736005 Ry
     estimated scf accuracy    <       0.00003645 Ry

     iteration #  9     ecut=   120.00 Ry     beta= 0.70
     Davidson diagonalization with overlap
     ethr =  1.10E-07,  avg # of iterations =  2.0

     total cpu time spent up to now is       79.8 secs

     total energy              =    -534.96736851 Ry
     estimated scf accuracy    <       0.00000111 Ry

     iteration # 10     ecut=   120.00 Ry     beta= 0.70
     Davidson diagonalization with overlap
     ethr =  3.36E-09,  avg # of iterations =  3.7

     total cpu time spent up to now is       89.4 secs

     total energy              =    -534.96736893 Ry
     estimated scf accuracy    <          7.2E-09 Ry

     iteration # 11     ecut=   120.00 Ry     beta= 0.70
     Davidson diagonalization with overlap
     ethr =  2.17E-11,  avg # of iterations =  5.2

     total cpu time spent up to now is      102.3 secs

     total energy              =    -534.96736894 Ry
     estimated scf accuracy    <       0.00000002 Ry

     iteration # 12     ecut=   120.00 Ry     beta= 0.70
     Davidson diagonalization with overlap
     ethr =  2.17E-11,  avg # of iterations =  3.0

     total cpu time spent up to now is      111.1 secs

     total energy              =    -534.96736895 Ry
     estimated scf accuracy    <          6.7E-10 Ry

     iteration # 13     ecut=   120.00 Ry     beta= 0.70
     Davidson diagonalization with overlap
     ethr =  2.04E-12,  avg # of iterations =  2.0

     total cpu time spent up to now is      118.7 secs

     End of self-consistent calculation

          k = 0.0000 0.0000 0.0000 ( 12131 PWs)   bands (ev):

   -49.8736 -26.1454 -25.7952 -25.7124 -12.4387  -9.4969  -8.8068   0.6406
     2.4904   2.7193   2.8783   2.9582   3.4312   3.9405   4.1898   4.2873
     5.5239   7.1801   7.3230   8.6661   9.3624

     occupation numbers 
     1.0000   1.0000   1.0000   1.0000   1.0000   1.0000   1.0000   1.0000
     1.0000   1.0000   1.0000   1.0000   1.0000   1.0000   1.0000   1.0000
     1.0000  -0.0029  -0.0001  -0.0000  -0.0000

          k = 0.1997 0.1717 0.0000 ( 12123 PWs)   bands (ev):

   -49.8719 -26.1618 -25.7909 -25.7326 -12.3122  -9.4264  -8.8116   0.7771
     2.2262   2.3493   2.5868   3.1342   3.2692   3.7437   3.8830   4.0611
     5.8232   7.3910   7.4797   8.7256   9.8418

     occupation numbers 
     1.0000   1.0000   1.0000   1.0000   1.0000   1.0000   1.0000   1.0000
     1.0000   1.0000   1.0000   1.0000   1.0000   1.0000   1.0000   1.0000
     1.0000  -0.0000  -0.0000  -0.0000  -0.0000

          k = 0.3993 0.3435 0.0000 ( 12142 PWs)   bands (ev):

   -49.8674 -26.2037 -25.7850 -25.7797 -11.9683  -9.2346  -8.8260   1.1435
     1.6426   1.8235   2.0544   2.3867   2.7093   3.1659   3.8723   4.0006
     6.4463   7.8534   7.9273   8.9886  10.7709

     occupation numbers 
     1.0000   1.0000   1.0000   1.0000   1.0000   1.0000   1.0000   1.0000
     1.0000   1.0000   1.0000   1.0000   1.0000   1.0000   1.0000   1.0000
     1.0319  -0.0000  -0.0000  -0.0000  -0.0000

          k = 0.5990 0.5152 0.0000 ( 12161 PWs)   bands (ev):

   -49.8619 -26.2539 -25.8487 -25.7658 -11.5122  -8.9809  -8.8473   0.5289
     1.4164   1.6640   1.7279   1.8185   1.8785   2.6924   3.7395   4.0092
     7.2462   8.4197   8.5700   9.3639  11.3232

     occupation numbers 
     1.0000   1.0000   1.0000   1.0000   1.0000   1.0000   1.0000   1.0000
     1.0000   1.0000   1.0000   1.0000   1.0000   1.0000   1.0000   1.0000
    -0.0008  -0.0000  -0.0000  -0.0000  -0.0000

          k = 0.7986 0.6869 0.0000 ( 12158 PWs)   bands (ev):

   -49.8574 -26.2932 -25.8995 -25.7546 -11.1110  -8.8673  -8.7586  -0.3106
     0.8205   1.1711   1.6803   1.7850   2.2210   2.3343   3.4487   3.9496
     8.0761   8.9299   9.1351   9.6549  11.3625

     occupation numbers 
     1.0000   1.0000   1.0000   1.0000   1.0000   1.0000   1.0000   1.0000
     1.0000   1.0000   1.0000   1.0000   1.0000   1.0000   1.0000   1.0000
    -0.0000  -0.0000  -0.0000  -0.0000  -0.0000

          k =-0.9983-0.8586 0.0000 ( 12140 PWs)   bands (ev):

   -49.8557 -26.3080 -25.9187 -25.7503 -10.9482  -8.8756  -8.6686  -0.6298
     0.5811   0.9695   1.7529   1.8534   1.9617   2.6003   3.2785   3.8764
     8.4829   9.1497   9.3386   9.7819  11.3919

     occupation numbers 
     1.0000   1.0000   1.0000   1.0000   1.0000   1.0000   1.0000   1.0000
     1.0000   1.0000   1.0000   1.0000   1.0000   1.0000   1.0000   1.0000
    -0.0000  -0.0000  -0.0000  -0.0000  -0.0000

          k = 0.1997 0.0000 0.0542 ( 12144 PWs)   bands (ev):

   -49.8722 -26.1438 -25.7915 -25.7332 -12.4275  -9.4389  -8.8153   0.7646
     2.3410   2.6810   2.9205   3.0021   3.2279   3.8733   3.9721   4.1361
     5.8115   7.1220   7.2846   8.7147   9.6246

     occupation numbers 
     1.0000   1.0000   1.0000   1.0000   1.0000   1.0000   1.0000   1.0000
     1.0000   1.0000   1.0000   1.0000   1.0000   1.0000   1.0000   1.0000
     1.0000  -0.0075  -0.0003  -0.0000  -0.0000

          k = 0.3993 0.1717 0.0542 ( 12149 PWs)   bands (ev):

   -49.8683 -26.1574 -25.7866 -25.7814 -12.2833  -9.2743  -8.8276   1.0778
     2.0469   2.2934   2.5380   2.6183   3.1364   3.2170   3.8525   4.0532
     6.4141   7.2384   7.3647   8.9745  10.2779

     occupation numbers 
     1.0000   1.0000   1.0000   1.0000   1.0000   1.0000   1.0000   1.0000
     1.0000   1.0000   1.0000   1.0000   1.0000   1.0000   1.0000   1.0000
     1.0354  -0.0009  -0.0000  -0.0000  -0.0000

          k = 0.5990 0.3435 0.0542 ( 12156 PWs)   bands (ev):

   -49.8629 -26.1980 -25.8509 -25.7679 -11.9335  -9.0339  -8.8467   1.4007
     1.5918   1.7915   1.9290   2.0005   2.2209   2.8028   3.8407   4.1042
     7.1734   7.7054   7.8171   9.4040  10.9594

     occupation numbers 
     1.0000   1.0000   1.0000   1.0000   1.0000   1.0000   1.0000   1.0000
     1.0000   1.0000   1.0000   1.0000   1.0000   1.0000   1.0000   1.0000
    -0.0032  -0.0000  -0.0000  -0.0000  -0.0000

          k = 0.7986 0.5152 0.0542 ( 12169 PWs)   bands (ev):

   -49.8583 -26.2490 -25.9014 -25.7563 -11.4851  -8.8740  -8.7961   0.5502
     1.1234   1.1340   1.7017   1.8729   2.3327   2.3613   3.5922   4.0711
     7.9823   8.3410   8.5077   9.7178  11.2302

     occupation numbers 
     1.0000   1.0000   1.0000   1.0000   1.0000   1.0000   1.0000   1.0000
     1.0000   1.0000   1.0000   1.0000   1.0000   1.0000   1.0000   1.0000
    -0.0000  -0.0000  -0.0000  -0.0000  -0.0000

          k = 0.9983 0.6869 0.0542 ( 12165 PWs)   bands (ev):

   -49.8561 -26.2913 -25.9195 -25.7510 -11.1011  -8.8835  -8.6774  -0.3028
     0.6802   0.9473   1.6067   1.9506   2.1074   2.6179   3.3263   3.9201
     8.4755   8.8838   9.1060   9.7719  11.3104

     occupation numbers 
     1.0000   1.0000   1.0000   1.0000   1.0000   1.0000   1.0000   1.0000
     1.0000   1.0000   1.0000   1.0000   1.0000   1.0000   1.0000   1.0000
    -0.0000  -0.0000  -0.0000  -0.0000  -0.0000

          k =-0.7986-0.8586 0.0542 ( 12168 PWs)   bands (ev):

   -49.8571 -26.3099 -25.8988 -25.7540 -10.9578  -8.8795  -8.7281  -0.6367
     0.7008   1.1598   1.4942   1.8293   2.2972   2.4357   3.3828   3.8452
     8.1125   9.1856   9.3716   9.5880  11.3225

     occupation numbers 
     1.0000   1.0000   1.0000   1.0000   1.0000   1.0000   1.0000   1.0000
     1.0000   1.0000   1.0000   1.0000   1.0000   1.0000   1.0000   1.0000
    -0.0000  -0.0000  -0.0000  -0.0000  -0.0000

          k =-0.5990-0.6869 0.0542 ( 12172 PWs)   bands (ev):

   -49.8611 -26.2983 -25.8470 -25.7641 -11.1367  -8.9260  -8.8596  -0.3305
     1.1488   1.4043   1.7359   1.7594   1.9247   2.7240   3.6351   3.8394
     7.3063   9.0321   9.1604   9.3165  11.4363

     occupation numbers 
     1.0000   1.0000   1.0000   1.0000   1.0000   1.0000   1.0000   1.0000
     1.0000   1.0000   1.0000   1.0000   1.0000   1.0000   1.0000   1.0000
    -0.0002  -0.0000  -0.0000  -0.0000  -0.0000

          k =-0.3993-0.5152 0.0542 ( 12158 PWs)   bands (ev):

   -49.8664 -26.2599 -25.7830 -25.7776 -11.5455  -9.1738  -8.8372   0.5008
     1.2748   1.4217   1.9111   2.0526   2.6088   3.1576   3.7663   3.8734
     6.5065   8.5885   8.6224   8.9981  11.1458

     occupation numbers 
     1.0000   1.0000   1.0000   1.0000   1.0000   1.0000   1.0000   1.0000
     1.0000   1.0000   1.0000   1.0000   1.0000   1.0000   1.0000   1.0000
     0.9925  -0.0000  -0.0000  -0.0000  -0.0000

          k =-0.1997-0.3435 0.0542 ( 12131 PWs)   bands (ev):

   -49.8711 -26.2082 -25.7892 -25.7311 -11.9964  -9.3794  -8.8197   0.8484
     1.6119   1.6804   2.3589   2.7948   3.3748   3.5430   3.8025   3.9120
     5.8684   8.0190   8.0356   8.7512  10.2970

     occupation numbers 
     1.0000   1.0000   1.0000   1.0000   1.0000   1.0000   1.0000   1.0000
     1.0000   1.0000   1.0000   1.0000   1.0000   1.0000   1.0000   1.0000
     1.0000  -0.0000  -0.0000  -0.0000  -0.0000

          k = 0.0000-0.1717 0.0542 ( 12115 PWs)   bands (ev):

   -49.8733 -26.1634 -25.7945 -25.7119 -12.3232  -9.4773  -8.8123   0.6747
     2.1944   2.5051   2.5777   3.2931   3.3181   3.8284   3.9976   4.2069
     5.5435   7.4624   7.5240   8.6853   9.5944

     occupation numbers 
     1.0000   1.0000   1.0000   1.0000   1.0000   1.0000   1.0000   1.0000
     1.0000   1.0000   1.0000   1.0000   1.0000   1.0000   1.0000   1.0000
     1.0000  -0.0000  -0.0000  -0.0000  -0.0000

          k = 0.3993 0.0000 0.1083 ( 12140 PWs)   bands (ev):

   -49.8686 -26.1396 -25.7873 -25.7820 -12.3982  -9.2828  -8.8358   1.0635
     2.0609   2.4181   2.6471   2.9802   3.1882   3.5195   3.8269   3.9882
     6.4241   6.9839   7.1613   8.9378  10.0082

     occupation numbers 
     1.0000   1.0000   1.0000   1.0000   1.0000   1.0000   1.0000   1.0000
     1.0000   1.0000   1.0000   1.0000   1.0000   1.0000   1.0000   1.0000
     1.0352  -0.0324  -0.0040  -0.0000  -0.0000

          k = 0.5990 0.1717 0.1083 ( 12167 PWs)   bands (ev):

   -49.8638 -26.1521 -25.8527 -25.7695 -12.2475  -9.0727  -8.8497   1.3248
     1.6842   1.8951   2.2329   2.6554   2.9553   3.1336   3.8211   4.0000
     7.0136   7.1840   7.2751   9.3876  10.3861

     occupation numbers 
     1.0000   1.0000   1.0000   1.0000   1.0000   1.0000   1.0000   1.0000
     1.0000   1.0000   1.0000   1.0000   1.0000   1.0000   1.0000   1.0000
    -0.0268  -0.0027  -0.0004  -0.0000  -0.0000

          k = 0.7986 0.3435 0.1083 ( 12170 PWs)   bands (ev):

   -49.8593 -26.1935 -25.9036 -25.7583 -11.9052  -8.9054  -8.8176   1.0286
     1.4284   1.6266   1.7892   1.9593   2.4972   2.7793   3.7564   4.0996
     7.4702   7.7103   8.0838   9.7379  10.8140

     occupation numbers 
     1.0000   1.0000   1.0000   1.0000   1.0000   1.0000   1.0000   1.0000
     1.0000   1.0000   1.0000   1.0000   1.0000   1.0000   1.0000   1.0000
    -0.0000  -0.0000  -0.0000  -0.0000  -0.0000

          k = 0.9983 0.5152 0.1083 ( 12171 PWs)   bands (ev):

   -49.8569 -26.2472 -25.9213 -25.7526 -11.4747  -8.9040  -8.7001   0.5523
     0.8665   1.0071   1.4819   1.9712   2.4602   2.6999   3.4659   4.0103
     8.1992   8.4791   8.4894   9.7603  11.0650

     occupation numbers 
     1.0000   1.0000   1.0000   1.0000   1.0000   1.0000   1.0000   1.0000
     1.0000   1.0000   1.0000   1.0000   1.0000   1.0000   1.0000   1.0000
    -0.0000  -0.0000  -0.0000  -0.0000  -0.0000

          k = 1.1980 0.6869 0.1083 ( 12179 PWs)   bands (ev):

   -49.8574 -26.2932 -25.8995 -25.7546 -11.1109  -8.9047  -8.7178  -0.3107
     0.7855   1.1012   1.3852   1.9055   2.4463   2.5728   3.4200   3.8259
     8.1284   8.9206   9.1374   9.5281  11.1998

     occupation numbers 
     1.0000   1.0000   1.0000   1.0000   1.0000   1.0000   1.0000   1.0000
     1.0000   1.0000   1.0000   1.0000   1.0000   1.0000   1.0000   1.0000
    -0.0000  -0.0000  -0.0000  -0.0000  -0.0000

          k =-0.5990-0.8586 0.1083 ( 12174 PWs)   bands (ev):

   -49.8607 -26.3151 -25.8463 -25.7635 -10.9827  -8.8903  -8.8787  -0.6548
     1.0069   1.2859   1.6863   1.7075   2.1113   2.8006   3.6113   3.6940
     7.3483   9.1378   9.3376   9.4442  11.4214

     occupation numbers 
     1.0000   1.0000   1.0000   1.0000   1.0000   1.0000   1.0000   1.0000
     1.0000   1.0000   1.0000   1.0000   1.0000   1.0000   1.0000   1.0000
    -0.0001  -0.0000  -0.0000  -0.0000  -0.0000

          k =-0.3993-0.6869 0.1083 ( 12185 PWs)   bands (ev):

   -49.8655 -26.3045 -25.7813 -25.7759 -11.1680  -9.1069  -8.8662  -0.3544
     1.1127   1.4224   1.6216   1.9868   2.5784   3.1206   3.5874   3.8332
     6.5647   8.8733   9.2107   9.2938  11.3507

     occupation numbers 
     1.0000   1.0000   1.0000   1.0000   1.0000   1.0000   1.0000   1.0000
     1.0000   1.0000   1.0000   1.0000   1.0000   1.0000   1.0000   1.0000
     0.8925  -0.0000  -0.0000  -0.0000  -0.0000

          k =-0.1997-0.5152 0.1083 ( 12132 PWs)   bands (ev):

   -49.8700 -26.2647 -25.7871 -25.7292 -11.5722  -9.3099  -8.8436   0.4767
     0.9569   1.2753   2.3016   2.4406   3.1105   3.5152   3.6406   3.9282
     5.9236   8.6758   8.7704   8.8248  10.7173

     occupation numbers 
     1.0000   1.0000   1.0000   1.0000   1.0000   1.0000   1.0000   1.0000
     1.0000   1.0000   1.0000   1.0000   1.0000   1.0000   1.0000   1.0000
     1.0000  -0.0000  -0.0000  -0.0000  -0.0000

          k = 0.0000-0.3435 0.1083 ( 12124 PWs)   bands (ev):

   -49.8724 -26.2100 -25.7928 -25.7104 -12.0070  -9.4228  -8.8301   0.7626
     1.5935   1.6512   2.5444   3.0268   3.2848   3.5849   3.9167   4.0821
     5.5843   8.0535   8.1220   8.7360  10.0711

     occupation numbers 
     1.0000   1.0000   1.0000   1.0000   1.0000   1.0000   1.0000   1.0000
     1.0000   1.0000   1.0000   1.0000   1.0000   1.0000   1.0000   1.0000
     1.0000  -0.0000  -0.0000  -0.0000  -0.0000

          k = 0.1997-0.1717 0.1083 ( 12128 PWs)   bands (ev):

   -49.8719 -26.1618 -25.7909 -25.7326 -12.3120  -9.4132  -8.8279   0.8185
     2.2362   2.3503   2.5890   3.1144   3.2435   3.6643   3.9128   4.0602
     5.8380   7.3873   7.4933   8.7235   9.8937

     occupation numbers 
     1.0000   1.0000   1.0000   1.0000   1.0000   1.0000   1.0000   1.0000
     1.0000   1.0000   1.0000   1.0000   1.0000   1.0000   1.0000   1.0000
     1.0000  -0.0000  -0.0000  -0.0000  -0.0000

          k = 0.5990 0.0000 0.1625 ( 12144 PWs)   bands (ev):

   -49.8641 -26.1343 -25.8533 -25.7702 -12.3622  -9.0879  -8.8499   1.2686
     1.6043   1.9586   2.3364   3.0576   3.3867   3.4663   3.7140   3.7918
     6.8437   6.9426   7.2246   9.3251  10.0483

     occupation numbers 
     1.0000   1.0000   1.0000   1.0000   1.0000   1.0000   1.0000   1.0000
     1.0000   1.0000   1.0000   1.0000   1.0000   1.0000   1.0000   1.0000
     0.0272  -0.0353  -0.0012  -0.0000  -0.0000

          k = 0.7986 0.1717 0.1625 ( 12183 PWs)   bands (ev):

   -49.8602 -26.1477 -25.9055 -25.7599 -12.2187  -8.9450  -8.8195   0.9599
     1.4230   1.8724   2.0015   2.7886   2.9274   3.3126   3.8007   3.9438
     6.9433   7.0037   8.0455   9.6910  10.2348

     occupation numbers 
     1.0000   1.0000   1.0000   1.0000   1.0000   1.0000   1.0000   1.0000
     1.0000   1.0000   1.0000   1.0000   1.0000   1.0000   1.0000   1.0000
    -0.0353  -0.0288  -0.0000  -0.0000  -0.0000

          k = 0.9983 0.3435 0.1625 ( 12171 PWs)   bands (ev):

   -49.8579 -26.1917 -25.9237 -25.7546 -11.8944  -8.9291  -8.7277   0.7614
     1.3463   1.4698   1.7630   1.9693   2.7345   3.0227   3.6667   4.0348
     7.4558   7.6649   8.4632   9.7382  10.6497

     occupation numbers 
     1.0000   1.0000   1.0000   1.0000   1.0000   1.0000   1.0000   1.0000
     1.0000   1.0000   1.0000   1.0000   1.0000   1.0000   1.0000   1.0000
    -0.0000  -0.0000  -0.0000  -0.0000  -0.0000

          k = 1.1980 0.5152 0.1625 ( 12179 PWs)   bands (ev):

   -49.8583 -26.2490 -25.9014 -25.7563 -11.4849  -8.9359  -8.7288   0.5481
     0.9982   1.1071   1.3245   2.0322   2.6045   2.7238   3.5581   3.9054
     8.1150   8.2738   8.5135   9.5005  10.9773

     occupation numbers 
     1.0000   1.0000   1.0000   1.0000   1.0000   1.0000   1.0000   1.0000
     1.0000   1.0000   1.0000   1.0000   1.0000   1.0000   1.0000   1.0000
    -0.0000  -0.0000  -0.0000  -0.0000  -0.0000

          k = 1.3976 0.6869 0.1625 ( 12174 PWs)   bands (ev):

   -49.8611 -26.2983 -25.8470 -25.7642 -11.1364  -8.9352  -8.8488  -0.3310
     1.0739   1.2930   1.6162   1.7104   2.2970   2.8690   3.6283   3.7111
     7.3618   8.9655   9.1958   9.2240  11.3275

     occupation numbers 
     1.0000   1.0000   1.0000   1.0000   1.0000   1.0000   1.0000   1.0000
     1.0000   1.0000   1.0000   1.0000   1.0000   1.0000   1.0000   1.0000
    -0.0000  -0.0000  -0.0000  -0.0000  -0.0000

          k =-0.3993-0.8586 0.1625 ( 12181 PWs)   bands (ev):

   -49.8652 -26.3214 -25.7807 -25.7753 -11.0130  -9.0555  -8.9048  -0.6771
     1.0219   1.3713   1.6960   1.8847   2.5915   3.0557   3.5012   3.8515
     6.6008   8.8534   9.4552   9.5082  11.4133

     occupation numbers 
     1.0000   1.0000   1.0000   1.0000   1.0000   1.0000   1.0000   1.0000
     1.0000   1.0000   1.0000   1.0000   1.0000   1.0000   1.0000   1.0000
     0.7951  -0.0000  -0.0000  -0.0000  -0.0000

          k =-0.1997-0.6869 0.1625 ( 12157 PWs)   bands (ev):

   -49.8692 -26.3095 -25.7854 -25.7276 -11.1930  -9.2375  -8.8824  -0.3735
     0.8565   1.2551   2.0329   2.3339   2.8923   3.4643   3.5372   3.9544
     5.9702   8.7936   9.3074   9.3690  11.0037

     occupation numbers 
     1.0000   1.0000   1.0000   1.0000   1.0000   1.0000   1.0000   1.0000
     1.0000   1.0000   1.0000   1.0000   1.0000   1.0000   1.0000   1.0000
     1.0000  -0.0000  -0.0000  -0.0000  -0.0000

          k =-0.0000-0.5152 0.1625 ( 12150 PWs)   bands (ev):

   -49.8714 -26.2665 -25.7907 -25.7085 -11.5822  -9.3475  -8.8617   0.4651
     0.8624   1.2684   2.5947   2.7034   2.7637   3.5322   3.9607   3.9937
     5.6310   8.7291   8.7961   8.8648  10.5277

     occupation numbers 
     1.0000   1.0000   1.0000   1.0000   1.0000   1.0000   1.0000   1.0000
     1.0000   1.0000   1.0000   1.0000   1.0000   1.0000   1.0000   1.0000
     1.0000  -0.0000  -0.0000  -0.0000  -0.0000

          k = 0.1997-0.3435 0.1625 ( 12136 PWs)   bands (ev):

   -49.8711 -26.2082 -25.7892 -25.7311 -11.9960  -9.3547  -8.8495   0.9148
     1.6052   1.7349   2.3484   2.7907   3.1591   3.5575   3.7237   4.0415
     5.8871   8.0274   8.0360   8.7526  10.3900

     occupation numbers 
     1.0000   1.0000   1.0000   1.0000   1.0000   1.0000   1.0000   1.0000
     1.0000   1.0000   1.0000   1.0000   1.0000   1.0000   1.0000   1.0000
     1.0000  -0.0000  -0.0000  -0.0000  -0.0000

          k = 0.3993-0.1717 0.1625 ( 12150 PWs)   bands (ev):

   -49.8683 -26.1574 -25.7866 -25.7814 -12.2830  -9.2571  -8.8470   1.1067
     2.0618   2.2416   2.4981   2.6226   3.1106   3.2889   3.8519   4.0524
     6.4500   7.2179   7.3838   8.9010  10.2847

     occupation numbers 
     1.0000   1.0000   1.0000   1.0000   1.0000   1.0000   1.0000   1.0000
     1.0000   1.0000   1.0000   1.0000   1.0000   1.0000   1.0000   1.0000
     1.0309  -0.0014  -0.0000  -0.0000  -0.0000

          k = 0.7986 0.0000 0.2166 ( 12180 PWs)   bands (ev):

   -49.8605 -26.1300 -25.9062 -25.7606 -12.3332  -8.9717  -8.8072   0.9117
     1.3383   2.0090   2.0535   3.1702   3.4378   3.5118   3.7078   3.8134
     6.6904   6.7525   8.0438   9.5827   9.9404

     occupation numbers 
     1.0000   1.0000   1.0000   1.0000   1.0000   1.0000   1.0000   1.0000
     1.0000   1.0000   1.0000   1.0000   1.0000   1.0000   1.0000   1.0000
     0.4705   0.2436  -0.0000  -0.0000  -0.0000

          k = 0.9983 0.1717 0.2166 ( 12176 PWs)   bands (ev):

   -49.8588 -26.1461 -25.9255 -25.7563 -12.2076  -8.9491  -8.7497   0.7060
     1.3395   1.8388   1.9503   2.8586   2.9828   3.4798   3.8521   3.8576
     6.8864   6.9316   8.4460   9.6515  10.1843

     occupation numbers 
     1.0000   1.0000   1.0000   1.0000   1.0000   1.0000   1.0000   1.0000
     1.0000   1.0000   1.0000   1.0000   1.0000   1.0000   1.0000   1.0000
    -0.0171  -0.0343  -0.0000  -0.0000  -0.0000

          k = 1.1980 0.3435 0.2166 ( 12170 PWs)   bands (ev):

   -49.8593 -26.1935 -25.9036 -25.7583 -11.9051  -8.9635  -8.7543   0.9280
     1.2789   1.4791   1.7741   2.1205   2.7485   2.9907   3.7357   3.9974
     7.4951   7.7101   8.1065   9.5146  10.6114

     occupation numbers 
     1.0000   1.0000   1.0000   1.0000   1.0000   1.0000   1.0000   1.0000
     1.0000   1.0000   1.0000   1.0000   1.0000   1.0000   1.0000   1.0000
    -0.0000  -0.0000  -0.0000  -0.0000  -0.0000

          k = 1.3976 0.5152 0.2166 ( 12163 PWs)   bands (ev):

   -49.8619 -26.2539 -25.8487 -25.7658 -11.5118  -8.9892  -8.8363   0.5249
     1.3089   1.3434   1.5724   1.8563   2.4259   2.9251   3.6738   3.8988
     7.3403   8.3868   8.5871   9.1585  11.1306

     occupation numbers 
     1.0000   1.0000   1.0000   1.0000   1.0000   1.0000   1.0000   1.0000
     1.0000   1.0000   1.0000   1.0000   1.0000   1.0000   1.0000   1.0000
    -0.0001  -0.0000  -0.0000  -0.0000  -0.0000

          k = 1.5973 0.6869 0.2166 ( 12180 PWs)   bands (ev):

   -49.8655 -26.3045 -25.7813 -25.7759 -11.1676  -9.0642  -8.9115  -0.3552
     1.0959   1.4547   1.6700   1.9552   2.5815   3.0787   3.4910   3.9309
     6.6024   8.8224   9.2374   9.2679  11.3517

     occupation numbers 
     1.0000   1.0000   1.0000   1.0000   1.0000   1.0000   1.0000   1.0000
     1.0000   1.0000   1.0000   1.0000   1.0000   1.0000   1.0000   1.0000
     0.7902  -0.0000  -0.0000  -0.0000  -0.0000

          k =-0.1997-0.8586 0.2166 ( 12166 PWs)   bands (ev):

   -49.8688 -26.3265 -25.7847 -25.7271 -11.0371  -9.1921  -8.9173  -0.6951
     0.7767   1.3996   1.8549   2.2592   2.8210   3.4280   3.5062   3.9722
     5.9926   8.8104   9.5344   9.5946  11.1234

     occupation numbers 
     1.0000   1.0000   1.0000   1.0000   1.0000   1.0000   1.0000   1.0000
     1.0000   1.0000   1.0000   1.0000   1.0000   1.0000   1.0000   1.0000
     1.0000  -0.0000  -0.0000  -0.0000  -0.0000

          k = 0.0000-0.6869 0.2166 ( 12148 PWs)   bands (ev):

   -49.8705 -26.3115 -25.7890 -25.7070 -11.2023  -9.2755  -8.9012  -0.3810
     0.7537   1.2600   2.3261   2.4691   2.6403   3.4629   3.9397   3.9740
     5.6691   8.8492   9.3052   9.4403  10.8403

     occupation numbers 
     1.0000   1.0000   1.0000   1.0000   1.0000   1.0000   1.0000   1.0000
     1.0000   1.0000   1.0000   1.0000   1.0000   1.0000   1.0000   1.0000
     1.0000  -0.0000  -0.0000  -0.0000  -0.0000

          k = 0.1997-0.5152 0.2166 ( 12155 PWs)   bands (ev):

   -49.8700 -26.2647 -25.7871 -25.7292 -11.5718  -9.2779  -8.8810   0.4729
     0.9942   1.4061   2.1839   2.4764   2.9423   3.5241   3.5677   4.0350
     5.9425   8.7124   8.7538   8.8132  10.8142

     occupation numbers 
     1.0000   1.0000   1.0000   1.0000   1.0000   1.0000   1.0000   1.0000
     1.0000   1.0000   1.0000   1.0000   1.0000   1.0000   1.0000   1.0000
     1.0000  -0.0000  -0.0000  -0.0000  -0.0000

          k = 0.3993-0.3435 0.2166 ( 12158 PWs)   bands (ev):

   -49.8674 -26.2037 -25.7850 -25.7797 -11.9678  -9.2018  -8.8626   1.1774
     1.6157   1.9057   2.0242   2.3364   2.6371   3.2656   3.7230   4.1082
     6.5060   7.8361   7.9517   8.8790  10.7841

     occupation numbers 
     1.0000   1.0000   1.0000   1.0000   1.0000   1.0000   1.0000   1.0000
     1.0000   1.0000   1.0000   1.0000   1.0000   1.0000   1.0000   1.0000
     0.9931  -0.0000  -0.0000  -0.0000  -0.0000

          k = 0.5990-0.1717 0.2166 ( 12169 PWs)   bands (ev):

   -49.8638 -26.1521 -25.8527 -25.7696 -12.2473  -9.0759  -8.8449   1.2560
     1.5441   1.9263   2.3076   2.6859   3.0224   3.2125   3.8041   4.0166
     7.0159   7.1802   7.2903   9.2488  10.2976

     occupation numbers 
     1.0000   1.0000   1.0000   1.0000   1.0000   1.0000   1.0000   1.0000
     1.0000   1.0000   1.0000   1.0000   1.0000   1.0000   1.0000   1.0000
    -0.0263  -0.0029  -0.0003  -0.0000  -0.0000

          k =-0.9983 0.0000-0.2708 ( 12202 PWs)   bands (ev):

   -49.8591 -26.1284 -25.9262 -25.7569 -12.3221  -8.9568  -8.7581   0.6840
     1.3273   1.9163   2.0339   3.3106   3.3409   3.4772   3.7586   3.9319
     6.5689   6.7223   8.4371   9.5261  10.0171

     occupation numbers 
     1.0000   1.0000   1.0000   1.0000   1.0000   1.0000   1.0000   1.0000
     1.0000   1.0000   1.0000   1.0000   1.0000   1.0000   1.0000   1.0000
     0.8824   0.3492  -0.0000  -0.0000  -0.0000

          k =-0.7986 0.1717-0.2708 ( 12180 PWs)   bands (ev):

   -49.8602 -26.1477 -25.9055 -25.7600 -12.2186  -8.9777  -8.7836   0.9021
     1.2896   1.8731   2.1098   2.7986   3.0038   3.3962   3.7769   3.9615
     6.9272   6.9967   8.0710   9.5478  10.1484

     occupation numbers 
     1.0000   1.0000   1.0000   1.0000   1.0000   1.0000   1.0000   1.0000
     1.0000   1.0000   1.0000   1.0000   1.0000   1.0000   1.0000   1.0000
    -0.0336  -0.0301  -0.0000  -0.0000  -0.0000

          k =-0.5990 0.3435-0.2708 ( 12163 PWs)   bands (ev):

   -49.8629 -26.1980 -25.8509 -25.7679 -11.9331  -9.0401  -8.8379   1.2748
     1.4556   1.6384   1.8483   2.1260   2.5747   3.0006   3.7807   4.0611
     7.2761   7.6531   7.8271   9.1857  10.7796

     occupation numbers 
     1.0000   1.0000   1.0000   1.0000   1.0000   1.0000   1.0000   1.0000
     1.0000   1.0000   1.0000   1.0000   1.0000   1.0000   1.0000   1.0000
    -0.0004  -0.0000  -0.0000  -0.0000  -0.0000

          k =-0.3993 0.5152-0.2708 ( 12180 PWs)   bands (ev):

   -49.8664 -26.2599 -25.7830 -25.7776 -11.5449  -9.1295  -8.8856   0.4958
     1.2384   1.6189   1.7371   2.1372   2.5335   3.2047   3.5528   4.0404
     6.5669   8.5600   8.6672   8.8928  11.1545

     occupation numbers 
     1.0000   1.0000   1.0000   1.0000   1.0000   1.0000   1.0000   1.0000
     1.0000   1.0000   1.0000   1.0000   1.0000   1.0000   1.0000   1.0000
     0.8874  -0.0000  -0.0000  -0.0000  -0.0000

          k =-0.1997 0.6869-0.2708 ( 12164 PWs)   bands (ev):

   -49.8692 -26.3095 -25.7854 -25.7276 -11.1927  -9.2098  -8.9136  -0.3741
     0.8527   1.4221   1.9059   2.3193   2.8345   3.4397   3.5265   4.0016
     5.9826   8.8058   9.2979   9.3713  11.0636

     occupation numbers 
     1.0000   1.0000   1.0000   1.0000   1.0000   1.0000   1.0000   1.0000
     1.0000   1.0000   1.0000   1.0000   1.0000   1.0000   1.0000   1.0000
     1.0000  -0.0000  -0.0000  -0.0000  -0.0000

          k =-1.9966-0.8586-0.2708 ( 12134 PWs)   bands (ev):

   -49.8702 -26.3284 -25.7883 -25.7064 -11.0462  -9.2430  -8.9223  -0.7019
     0.6798   1.3357   2.1351   2.3867   2.6573   3.4362   3.9208   3.9710
     5.6837   8.8689   9.5351   9.6605  10.9511

     occupation numbers 
     1.0000   1.0000   1.0000   1.0000   1.0000   1.0000   1.0000   1.0000
     1.0000   1.0000   1.0000   1.0000   1.0000   1.0000   1.0000   1.0000
     1.0000  -0.0000  -0.0000  -0.0000  -0.0000

          k = 0.3993 0.3435 0.1083 ( 12146 PWs)   bands (ev):

   -49.8674 -26.2037 -25.7850 -25.7797 -11.9681  -9.2261  -8.8355   1.1507
     1.6356   1.8480   2.0464   2.3905   2.6558   3.2091   3.8185   4.0430
     6.4623   7.8465   7.9366   8.9560  10.7777

     occupation numbers 
     1.0000   1.0000   1.0000   1.0000   1.0000   1.0000   1.0000   1.0000
     1.0000   1.0000   1.0000   1.0000   1.0000   1.0000   1.0000   1.0000
     1.0264  -0.0000  -0.0000  -0.0000  -0.0000

          k = 0.5990 0.5152 0.1083 ( 12157 PWs)   bands (ev):

   -49.8619 -26.2539 -25.8487 -25.7658 -11.5122  -8.9822  -8.8456   0.5283
     1.3975   1.6026   1.6915   1.7663   2.0393   2.7336   3.7304   3.9937
     7.2594   8.4095   8.5736   9.3388  11.3005

     occupation numbers 
     1.0000   1.0000   1.0000   1.0000   1.0000   1.0000   1.0000   1.0000
     1.0000   1.0000   1.0000   1.0000   1.0000   1.0000   1.0000   1.0000
    -0.0006  -0.0000  -0.0000  -0.0000  -0.0000

          k = 0.7986 0.6869 0.1083 ( 12163 PWs)   bands (ev):

   -49.8574 -26.2932 -25.8995 -25.7546 -11.1110  -8.8724  -8.7531  -0.3106
     0.8203   1.1506   1.6936   1.7441   2.2477   2.3773   3.4404   3.9397
     8.0824   8.9239   9.1355   9.6433  11.3540

     occupation numbers 
     1.0000   1.0000   1.0000   1.0000   1.0000   1.0000   1.0000   1.0000
     1.0000   1.0000   1.0000   1.0000   1.0000   1.0000   1.0000   1.0000
    -0.0000  -0.0000  -0.0000  -0.0000  -0.0000

          k = 0.9983 0.8586 0.1083 ( 12158 PWs)   bands (ev):

   -49.8557 -26.3080 -25.9187 -25.7503 -10.9482  -8.8756  -8.6686  -0.6298
     0.5891   0.9512   1.7697   1.8751   1.9380   2.6077   3.2475   3.8967
     8.4842   9.1507   9.3442   9.7630  11.3790

     occupation numbers 
     1.0000   1.0000   1.0000   1.0000   1.0000   1.0000   1.0000   1.0000
     1.0000   1.0000   1.0000   1.0000   1.0000   1.0000   1.0000   1.0000
    -0.0000  -0.0000  -0.0000  -0.0000  -0.0000

          k = 0.0000 0.0000 0.1083 ( 12125 PWs)   bands (ev):

   -49.8736 -26.1454 -25.7952 -25.7124 -12.4385  -9.4823  -8.8256   0.6909
     2.5060   2.7027   2.8459   3.0091   3.4238   3.8589   4.1588   4.2629
     5.5359   7.1802   7.3428   8.6999   9.4221

     occupation numbers 
     1.0000   1.0000   1.0000   1.0000   1.0000   1.0000   1.0000   1.0000
     1.0000   1.0000   1.0000   1.0000   1.0000   1.0000   1.0000   1.0000
     1.0000  -0.0029  -0.0001  -0.0000  -0.0000

          k = 0.5990 0.3435 0.1625 ( 12175 PWs)   bands (ev):

   -49.8629 -26.1980 -25.8509 -25.7679 -11.9333  -9.0364  -8.8432   1.3496
     1.5405   1.7097   1.8849   2.0531   2.3821   2.8846   3.8187   4.0888
     7.2107   7.6825   7.8222   9.3225  10.8924

     occupation numbers 
     1.0000   1.0000   1.0000   1.0000   1.0000   1.0000   1.0000   1.0000
     1.0000   1.0000   1.0000   1.0000   1.0000   1.0000   1.0000   1.0000
    -0.0016  -0.0000  -0.0000  -0.0000  -0.0000

          k = 0.7986 0.5152 0.1625 ( 12175 PWs)   bands (ev):

   -49.8583 -26.2490 -25.9014 -25.7563 -11.4851  -8.8951  -8.7737   0.5495
     1.0933   1.1167   1.6043   1.8919   2.4090   2.4717   3.5793   4.0382
     8.0131   8.3221   8.5087   9.6659  11.1752

     occupation numbers 
     1.0000   1.0000   1.0000   1.0000   1.0000   1.0000   1.0000   1.0000
     1.0000   1.0000   1.0000   1.0000   1.0000   1.0000   1.0000   1.0000
    -0.0000  -0.0000  -0.0000  -0.0000  -0.0000

          k = 0.9983 0.6869 0.1625 ( 12172 PWs)   bands (ev):

   -49.8561 -26.2913 -25.9195 -25.7510 -11.1011  -8.8835  -8.6774  -0.3028
     0.6962   0.9155   1.6591   1.8960   2.1213   2.6417   3.2812   3.9468
     8.4802   8.8824   9.1119   9.7457  11.2989

     occupation numbers 
     1.0000   1.0000   1.0000   1.0000   1.0000   1.0000   1.0000   1.0000
     1.0000   1.0000   1.0000   1.0000   1.0000   1.0000   1.0000   1.0000
    -0.0000  -0.0000  -0.0000  -0.0000  -0.0000

          k = 1.1980 0.8586 0.1625 ( 12169 PWs)   bands (ev):

   -49.8571 -26.3099 -25.8988 -25.7540 -10.9578  -8.8795  -8.7282  -0.6367
     0.7065   1.1334   1.5577   1.7670   2.3061   2.4545   3.3691   3.8505
     8.1137   9.1705   9.3758   9.5937  11.3448

     occupation numbers 
     1.0000   1.0000   1.0000   1.0000   1.0000   1.0000   1.0000   1.0000
     1.0000   1.0000   1.0000   1.0000   1.0000   1.0000   1.0000   1.0000
    -0.0000  -0.0000  -0.0000  -0.0000  -0.0000

          k =-0.5990-0.6869 0.1625 ( 12176 PWs)   bands (ev):

   -49.8611 -26.2983 -25.8470 -25.7642 -11.1366  -8.9284  -8.8568  -0.3306
     1.1209   1.4297   1.6260   1.7184   2.0792   2.7626   3.6312   3.8096
     7.3190   8.9862   9.1820   9.3141  11.4300

     occupation numbers 
     1.0000   1.0000   1.0000   1.0000   1.0000   1.0000   1.0000   1.0000
     1.0000   1.0000   1.0000   1.0000   1.0000   1.0000   1.0000   1.0000
    -0.0001  -0.0000  -0.0000  -0.0000  -0.0000

          k =-0.3993-0.5152 0.1625 ( 12172 PWs)   bands (ev):

   -49.8664 -26.2599 -25.7830 -25.7776 -11.5453  -9.1585  -8.8540   0.4989
     1.2414   1.5126   1.8282   2.1272   2.5406   3.1943   3.6565   3.9646
     6.5290   8.5700   8.6499   8.9534  11.1522

     occupation numbers 
     1.0000   1.0000   1.0000   1.0000   1.0000   1.0000   1.0000   1.0000
     1.0000   1.0000   1.0000   1.0000   1.0000   1.0000   1.0000   1.0000
     0.9621  -0.0000  -0.0000  -0.0000  -0.0000

          k = 0.0000-0.1717 0.1625 ( 12102 PWs)   bands (ev):

   -49.8733 -26.1634 -25.7945 -25.7119 -12.3228  -9.4486  -8.8484   0.7705
     2.2140   2.5343   2.5743   3.2173   3.3085   3.6596   4.0439   4.1585
     5.5569   7.4622   7.5455   8.7465   9.7147

     occupation numbers 
     1.0000   1.0000   1.0000   1.0000   1.0000   1.0000   1.0000   1.0000
     1.0000   1.0000   1.0000   1.0000   1.0000   1.0000   1.0000   1.0000
     1.0000  -0.0000  -0.0000  -0.0000  -0.0000

          k = 0.1997 0.0000 0.1625 ( 12126 PWs)   bands (ev):

   -49.8722 -26.1438 -25.7916 -25.7332 -12.4271  -9.4125  -8.8478   0.8499
     2.3550   2.6391   2.8634   3.0946   3.1942   3.7452   4.0000   4.0838
     5.8452   7.1115   7.3200   8.7131   9.7124

     occupation numbers 
     1.0000   1.0000   1.0000   1.0000   1.0000   1.0000   1.0000   1.0000
     1.0000   1.0000   1.0000   1.0000   1.0000   1.0000   1.0000   1.0000
     1.0000  -0.0088  -0.0001  -0.0000  -0.0000

          k = 0.7986 0.3435 0.2166 ( 12174 PWs)   bands (ev):

   -49.8593 -26.1935 -25.9036 -25.7583 -11.9052  -8.9375  -8.7832   0.9746
     1.3718   1.5561   1.7769   2.0170   2.6298   2.8747   3.7434   4.0596
     7.4834   7.7098   8.0898   9.6343  10.7288

     occupation numbers 
     1.0000   1.0000   1.0000   1.0000   1.0000   1.0000   1.0000   1.0000
     1.0000   1.0000   1.0000   1.0000   1.0000   1.0000   1.0000   1.0000
    -0.0000  -0.0000  -0.0000  -0.0000  -0.0000

          k = 0.9983 0.5152 0.2166 ( 12175 PWs)   bands (ev):

   -49.8569 -26.2472 -25.9213 -25.7526 -11.4747  -8.9040  -8.7001   0.5517
     0.8617   0.9983   1.5518   1.8900   2.4473   2.7592   3.4305   4.0255
     8.2145   8.4752   8.4835   9.7364  11.0747

     occupation numbers 
     1.0000   1.0000   1.0000   1.0000   1.0000   1.0000   1.0000   1.0000
     1.0000   1.0000   1.0000   1.0000   1.0000   1.0000   1.0000   1.0000
    -0.0000  -0.0000  -0.0000  -0.0000  -0.0000

          k = 1.1980 0.6869 0.2166 ( 12177 PWs)   bands (ev):

   -49.8574 -26.2932 -25.8995 -25.7546 -11.1109  -8.8961  -8.7273  -0.3107
     0.8034   1.0907   1.4878   1.8438   2.3903   2.5357   3.4128   3.8690
     8.1160   8.9108   9.1383   9.5669  11.2633

     occupation numbers 
     1.0000   1.0000   1.0000   1.0000   1.0000   1.0000   1.0000   1.0000
     1.0000   1.0000   1.0000   1.0000   1.0000   1.0000   1.0000   1.0000
    -0.0000  -0.0000  -0.0000  -0.0000  -0.0000

          k = 1.3976 0.8586 0.2166 ( 12177 PWs)   bands (ev):

   -49.8607 -26.3151 -25.8463 -25.7635 -10.9827  -8.8903  -8.8787  -0.6548
     0.9976   1.3309   1.6380   1.6835   2.1542   2.7982   3.6306   3.6701
     7.3480   9.0985   9.3873   9.4376  11.4510

     occupation numbers 
     1.0000   1.0000   1.0000   1.0000   1.0000   1.0000   1.0000   1.0000
     1.0000   1.0000   1.0000   1.0000   1.0000   1.0000   1.0000   1.0000
    -0.0001  -0.0000  -0.0000  -0.0000  -0.0000

          k =-0.3993-0.6869 0.2166 ( 12179 PWs)   bands (ev):

   -49.8655 -26.3045 -25.7813 -25.7759 -11.1678  -9.0901  -8.8841  -0.3548
     1.0919   1.4814   1.6074   1.9860   2.5648   3.0993   3.5494   3.8809
     6.5815   8.8495   9.2312   9.2733  11.3518

     occupation numbers 
     1.0000   1.0000   1.0000   1.0000   1.0000   1.0000   1.0000   1.0000
     1.0000   1.0000   1.0000   1.0000   1.0000   1.0000   1.0000   1.0000
     0.8505  -0.0000  -0.0000  -0.0000  -0.0000

          k =-0.0000-0.3435 0.2166 ( 12157 PWs)   bands (ev):

   -49.8724 -26.2100 -25.7928 -25.7104 -12.0065  -9.3828  -8.8790   0.8778
     1.5937   1.7249   2.5810   2.9720   3.0222   3.4771   4.0174   4.0806
     5.5938   8.0531   8.1212   8.8077  10.2378

     occupation numbers 
     1.0000   1.0000   1.0000   1.0000   1.0000   1.0000   1.0000   1.0000
     1.0000   1.0000   1.0000   1.0000   1.0000   1.0000   1.0000   1.0000
     1.0000  -0.0000  -0.0000  -0.0000  -0.0000

          k = 0.1997-0.1717 0.2166 ( 12136 PWs)   bands (ev):

   -49.8719 -26.1618 -25.7909 -25.7326 -12.3115  -9.3749  -8.8743   0.9390
     2.2437   2.3595   2.5916   3.0360   3.1916   3.5699   3.8896   4.0618
     5.8741   7.3809   7.5242   8.7350  10.0107

     occupation numbers 
     1.0000   1.0000   1.0000   1.0000   1.0000   1.0000   1.0000   1.0000
     1.0000   1.0000   1.0000   1.0000   1.0000   1.0000   1.0000   1.0000
     1.0000  -0.0000  -0.0000  -0.0000  -0.0000

          k = 0.3993 0.0000 0.2166 ( 12146 PWs)   bands (ev):

   -49.8686 -26.1396 -25.7873 -25.7820 -12.3979  -9.2577  -8.8641   1.1119
     2.0776   2.2629   2.6824   2.9260   3.2873   3.5400   3.8687   3.9416
     6.4747   6.9517   7.1873   8.8373  10.0050

     occupation numbers 
     1.0000   1.0000   1.0000   1.0000   1.0000   1.0000   1.0000   1.0000
     1.0000   1.0000   1.0000   1.0000   1.0000   1.0000   1.0000   1.0000
     1.0199  -0.0354  -0.0025  -0.0000  -0.0000

          k = 0.9983 0.3435 0.2708 ( 12160 PWs)   bands (ev):

   -49.8579 -26.1917 -25.9237 -25.7546 -11.8944  -8.9291  -8.7277   0.7507
     1.3492   1.5282   1.7559   1.9080   2.7293   3.0578   3.6518   4.0374
     7.4604   7.6655   8.4598   9.7183  10.6713

     occupation numbers 
     1.0000   1.0000   1.0000   1.0000   1.0000   1.0000   1.0000   1.0000
     1.0000   1.0000   1.0000   1.0000   1.0000   1.0000   1.0000   1.0000
    -0.0000  -0.0000  -0.0000  -0.0000  -0.0000

          k = 1.1980 0.5152 0.2708 ( 12171 PWs)   bands (ev):

   -49.8583 -26.2490 -25.9014 -25.7563 -11.4850  -8.9182  -8.7485   0.5487
     1.0401   1.1085   1.4562   1.9615   2.5014   2.6203   3.5625   3.9785
     8.0648   8.2941   8.5109   9.5827  11.0810

     occupation numbers 
     1.0000   1.0000   1.0000   1.0000   1.0000   1.0000   1.0000   1.0000
     1.0000   1.0000   1.0000   1.0000   1.0000   1.0000   1.0000   1.0000
    -0.0000  -0.0000  -0.0000  -0.0000  -0.0000

          k = 1.3976 0.6869 0.2708 ( 12176 PWs)   bands (ev):

   -49.8611 -26.2983 -25.8470 -25.7642 -11.1365  -8.9320  -8.8526  -0.3308
     1.0916   1.3775   1.6371   1.6634   2.2117   2.8181   3.6279   3.7607
     7.3401   8.9548   9.1959   9.2850  11.3935

     occupation numbers 
     1.0000   1.0000   1.0000   1.0000   1.0000   1.0000   1.0000   1.0000
     1.0000   1.0000   1.0000   1.0000   1.0000   1.0000   1.0000   1.0000
    -0.0001  -0.0000  -0.0000  -0.0000  -0.0000

          k = 1.5973 0.8586 0.2708 ( 12178 PWs)   bands (ev):

   -49.8652 -26.3214 -25.7807 -25.7753 -11.0130  -9.0555  -8.9048  -0.6771
     1.0118   1.3914   1.6959   1.8757   2.5984   3.0295   3.5257   3.8459
     6.6010   8.8521   9.4637   9.4998  11.4127

     occupation numbers 
     1.0000   1.0000   1.0000   1.0000   1.0000   1.0000   1.0000   1.0000
     1.0000   1.0000   1.0000   1.0000   1.0000   1.0000   1.0000   1.0000
     0.7943  -0.0000  -0.0000  -0.0000  -0.0000

          k = 0.0000-0.5152 0.2708 ( 12146 PWs)   bands (ev):

   -49.8714 -26.2665 -25.7907 -25.7085 -11.5817  -9.3024  -8.9148   0.4606
     0.9417   1.4154   2.4745   2.6270   2.7035   3.4069   3.9341   4.1104
     5.6395   8.7175   8.8450   8.8764  10.6827

     occupation numbers 
     1.0000   1.0000   1.0000   1.0000   1.0000   1.0000   1.0000   1.0000
     1.0000   1.0000   1.0000   1.0000   1.0000   1.0000   1.0000   1.0000
     1.0000  -0.0000  -0.0000  -0.0000  -0.0000

          k = 0.1997-0.3435 0.2708 ( 12151 PWs)   bands (ev):

   -49.8711 -26.2082 -25.7892 -25.7311 -11.9955  -9.3072  -8.9054   1.0385
     1.6072   1.8215   2.2862   2.7817   2.9761   3.4706   3.6483   4.1624
     5.9176   8.0342   8.0368   8.7771  10.5238

     occupation numbers 
     1.0000   1.0000   1.0000   1.0000   1.0000   1.0000   1.0000   1.0000
     1.0000   1.0000   1.0000   1.0000   1.0000   1.0000   1.0000   1.0000
     1.0000  -0.0000  -0.0000  -0.0000  -0.0000

          k = 0.3993-0.1717 0.2708 ( 12145 PWs)   bands (ev):

   -49.8683 -26.1574 -25.7866 -25.7814 -12.2826  -9.2253  -8.8825   1.1679
     1.9876   2.2258   2.4596   2.6325   3.1431   3.3298   3.8218   4.0656
     6.5111   7.1950   7.4032   8.8018  10.2726

     occupation numbers 
[...]

   -49.8733 -26.1634 -25.7946 -25.7119 -12.3216  -9.3167  -9.0041   1.1885
     2.2423   2.5490   2.6473   2.7555   3.2611   3.4987   3.9924   4.0043
     5.5832   7.4619   7.6271   8.9432  10.0689

     occupation numbers 
     1.0000   1.0000   1.0000   1.0000   1.0000   1.0000   1.0000   1.0000
     1.0000   1.0000   1.0000   1.0000   1.0000   1.0000   1.0000   1.0000
     1.0000  -0.0000  -0.0000  -0.0000  -0.0000

          k = 0.1997 0.0000 0.3791 ( 12139 PWs)   bands (ev):

   -49.8722 -26.1438 -25.7916 -25.7332 -12.4260  -9.2935  -8.9865   1.2379
     2.1385   2.6327   2.7943   3.0644   3.3225   3.5792   3.8723   3.9047
     5.9229   7.0935   7.4165   8.7926   9.8936

     occupation numbers 
     1.0000   1.0000   1.0000   1.0000   1.0000   1.0000   1.0000   1.0000
     1.0000   1.0000   1.0000   1.0000   1.0000   1.0000   1.0000   1.0000
     1.0000  -0.0113  -0.0000  -0.0000  -0.0000

          k =-1.9966-0.3435-0.1083 ( 12184 PWs)   bands (ev):

   -49.8724 -26.2100 -25.7929 -25.7104 -12.0053  -9.2374  -9.0443   1.2139
     1.6561   1.9023   2.3611   2.6790   3.0047   3.1688   3.8669   4.2741
     5.6143   8.0794   8.1202   8.9671  10.5867

     occupation numbers 
     1.0000   1.0000   1.0000   1.0000   1.0000   1.0000   1.0000   1.0000
     1.0000   1.0000   1.0000   1.0000   1.0000   1.0000   1.0000   1.0000
     1.0000  -0.0000  -0.0000  -0.0000  -0.0000

          k =-1.7969-0.1717-0.1083 ( 12146 PWs)   bands (ev):

   -49.8719 -26.1618 -25.7910 -25.7326 -12.3105  -9.2413  -9.0259   1.3554
     1.9972   2.4558   2.5466   2.9316   3.0941   3.4864   3.7583   4.0294
     5.9396   7.3727   7.5821   8.8268  10.1920

     occupation numbers 
     1.0000   1.0000   1.0000   1.0000   1.0000   1.0000   1.0000   1.0000
     1.0000   1.0000   1.0000   1.0000   1.0000   1.0000   1.0000   1.0000
     1.0000  -0.0000  -0.0000  -0.0000  -0.0000

          k =-1.5973 0.0000-0.1083 ( 12149 PWs)   bands (ev):

   -49.8686 -26.1396 -25.7873 -25.7821 -12.3971  -9.1811  -8.9478   1.3097
     1.7464   2.3115   2.6733   2.8584   3.5148   3.6461   3.7773   3.8634
     6.5975   6.9002   7.2252   8.6796   9.9323

     occupation numbers 
     1.0000   1.0000   1.0000   1.0000   1.0000   1.0000   1.0000   1.0000
     1.0000   1.0000   1.0000   1.0000   1.0000   1.0000   1.0000   1.0000
     0.8051  -0.0250  -0.0012  -0.0000  -0.0000

          k = 0.0000 1.2021-0.0542 ( 12199 PWs)   bands (ev):

   -49.8714 -26.2665 -25.7908 -25.7085 -11.5809  -9.1699  -9.0601   0.4552
     1.2457   1.4276   2.3346   2.6886   2.6999   2.9336   3.8330   4.3484
     5.6492   8.7235   8.8602   8.9590  10.8856

     occupation numbers 
     1.0000   1.0000   1.0000   1.0000   1.0000   1.0000   1.0000   1.0000
     1.0000   1.0000   1.0000   1.0000   1.0000   1.0000   1.0000   1.0000
     1.0000  -0.0000  -0.0000  -0.0000  -0.0000

          k =-1.7969-0.3435-0.0542 ( 12166 PWs)   bands (ev):

   -49.8711 -26.2082 -25.7893 -25.7311 -11.9946  -9.1643  -9.0617   1.3186
     1.7051   1.9016   2.0001   2.7134   2.9571   3.2677   3.5046   4.2883
     5.9659   8.0351   8.0371   8.8594  10.7028

     occupation numbers 
     1.0000   1.0000   1.0000   1.0000   1.0000   1.0000   1.0000   1.0000
     1.0000   1.0000   1.0000   1.0000   1.0000   1.0000   1.0000   1.0000
     1.0000  -0.0000  -0.0000  -0.0000  -0.0000

          k =-1.5973-0.1717-0.0542 ( 12148 PWs)   bands (ev):

   -49.8683 -26.1574 -25.7866 -25.7814 -12.2820  -9.1512  -8.9624   1.3794
     1.6429   2.2761   2.4958   2.6146   3.2876   3.3315   3.6970   4.1010
     6.6173   7.1726   7.4154   8.6859  10.2062

     occupation numbers 
     1.0000   1.0000   1.0000   1.0000   1.0000   1.0000   1.0000   1.0000
     1.0000   1.0000   1.0000   1.0000   1.0000   1.0000   1.0000   1.0000
     0.7423  -0.0033  -0.0000  -0.0000  -0.0000

          k =-1.3976 0.0000-0.0542 ( 12172 PWs)   bands (ev):

   -49.8641 -26.1343 -25.8533 -25.7702 -12.3616  -9.0971  -8.8355   1.1136
     1.2819   2.0538   2.5471   2.9652   3.6155   3.6345   3.7907   3.8740
     6.7340   6.9321   7.3773   8.8669   9.7859

     occupation numbers 
     1.0000   1.0000   1.0000   1.0000   1.0000   1.0000   1.0000   1.0000
     1.0000   1.0000   1.0000   1.0000   1.0000   1.0000   1.0000   1.0000
     0.3067  -0.0344  -0.0000  -0.0000  -0.0000

          k =-0.0000 1.0304-0.0000 ( 12163 PWs)   bands (ev):

   -49.8705 -26.3115 -25.7890 -25.7070 -11.2017  -9.1884  -8.9979  -0.3824
     0.9828   1.1646   2.4680   2.5264   2.6834   2.7891   3.8662   4.2838
     5.6713   8.9213   9.3078   9.4390  10.9376

     occupation numbers 
     1.0000   1.0000   1.0000   1.0000   1.0000   1.0000   1.0000   1.0000
     1.0000   1.0000   1.0000   1.0000   1.0000   1.0000   1.0000   1.0000
     1.0000  -0.0000  -0.0000  -0.0000  -0.0000

          k = 0.1997 1.2021-0.0000 ( 12188 PWs)   bands (ev):

   -49.8700 -26.2647 -25.7871 -25.7292 -11.5708  -9.1045  -9.0685   0.4651
     1.3867   1.3982   2.0353   2.4023   2.9625   3.1277   3.4037   4.3109
     5.9874   8.6391   8.7841   8.9189  11.0217

     occupation numbers 
     1.0000   1.0000   1.0000   1.0000   1.0000   1.0000   1.0000   1.0000
     1.0000   1.0000   1.0000   1.0000   1.0000   1.0000   1.0000   1.0000
     1.0000  -0.0000  -0.0000  -0.0000  -0.0000

          k =-1.5973-0.3435-0.0000 ( 12148 PWs)   bands (ev):

   -49.8674 -26.2037 -25.7850 -25.7797 -11.9669  -9.1009  -8.9707   1.4137
     1.4322   1.8231   2.1029   2.1550   2.9343   3.1744   3.5222   4.2177
     6.6319   7.8396   7.9392   8.7357  10.7327

     occupation numbers 
     1.0000   1.0000   1.0000   1.0000   1.0000   1.0000   1.0000   1.0000
     1.0000   1.0000   1.0000   1.0000   1.0000   1.0000   1.0000   1.0000
     0.6919  -0.0000  -0.0000  -0.0000  -0.0000

          k =-1.3976-0.1717-0.0000 ( 12171 PWs)   bands (ev):

   -49.8638 -26.1521 -25.8527 -25.7696 -12.2468  -9.0837  -8.8329   1.1271
     1.2933   1.9230   2.4729   2.7046   3.1976   3.4610   3.7407   4.0495
     6.9886   7.1863   7.3890   8.8726  10.0549

     occupation numbers 
     1.0000   1.0000   1.0000   1.0000   1.0000   1.0000   1.0000   1.0000
     1.0000   1.0000   1.0000   1.0000   1.0000   1.0000   1.0000   1.0000
    -0.0316  -0.0026  -0.0000  -0.0000  -0.0000

          k =-1.1980 0.0000-0.0000 ( 12181 PWs)   bands (ev):

   -49.8605 -26.1300 -25.9062 -25.7606 -12.3330  -9.0256  -8.7459   0.8303
     1.0547   1.9921   2.3452   3.1173   3.4867   3.6396   3.7755   3.9453
     6.6673   6.6757   8.1239   9.3417   9.6614

     occupation numbers 
     1.0000   1.0000   1.0000   1.0000   1.0000   1.0000   1.0000   1.0000
     1.0000   1.0000   1.0000   1.0000   1.0000   1.0000   1.0000   1.0000
     0.5602   0.5274  -0.0000  -0.0000  -0.0000

          k = 0.0000 0.0000 0.4332 ( 12116 PWs)   bands (ev):

   -49.8736 -26.1454 -25.7953 -25.7124 -12.4368  -9.2872  -9.0546   1.3234
     2.2655   2.6707   2.7607   3.3238   3.3269   3.3456   3.8272   4.0689
     5.5745   7.1810   7.5061   8.9844   9.8579

     occupation numbers 
     1.0000   1.0000   1.0000   1.0000   1.0000   1.0000   1.0000   1.0000
     1.0000   1.0000   1.0000   1.0000   1.0000   1.0000   1.0000   1.0000
     1.0000  -0.0028  -0.0000  -0.0000  -0.0000

          k =-1.9966-0.1717-0.0542 ( 12155 PWs)   bands (ev):

   -49.8733 -26.1634 -25.7946 -25.7119 -12.3212  -9.2298  -9.0983   1.4063
     2.1625   2.5102   2.6320   2.6912   3.2377   3.4794   3.9577   3.9645
     5.5870   7.4618   7.6551   9.0039  10.1653

     occupation numbers 
     1.0000   1.0000   1.0000   1.0000   1.0000   1.0000   1.0000   1.0000
     1.0000   1.0000   1.0000   1.0000   1.0000   1.0000   1.0000   1.0000
     1.0000  -0.0000  -0.0000  -0.0000  -0.0000

          k =-1.7969 0.0000-0.0542 ( 12131 PWs)   bands (ev):

   -49.8722 -26.1438 -25.7917 -25.7332 -12.4257  -9.2225  -9.0635   1.4842
     1.8939   2.6907   2.7810   3.0102   3.4220   3.5539   3.7704   3.8605
     5.9389   7.0903   7.4436   8.8371   9.9241

     occupation numbers 
     1.0000   1.0000   1.0000   1.0000   1.0000   1.0000   1.0000   1.0000
     1.0000   1.0000   1.0000   1.0000   1.0000   1.0000   1.0000   1.0000
     1.0000  -0.0118  -0.0000  -0.0000  -0.0000

          k = 0.0000 1.3738 0.0000 ( 12161 PWs)   bands (ev):

   -49.8724 -26.2100 -25.7929 -25.7104 -12.0051  -9.1539  -9.1312   1.2865
     1.7144   1.9116   2.2355   2.6992   2.9997   3.1054   3.8400   4.2975
     5.6175   8.0870   8.1201   8.9943  10.6431

     occupation numbers 
     1.0000   1.0000   1.0000   1.0000   1.0000   1.0000   1.0000   1.0000
     1.0000   1.0000   1.0000   1.0000   1.0000   1.0000   1.0000   1.0000
     1.0000  -0.0000  -0.0000  -0.0000  -0.0000

          k =-1.7969-0.1717 0.0000 ( 12155 PWs)   bands (ev):

   -49.8719 -26.1618 -25.7910 -25.7326 -12.3103  -9.1891  -9.0811   1.5141
     1.8482   2.4905   2.5221   2.9559   3.0575   3.4756   3.7330   4.0204
     5.9487   7.3717   7.5913   8.8498  10.2132

     occupation numbers 
     1.0000   1.0000   1.0000   1.0000   1.0000   1.0000   1.0000   1.0000
     1.0000   1.0000   1.0000   1.0000   1.0000   1.0000   1.0000   1.0000
     1.0000  -0.0000  -0.0000  -0.0000  -0.0000

          k =-1.5973 0.0000 0.0000 ( 12141 PWs)   bands (ev):

   -49.8686 -26.1396 -25.7873 -25.7821 -12.3970  -9.1616  -8.9685   1.3955
     1.6291   2.3381   2.6653   2.8497   3.5905   3.6816   3.7094   3.8407
     6.6193   6.8930   7.2302   8.6609   9.9125

     occupation numbers 
     1.0000   1.0000   1.0000   1.0000   1.0000   1.0000   1.0000   1.0000
     1.0000   1.0000   1.0000   1.0000   1.0000   1.0000   1.0000   1.0000
     0.7353  -0.0212  -0.0011  -0.0000  -0.0000

          k =-1.9966-1.7173-0.5415 ( 12132 PWs)   bands (ev):

   -49.8736 -26.1454 -25.7953 -25.7124 -12.4366  -9.2230  -9.1228   1.4802
     2.1139   2.6965   2.7553   3.3046   3.3100   3.3849   3.7635   4.0480
     5.5746   7.1811   7.5249   9.0179   9.8993

     occupation numbers 
     1.0000   1.0000   1.0000   1.0000   1.0000   1.0000   1.0000   1.0000
     1.0000   1.0000   1.0000   1.0000   1.0000   1.0000   1.0000   1.0000
     1.0000  -0.0028  -0.0000  -0.0000  -0.0000

     the Fermi energy is     6.6828 ev

!    total energy              =    -534.96736895 Ry

     total all-electron energy =     -9636.857611 Ry
     estimated scf accuracy    <          9.7E-12 Ry
     smearing contrib. (-TS)   =      -0.00008917 Ry
     internal energy E=F+TS    =    -534.96727978 Ry

     The total energy is F=E-TS. E is the sum of the following terms:
     one-electron contribution =     -93.92957016 Ry
     hartree contribution      =      61.19829397 Ry
     xc contribution           =     -39.53665857 Ry
     ewald contribution        =    -135.48921389 Ry
     one-center paw contrib.   =    -327.21013114 Ry
      -> PAW hartree energy AE =      29.12317371 Ry
      -> PAW hartree energy PS =     -29.09309749 Ry
      -> PAW xc energy AE      =     -17.04276178 Ry
      -> PAW xc energy PS      =       7.41861284 Ry
      -> total E_H with PAW    =      61.22837019 Ry
      -> total E_XC with PAW   =     -49.16080751 Ry

     convergence has been achieved in  13 iterations

     Forces acting on atoms (cartesian axes, Ry/au):

     atom    1 type  1   force =    -0.00000000   -0.00000000    0.00000000
     atom    2 type  2   force =     0.00000000    0.00000000    0.03586836
     atom    3 type  2   force =     0.00000000    0.00000000   -0.03586836
     atom    4 type  3   force =    -0.00000000   -0.00000000    0.00000000
     The non-local contrib.  to forces
     atom    1 type  1   force =     0.00000000    0.00000000    0.00000000
     atom    2 type  2   force =     0.00000000    0.00000000    0.06501552
     atom    3 type  2   force =     0.00000000    0.00000000   -0.06501552
     atom    4 type  3   force =     0.00000000    0.00000000    0.00000000
     The ionic contribution  to forces
     atom    1 type  1   force =    -0.00000000   -0.00000000    0.00000000
     atom    2 type  2   force =     0.00000001    0.00000000  -10.07462875
     atom    3 type  2   force =    -0.00000001   -0.00000000   10.07462875
     atom    4 type  3   force =    -0.00000000   -0.00000000    0.00000000
     The local contribution  to forces
     atom    1 type  1   force =     0.00000000    0.00000000    0.00000000
     atom    2 type  2   force =     0.00000002   -0.00000003   10.04398119
     atom    3 type  2   force =    -0.00000002    0.00000003  -10.04398119
     atom    4 type  3   force =     0.00000000    0.00000000    0.00000000
     The core correction contribution to forces
     atom    1 type  1   force =     0.00000000    0.00000000    0.00000000
     atom    2 type  2   force =    -0.00000000    0.00000000    0.00149972
     atom    3 type  2   force =     0.00000000   -0.00000000   -0.00149972
     atom    4 type  3   force =     0.00000000    0.00000000    0.00000000
     The Hubbard contrib.    to forces
     atom    1 type  1   force =     0.00000000    0.00000000    0.00000000
     atom    2 type  2   force =     0.00000000    0.00000000    0.00000000
     atom    3 type  2   force =     0.00000000    0.00000000    0.00000000
     atom    4 type  3   force =     0.00000000    0.00000000    0.00000000
     The SCF correction term to forces
     atom    1 type  1   force =     0.00000000    0.00000000    0.00000000
     atom    2 type  2   force =     0.00000000   -0.00000000    0.00000068
     atom    3 type  2   force =    -0.00000000    0.00000000   -0.00000068
     atom    4 type  3   force =    -0.00000000   -0.00000000    0.00000000

     Total force =     0.050726     Total SCF correction =     0.000001


     Computing stress (Cartesian axis) and pressure

          total   stress  (Ry/bohr**3)                   (kbar)     P=      -39.02
  -0.00028067  -0.00000000   0.00000000          -41.29       -0.00        0.00
   0.00000000  -0.00025764   0.00000000            0.00      -37.90        0.00
   0.00000000  -0.00000000  -0.00025755            0.00       -0.00      -37.89

     kinetic stress (kbar)  14779.24     -0.00      0.00
                               -0.00  14777.83      0.00
                                0.00      0.00  14792.50

     local   stress (kbar) -18929.00     -0.00      0.00
                               -0.00 -24142.08      0.00
                                0.00      0.00   4073.26

     nonloc. stress (kbar)   8008.73     -0.00     -0.00
                               -0.00   7931.79     -0.00
                                0.00     -0.00   8006.90

     hartree stress (kbar)   8385.19     -0.00     -0.00
                               -0.00  10086.89     -0.00
                               -0.00     -0.00  -2041.95

     exc-cor stress (kbar)  -1130.81     -0.00     -0.00
                               -0.00  -1122.07     -0.00
                               -0.00     -0.00  -1130.41

     corecor stress (kbar)  -2029.50      0.00      0.00
                                0.00  -2028.82      0.00
                                0.00      0.00  -2029.49

     ewald   stress (kbar)  -9125.13      0.00     -0.00
                                0.00  -5541.44     -0.00
                               -0.00     -0.00 -21708.70

     hubbard stress (kbar)      0.00      0.00      0.00
                                0.00      0.00      0.00
                                0.00      0.00      0.00

     DFT-D   stress (kbar)      0.00      0.00      0.00
                                0.00      0.00      0.00
                                0.00      0.00      0.00

     XDM     stress (kbar)      0.00      0.00      0.00
                                0.00      0.00      0.00
                                0.00      0.00      0.00

     dft-nl  stress (kbar)      0.00      0.00      0.00
                                0.00      0.00      0.00
                                0.00      0.00      0.00

     TS-vdW  stress (kbar)      0.00      0.00      0.00
                                0.00      0.00      0.00
                                0.00      0.00      0.00



     Writing output data file /zfs_data/gutierre/Scratch/Cl2NbO/smearing/10x10x10/0.016/tmp/Cl2NbO.save/
 
     init_run     :      4.35s CPU      4.56s WALL (       1 calls)
     electrons    :    111.05s CPU    114.04s WALL (       1 calls)
     forces       :      0.88s CPU      0.89s WALL (       1 calls)
     stress       :      2.12s CPU      2.12s WALL (       1 calls)

     Called by init_run:
     wfcinit      :      3.16s CPU      3.30s WALL (       1 calls)
     wfcinit:atom :      0.02s CPU      0.03s WALL (     171 calls)
     wfcinit:wfcr :      3.04s CPU      3.16s WALL (     171 calls)
     potinit      :      0.37s CPU      0.39s WALL (       1 calls)
     hinit0       :      0.47s CPU      0.49s WALL (       1 calls)

     Called by electrons:
     c_bands      :     88.52s CPU     90.81s WALL (      13 calls)
     sum_band     :     19.30s CPU     19.78s WALL (      13 calls)
     v_of_rho     :      1.26s CPU      1.30s WALL (      14 calls)
     v_h          :      0.10s CPU      0.10s WALL (      14 calls)
     v_xc         :      1.32s CPU      1.36s WALL (      16 calls)
     newd         :      1.07s CPU      1.09s WALL (      14 calls)
     PAW_pot      :      0.74s CPU      0.75s WALL (      14 calls)
     mix_rho      :      0.19s CPU      0.19s WALL (      13 calls)

     Called by c_bands:
     init_us_2    :      1.20s CPU      1.26s WALL (    4959 calls)
     cegterg      :     85.92s CPU     88.07s WALL (    2223 calls)

     Called by sum_band:
     sum_band:wei :      0.08s CPU      0.10s WALL (      13 calls)
     sum_band:loo :     17.97s CPU     18.39s WALL (      13 calls)
     sum_band:buf :      0.17s CPU      0.18s WALL (    2223 calls)
     sum_band:ini :      0.57s CPU      0.58s WALL (    2223 calls)
     sum_band:cal :      0.62s CPU      0.63s WALL (    2223 calls)
     sum_band:bec :      0.06s CPU      0.06s WALL (    2223 calls)
     addusdens    :      1.07s CPU      1.11s WALL (      13 calls)
     addusd:skk   :      0.01s CPU      0.01s WALL (      39 calls)
     addusd:dgemm :      0.32s CPU      0.35s WALL (      39 calls)
     addusd:qvan2 :      0.70s CPU      0.71s WALL (      39 calls)

     Called by *egterg:
     cdiaghg      :      4.76s CPU      4.99s WALL (    8183 calls)
     cegterg:over :      1.68s CPU      1.73s WALL (    5960 calls)
     cegterg:upda :      0.50s CPU      0.51s WALL (    5960 calls)
     cegterg:last :      0.82s CPU      0.83s WALL (    4406 calls)
     h_psi        :     78.86s CPU     80.79s WALL (    8354 calls)
     s_psi        :      0.55s CPU      0.56s WALL (    8354 calls)
     g_psi        :      0.10s CPU      0.11s WALL (    5960 calls)

     Called by h_psi:
     h_psi:calbec :      2.02s CPU      2.08s WALL (    8354 calls)
     vloc_psi     :     75.71s CPU     77.54s WALL (    8354 calls)
     add_vuspsi   :      0.85s CPU      0.88s WALL (    8354 calls)

     General routines
     calbec       :      2.72s CPU      2.80s WALL (   11432 calls)
     fft          :      1.10s CPU      1.12s WALL (     205 calls)
     ffts         :      0.02s CPU      0.02s WALL (      27 calls)
     fftw         :     82.76s CPU     84.84s WALL (  283415 calls)
     interpolate  :      0.10s CPU      0.10s WALL (      14 calls)
 
     Parallel routines
     fft_scatt_xy :     10.96s CPU     11.15s WALL (  283647 calls)
     fft_scatt_yz :     37.20s CPU     38.15s WALL (  283647 calls)

     PAW routines
     PAW_pot      :      0.74s CPU      0.75s WALL (      14 calls)
     PAW_symme    :      0.02s CPU      0.02s WALL (      27 calls)
 
     PWSCF        :   1m59.56s CPU   2m 8.35s WALL

 
   This run was terminated on:  17:39:42  18May2022            

=------------------------------------------------------------------------------=
   JOB DONE.
=------------------------------------------------------------------------------=
