MPI startup(): Warning: I_MPI_PMI_LIBRARY will be ignored since the hydra process manager was found
MPI startup(): Warning: I_MPI_PMI_LIBRARY will be ignored since the hydra process manager was found
MPI startup(): Warning: I_MPI_PMI_LIBRARY will be ignored since the hydra process manager was found
MPI startup(): Warning: I_MPI_PMI_LIBRARY will be ignored since the hydra process manager was found
MPI startup(): Warning: I_MPI_PMI_LIBRARY will be ignored since the hydra process manager was found
MPI startup(): Warning: I_MPI_PMI_LIBRARY will be ignored since the hydra process manager was found
MPI startup(): Warning: I_MPI_PMI_LIBRARY will be ignored since the hydra process manager was found
MPI startup(): Warning: I_MPI_PMI_LIBRARY will be ignored since the hydra process manager was found
MPI startup(): Warning: I_MPI_PMI_LIBRARY will be ignored since the hydra process manager was found
MPI startup(): Warning: I_MPI_PMI_LIBRARY will be ignored since the hydra process manager was found
MPI startup(): Warning: I_MPI_PMI_LIBRARY will be ignored since the hydra process manager was found
MPI startup(): Warning: I_MPI_PMI_LIBRARY will be ignored since the hydra process manager was found
MPI startup(): Warning: I_MPI_PMI_LIBRARY will be ignored since the hydra process manager was found
MPI startup(): Warning: I_MPI_PMI_LIBRARY will be ignored since the hydra process manager was found
MPI startup(): Warning: I_MPI_PMI_LIBRARY will be ignored since the hydra process manager was found
MPI startup(): Warning: I_MPI_PMI_LIBRARY will be ignored since the hydra process manager was found
MPI startup(): Warning: I_MPI_PMI_LIBRARY will be ignored since the hydra process manager was found
MPI startup(): Warning: I_MPI_PMI_LIBRARY will be ignored since the hydra process manager was found
MPI startup(): Warning: I_MPI_PMI_LIBRARY will be ignored since the hydra process manager was found
MPI startup(): Warning: I_MPI_PMI_LIBRARY will be ignored since the hydra process manager was found
MPI startup(): Warning: I_MPI_PMI_LIBRARY will be ignored since the hydra process manager was found
MPI startup(): Warning: I_MPI_PMI_LIBRARY will be ignored since the hydra process manager was found
MPI startup(): Warning: I_MPI_PMI_LIBRARY will be ignored since the hydra process manager was found
MPI startup(): Warning: I_MPI_PMI_LIBRARY will be ignored since the hydra process manager was found

     Program PWSCF v.6.7MaX starts on  1Aug2021 at 12:33:22 

     This program is part of the open-source Quantum ESPRESSO suite
     for quantum simulation of materials; please cite
         "P. Giannozzi et al., J. Phys.:Condens. Matter 21 395502 (2009);
         "P. Giannozzi et al., J. Phys.:Condens. Matter 29 465901 (2017);
          URL http://www.quantum-espresso.org", 
     in publications or presentations arising from this work. More details at
     http://www.quantum-espresso.org/quote

     Parallel version (MPI), running on    24 processors

     MPI processes distributed on     1 nodes
     R & G space division:  proc/nbgrp/npool/nimage =      24
     Waiting for input...
     Reading input from standard input

     Current dimensions of program PWSCF are:
     Max number of different atomic species (ntypx) = 10
     Max number of k-points (npk) =  40000
     Max angular momentum in pseudopotentials (lmaxx) =  3
     file Cr.rel-pbe-spn-kjpaw_psl.1.0.0.UPF: wavefunction(s)  3S 3P 3P 3D 3D renormalized
     file Si.rel-pbe-n-kjpaw_psl.1.0.0.UPF: wavefunction(s)  3S 3P 3P renormalized

     Subspace diagonalization in iterative solution of the eigenvalue problem:
     a serial algorithm will be used

     Message from routine setup:
     using ibrav=0 with symmetry is DISCOURAGED, use correct ibrav instead
 
     Parallelization info
     --------------------
     sticks:   dense  smooth     PW     G-vecs:    dense   smooth      PW
     Min         228      91     25                12702     3210     487
     Max         229      93     26                12704     3214     492
     Sum        5473    2201    621               304867    77053   11753
 


     bravais-lattice index     =            0
     lattice parameter (alat)  =       8.7475  a.u.
     unit-cell volume          =     669.3575 (a.u.)^3
     number of atoms/cell      =            8
     number of atomic types    =            2
     number of electrons       =        72.00
     number of Kohn-Sham states=           86
     kinetic-energy cutoff     =      90.0000  Ry
     charge density cutoff     =     900.0000  Ry
     scf convergence threshold =      1.0E-06
     mixing beta               =       0.7000
     number of iterations used =            8  plain     mixing
     Exchange-correlation= SLA  PW   PBX  PBC
                           (   1   4   3   4   0   0   0)
     Non magnetic calculation with spin-orbit


     celldm(1)=   8.747542  celldm(2)=   0.000000  celldm(3)=   0.000000
     celldm(4)=   0.000000  celldm(5)=   0.000000  celldm(6)=   0.000000

     crystal axes: (cart. coord. in units of alat)
               a(1) = (   1.000000   0.000000   0.000000 )  
               a(2) = (   0.000000   1.000000   0.000000 )  
               a(3) = (   0.000000   0.000000   1.000000 )  

     reciprocal axes: (cart. coord. in units 2 pi/alat)
               b(1) = (  1.000000  0.000000  0.000000 )  
               b(2) = (  0.000000  1.000000  0.000000 )  
               b(3) = (  0.000000  0.000000  1.000000 )  


     PseudoPot. # 1 for Cr read from file:
     ../../../../pseudo/Cr.rel-pbe-spn-kjpaw_psl.1.0.0.UPF
     MD5 check sum: 1e24e2b5251376a8b945118fca0c7981
     Pseudo is Projector augmented-wave + core cor, Zval = 14.0
     Generated using &quot;atomic&quot; code by A. Dal Corso  v.6.3
     Shape of augmentation charge: PSQ
     Using radial grid of 1183 points, 10 beta functions with: 
                l(1) =   0
                l(2) =   0
                l(3) =   1
                l(4) =   1
                l(5) =   1
                l(6) =   1
                l(7) =   2
                l(8) =   2
                l(9) =   2
               l(10) =   2
     Q(r) pseudized with 0 coefficients 


     PseudoPot. # 2 for Si read from file:
     ../../../../pseudo/Si.rel-pbe-n-kjpaw_psl.1.0.0.UPF
     MD5 check sum: d74f6caf6830ea4c2076867160cab1b0
     Pseudo is Projector augmented-wave + core cor, Zval =  4.0
     Generated using &quot;atomic&quot; code by A. Dal Corso  v.6.3
     Shape of augmentation charge: PSQ
     Using radial grid of 1141 points, 10 beta functions with: 
                l(1) =   0
                l(2) =   0
                l(3) =   1
                l(4) =   1
                l(5) =   1
                l(6) =   1
                l(7) =   2
                l(8) =   2
                l(9) =   2
               l(10) =   2
     Q(r) pseudized with 0 coefficients 


     atomic species   valence    mass     pseudopotential
        Cr            14.00    51.99600     Cr( 1.00)
        Si             4.00    28.08500     Si( 1.00)

     12 Sym. Ops. (no inversion) found ( 9 have fractional translation)


                                    s                        frac. trans.

      isym =  1     identity                                     

 cryst.   s( 1) = (     1          0          0      )
                  (     0          1          0      )
                  (     0          0          1      )

 cart.    s( 1) = (  1.0000000  0.0000000  0.0000000 )
                  (  0.0000000  1.0000000  0.0000000 )
                  (  0.0000000  0.0000000  1.0000000 )


      isym =  2     180 deg rotation - cart. axis [0,0,1]        

 cryst.   s( 2) = (    -1          0          0      )    f =(  0.5000000 )
                  (     0         -1          0      )       (  0.0000000 )
                  (     0          0          1      )       ( -0.5000000 )

 cart.    s( 2) = ( -1.0000000  0.0000000  0.0000000 )    f =(  0.5000000 )
                  (  0.0000000 -1.0000000  0.0000000 )       (  0.0000000 )
                  (  0.0000000  0.0000000  1.0000000 )       ( -0.5000000 )


      isym =  3     180 deg rotation - cart. axis [0,1,0]        

 cryst.   s( 3) = (    -1          0          0      )    f =(  0.0000000 )
                  (     0          1          0      )       ( -0.5000000 )
                  (     0          0         -1      )       (  0.5000000 )

 cart.    s( 3) = ( -1.0000000  0.0000000  0.0000000 )    f =(  0.0000000 )
                  (  0.0000000  1.0000000  0.0000000 )       ( -0.5000000 )
                  (  0.0000000  0.0000000 -1.0000000 )       (  0.5000000 )


      isym =  4     180 deg rotation - cart. axis [1,0,0]        

 cryst.   s( 4) = (     1          0          0      )    f =(  0.5000000 )
                  (     0         -1          0      )       (  0.5000000 )
                  (     0          0         -1      )       (  0.0000000 )

 cart.    s( 4) = (  1.0000000  0.0000000  0.0000000 )    f =(  0.5000000 )
                  (  0.0000000 -1.0000000  0.0000000 )       (  0.5000000 )
                  (  0.0000000  0.0000000 -1.0000000 )       (  0.0000000 )


      isym =  5     120 deg rotation - cart. axis [-1,-1,-1]     

 cryst.   s( 5) = (     0          0          1      )
                  (     1          0          0      )
                  (     0          1          0      )

 cart.    s( 5) = (  0.0000000  1.0000000  0.0000000 )
                  (  0.0000000  0.0000000  1.0000000 )
                  (  1.0000000  0.0000000  0.0000000 )


      isym =  6     120 deg rotation - cart. axis [-1,1,1]       

 cryst.   s( 6) = (     0          0         -1      )    f =(  0.0000000 )
                  (    -1          0          0      )       ( -0.5000000 )
                  (     0          1          0      )       (  0.5000000 )

 cart.    s( 6) = (  0.0000000 -1.0000000  0.0000000 )    f =(  0.0000000 )
                  (  0.0000000  0.0000000  1.0000000 )       ( -0.5000000 )
                  ( -1.0000000  0.0000000  0.0000000 )       (  0.5000000 )


      isym =  7     120 deg rotation - cart. axis [1,1,-1]       

 cryst.   s( 7) = (     0          0         -1      )    f =(  0.5000000 )
                  (     1          0          0      )       (  0.5000000 )
                  (     0         -1          0      )       (  0.0000000 )

 cart.    s( 7) = (  0.0000000  1.0000000  0.0000000 )    f =(  0.5000000 )
                  (  0.0000000  0.0000000 -1.0000000 )       (  0.5000000 )
                  ( -1.0000000  0.0000000  0.0000000 )       (  0.0000000 )


      isym =  8     120 deg rotation - cart. axis [1,-1,1]       

 cryst.   s( 8) = (     0          0          1      )    f =(  0.5000000 )
                  (    -1          0          0      )       (  0.0000000 )
                  (     0         -1          0      )       ( -0.5000000 )

 cart.    s( 8) = (  0.0000000 -1.0000000  0.0000000 )    f =(  0.5000000 )
                  (  0.0000000  0.0000000 -1.0000000 )       (  0.0000000 )
                  (  1.0000000  0.0000000  0.0000000 )       ( -0.5000000 )


      isym =  9     120 deg rotation - cart. axis [1,1,1]        

 cryst.   s( 9) = (     0          1          0      )
                  (     0          0          1      )
                  (     1          0          0      )

 cart.    s( 9) = (  0.0000000  0.0000000  1.0000000 )
                  (  1.0000000  0.0000000  0.0000000 )
                  (  0.0000000  1.0000000  0.0000000 )


      isym = 10     120 deg rotation - cart. axis [-1,1,-1]      

 cryst.   s(10) = (     0         -1          0      )    f =(  0.5000000 )
                  (     0          0         -1      )       (  0.5000000 )
                  (     1          0          0      )       (  0.0000000 )

 cart.    s(10) = (  0.0000000  0.0000000  1.0000000 )    f =(  0.5000000 )
                  ( -1.0000000  0.0000000  0.0000000 )       (  0.5000000 )
                  (  0.0000000 -1.0000000  0.0000000 )       (  0.0000000 )


      isym = 11     120 deg rotation - cart. axis [1,-1,-1]      

 cryst.   s(11) = (     0         -1          0      )    f =(  0.5000000 )
                  (     0          0          1      )       (  0.0000000 )
                  (    -1          0          0      )       ( -0.5000000 )

 cart.    s(11) = (  0.0000000  0.0000000 -1.0000000 )    f =(  0.5000000 )
                  ( -1.0000000  0.0000000  0.0000000 )       (  0.0000000 )
                  (  0.0000000  1.0000000  0.0000000 )       ( -0.5000000 )


      isym = 12     120 deg rotation - cart. axis [-1,-1,1]      

 cryst.   s(12) = (     0          1          0      )    f =(  0.0000000 )
                  (     0          0         -1      )       ( -0.5000000 )
                  (    -1          0          0      )       (  0.5000000 )

 cart.    s(12) = (  0.0000000  0.0000000 -1.0000000 )    f =(  0.0000000 )
                  (  1.0000000  0.0000000  0.0000000 )       ( -0.5000000 )
                  (  0.0000000 -1.0000000  0.0000000 )       (  0.5000000 )


   Cartesian axes

     site n.     atom                  positions (alat units)
         1           Cr  tau(   1) = (   0.8640000   0.3640000   0.1360000  )
         2           Cr  tau(   2) = (   0.3640000   0.1360000   0.8640000  )
         3           Cr  tau(   3) = (   0.1360000   0.8640000   0.3640000  )
         4           Cr  tau(   4) = (   0.6360000   0.6360000   0.6360000  )
         5           Si  tau(   5) = (   0.1540000   0.6540000   0.8460000  )
         6           Si  tau(   6) = (   0.6540000   0.8460000   0.1540000  )
         7           Si  tau(   7) = (   0.8460000   0.1540000   0.6540000  )
         8           Si  tau(   8) = (   0.3460000   0.3460000   0.3460000  )

   Crystallographic axes

     site n.     atom                  positions (cryst. coord.)
         1           Cr  tau(   1) = (  0.8640000  0.3640000  0.1360000  )
         2           Cr  tau(   2) = (  0.3640000  0.1360000  0.8640000  )
         3           Cr  tau(   3) = (  0.1360000  0.8640000  0.3640000  )
         4           Cr  tau(   4) = (  0.6360000  0.6360000  0.6360000  )
         5           Si  tau(   5) = (  0.1540000  0.6540000  0.8460000  )
         6           Si  tau(   6) = (  0.6540000  0.8460000  0.1540000  )
         7           Si  tau(   7) = (  0.8460000  0.1540000  0.6540000  )
         8           Si  tau(   8) = (  0.3460000  0.3460000  0.3460000  )

     number of k points=    76  Methfessel-Paxton smearing, width (Ry)=  0.0160
                       cart. coord. in units 2pi/alat
        k(    1) = (   0.0000000   0.0000000   0.0000000), wk =   0.0010000
        k(    2) = (   0.0000000   0.0000000   0.1000000), wk =   0.0060000
        k(    3) = (   0.0000000   0.0000000   0.2000000), wk =   0.0060000
        k(    4) = (   0.0000000   0.0000000   0.3000000), wk =   0.0060000
        k(    5) = (   0.0000000   0.0000000   0.4000000), wk =   0.0060000
        k(    6) = (   0.0000000   0.0000000  -0.5000000), wk =   0.0030000
        k(    7) = (   0.0000000   0.1000000   0.1000000), wk =   0.0120000
        k(    8) = (   0.0000000   0.1000000   0.2000000), wk =   0.0120000
        k(    9) = (   0.0000000   0.1000000   0.3000000), wk =   0.0120000
        k(   10) = (   0.0000000   0.1000000   0.4000000), wk =   0.0120000
        k(   11) = (   0.0000000   0.1000000  -0.5000000), wk =   0.0060000
        k(   12) = (   0.0000000   0.2000000   0.2000000), wk =   0.0120000
        k(   13) = (   0.0000000   0.2000000   0.3000000), wk =   0.0120000
        k(   14) = (   0.0000000   0.2000000   0.4000000), wk =   0.0120000
        k(   15) = (   0.0000000   0.2000000  -0.5000000), wk =   0.0060000
        k(   16) = (   0.0000000   0.3000000   0.3000000), wk =   0.0120000
        k(   17) = (   0.0000000   0.3000000   0.4000000), wk =   0.0120000
        k(   18) = (   0.0000000   0.3000000  -0.5000000), wk =   0.0060000
        k(   19) = (   0.0000000   0.4000000   0.4000000), wk =   0.0120000
        k(   20) = (   0.0000000   0.4000000  -0.5000000), wk =   0.0060000
        k(   21) = (   0.0000000  -0.5000000  -0.5000000), wk =   0.0030000
        k(   22) = (   0.1000000   0.1000000   0.1000000), wk =   0.0080000
        k(   23) = (   0.1000000   0.1000000   0.2000000), wk =   0.0240000
        k(   24) = (   0.1000000   0.1000000   0.3000000), wk =   0.0240000
        k(   25) = (   0.1000000   0.1000000   0.4000000), wk =   0.0240000
        k(   26) = (   0.1000000   0.1000000  -0.5000000), wk =   0.0120000
        k(   27) = (   0.1000000   0.2000000   0.2000000), wk =   0.0240000
        k(   28) = (   0.1000000   0.2000000   0.3000000), wk =   0.0240000
        k(   29) = (   0.1000000   0.2000000   0.4000000), wk =   0.0240000
        k(   30) = (   0.1000000   0.2000000  -0.5000000), wk =   0.0120000
        k(   31) = (   0.1000000   0.3000000   0.3000000), wk =   0.0240000
        k(   32) = (   0.1000000   0.3000000   0.4000000), wk =   0.0240000
        k(   33) = (   0.1000000   0.3000000  -0.5000000), wk =   0.0120000
        k(   34) = (   0.1000000   0.4000000   0.4000000), wk =   0.0240000
        k(   35) = (   0.1000000   0.4000000  -0.5000000), wk =   0.0120000
        k(   36) = (   0.1000000  -0.5000000  -0.5000000), wk =   0.0060000
        k(   37) = (   0.2000000   0.2000000   0.2000000), wk =   0.0080000
        k(   38) = (   0.2000000   0.2000000   0.3000000), wk =   0.0240000
        k(   39) = (   0.2000000   0.2000000   0.4000000), wk =   0.0240000
        k(   40) = (   0.2000000   0.2000000  -0.5000000), wk =   0.0120000
        k(   41) = (   0.2000000   0.3000000   0.3000000), wk =   0.0240000
        k(   42) = (   0.2000000   0.3000000   0.4000000), wk =   0.0240000
        k(   43) = (   0.2000000   0.3000000  -0.5000000), wk =   0.0120000
        k(   44) = (   0.2000000   0.4000000   0.4000000), wk =   0.0240000
        k(   45) = (   0.2000000   0.4000000  -0.5000000), wk =   0.0120000
        k(   46) = (   0.2000000  -0.5000000  -0.5000000), wk =   0.0060000
        k(   47) = (   0.3000000   0.3000000   0.3000000), wk =   0.0080000
        k(   48) = (   0.3000000   0.3000000   0.4000000), wk =   0.0240000
        k(   49) = (   0.3000000   0.3000000  -0.5000000), wk =   0.0120000
        k(   50) = (   0.3000000   0.4000000   0.4000000), wk =   0.0240000
        k(   51) = (   0.3000000   0.4000000  -0.5000000), wk =   0.0120000
        k(   52) = (   0.3000000  -0.5000000  -0.5000000), wk =   0.0060000
        k(   53) = (   0.4000000   0.4000000   0.4000000), wk =   0.0080000
        k(   54) = (   0.4000000   0.4000000  -0.5000000), wk =   0.0120000
        k(   55) = (   0.4000000  -0.5000000  -0.5000000), wk =   0.0060000
        k(   56) = (  -0.5000000  -0.5000000  -0.5000000), wk =   0.0010000
        k(   57) = (   0.0000000   0.2000000   0.1000000), wk =   0.0120000
        k(   58) = (   0.0000000   0.3000000   0.1000000), wk =   0.0120000
        k(   59) = (   0.0000000   0.4000000   0.1000000), wk =   0.0120000
        k(   60) = (   0.0000000  -0.5000000   0.1000000), wk =   0.0060000
        k(   61) = (   0.0000000   0.3000000   0.2000000), wk =   0.0120000
        k(   62) = (   0.0000000   0.4000000   0.2000000), wk =   0.0120000
        k(   63) = (   0.0000000  -0.5000000   0.2000000), wk =   0.0060000
        k(   64) = (   0.0000000   0.4000000   0.3000000), wk =   0.0120000
        k(   65) = (   0.0000000  -0.5000000   0.3000000), wk =   0.0060000
        k(   66) = (   0.0000000  -0.5000000   0.4000000), wk =   0.0060000
        k(   67) = (  -0.1000000   0.3000000   0.2000000), wk =   0.0240000
        k(   68) = (  -0.1000000   0.4000000   0.2000000), wk =   0.0240000
        k(   69) = (  -0.1000000  -0.5000000   0.2000000), wk =   0.0120000
        k(   70) = (  -0.1000000   0.4000000   0.3000000), wk =   0.0240000
        k(   71) = (  -0.1000000  -0.5000000   0.3000000), wk =   0.0120000
        k(   72) = (  -0.1000000  -0.5000000   0.4000000), wk =   0.0120000
        k(   73) = (  -0.2000000   0.4000000   0.3000000), wk =   0.0240000
        k(   74) = (  -0.2000000  -0.5000000   0.3000000), wk =   0.0120000
        k(   75) = (  -0.2000000  -0.5000000   0.4000000), wk =   0.0120000
        k(   76) = (  -0.3000000  -0.5000000   0.4000000), wk =   0.0120000

                       cryst. coord.
        k(    1) = (   0.0000000   0.0000000   0.0000000), wk =   0.0010000
        k(    2) = (   0.0000000   0.0000000   0.1000000), wk =   0.0060000
        k(    3) = (   0.0000000   0.0000000   0.2000000), wk =   0.0060000
        k(    4) = (   0.0000000   0.0000000   0.3000000), wk =   0.0060000
        k(    5) = (   0.0000000   0.0000000   0.4000000), wk =   0.0060000
        k(    6) = (   0.0000000   0.0000000  -0.5000000), wk =   0.0030000
        k(    7) = (   0.0000000   0.1000000   0.1000000), wk =   0.0120000
        k(    8) = (   0.0000000   0.1000000   0.2000000), wk =   0.0120000
        k(    9) = (   0.0000000   0.1000000   0.3000000), wk =   0.0120000
        k(   10) = (   0.0000000   0.1000000   0.4000000), wk =   0.0120000
        k(   11) = (   0.0000000   0.1000000  -0.5000000), wk =   0.0060000
        k(   12) = (   0.0000000   0.2000000   0.2000000), wk =   0.0120000
        k(   13) = (   0.0000000   0.2000000   0.3000000), wk =   0.0120000
        k(   14) = (   0.0000000   0.2000000   0.4000000), wk =   0.0120000
        k(   15) = (   0.0000000   0.2000000  -0.5000000), wk =   0.0060000
        k(   16) = (   0.0000000   0.3000000   0.3000000), wk =   0.0120000
        k(   17) = (   0.0000000   0.3000000   0.4000000), wk =   0.0120000
        k(   18) = (   0.0000000   0.3000000  -0.5000000), wk =   0.0060000
        k(   19) = (   0.0000000   0.4000000   0.4000000), wk =   0.0120000
        k(   20) = (   0.0000000   0.4000000  -0.5000000), wk =   0.0060000
        k(   21) = (   0.0000000  -0.5000000  -0.5000000), wk =   0.0030000
        k(   22) = (   0.1000000   0.1000000   0.1000000), wk =   0.0080000
        k(   23) = (   0.1000000   0.1000000   0.2000000), wk =   0.0240000
        k(   24) = (   0.1000000   0.1000000   0.3000000), wk =   0.0240000
        k(   25) = (   0.1000000   0.1000000   0.4000000), wk =   0.0240000
        k(   26) = (   0.1000000   0.1000000  -0.5000000), wk =   0.0120000
        k(   27) = (   0.1000000   0.2000000   0.2000000), wk =   0.0240000
        k(   28) = (   0.1000000   0.2000000   0.3000000), wk =   0.0240000
        k(   29) = (   0.1000000   0.2000000   0.4000000), wk =   0.0240000
        k(   30) = (   0.1000000   0.2000000  -0.5000000), wk =   0.0120000
        k(   31) = (   0.1000000   0.3000000   0.3000000), wk =   0.0240000
        k(   32) = (   0.1000000   0.3000000   0.4000000), wk =   0.0240000
        k(   33) = (   0.1000000   0.3000000  -0.5000000), wk =   0.0120000
        k(   34) = (   0.1000000   0.4000000   0.4000000), wk =   0.0240000
        k(   35) = (   0.1000000   0.4000000  -0.5000000), wk =   0.0120000
        k(   36) = (   0.1000000  -0.5000000  -0.5000000), wk =   0.0060000
        k(   37) = (   0.2000000   0.2000000   0.2000000), wk =   0.0080000
        k(   38) = (   0.2000000   0.2000000   0.3000000), wk =   0.0240000
        k(   39) = (   0.2000000   0.2000000   0.4000000), wk =   0.0240000
        k(   40) = (   0.2000000   0.2000000  -0.5000000), wk =   0.0120000
        k(   41) = (   0.2000000   0.3000000   0.3000000), wk =   0.0240000
        k(   42) = (   0.2000000   0.3000000   0.4000000), wk =   0.0240000
        k(   43) = (   0.2000000   0.3000000  -0.5000000), wk =   0.0120000
        k(   44) = (   0.2000000   0.4000000   0.4000000), wk =   0.0240000
        k(   45) = (   0.2000000   0.4000000  -0.5000000), wk =   0.0120000
        k(   46) = (   0.2000000  -0.5000000  -0.5000000), wk =   0.0060000
        k(   47) = (   0.3000000   0.3000000   0.3000000), wk =   0.0080000
        k(   48) = (   0.3000000   0.3000000   0.4000000), wk =   0.0240000
        k(   49) = (   0.3000000   0.3000000  -0.5000000), wk =   0.0120000
        k(   50) = (   0.3000000   0.4000000   0.4000000), wk =   0.0240000
        k(   51) = (   0.3000000   0.4000000  -0.5000000), wk =   0.0120000
        k(   52) = (   0.3000000  -0.5000000  -0.5000000), wk =   0.0060000
        k(   53) = (   0.4000000   0.4000000   0.4000000), wk =   0.0080000
        k(   54) = (   0.4000000   0.4000000  -0.5000000), wk =   0.0120000
        k(   55) = (   0.4000000  -0.5000000  -0.5000000), wk =   0.0060000
        k(   56) = (  -0.5000000  -0.5000000  -0.5000000), wk =   0.0010000
        k(   57) = (   0.0000000   0.2000000   0.1000000), wk =   0.0120000
        k(   58) = (   0.0000000   0.3000000   0.1000000), wk =   0.0120000
        k(   59) = (   0.0000000   0.4000000   0.1000000), wk =   0.0120000
        k(   60) = (   0.0000000  -0.5000000   0.1000000), wk =   0.0060000
        k(   61) = (   0.0000000   0.3000000   0.2000000), wk =   0.0120000
        k(   62) = (   0.0000000   0.4000000   0.2000000), wk =   0.0120000
        k(   63) = (   0.0000000  -0.5000000   0.2000000), wk =   0.0060000
        k(   64) = (   0.0000000   0.4000000   0.3000000), wk =   0.0120000
        k(   65) = (   0.0000000  -0.5000000   0.3000000), wk =   0.0060000
        k(   66) = (   0.0000000  -0.5000000   0.4000000), wk =   0.0060000
        k(   67) = (  -0.1000000   0.3000000   0.2000000), wk =   0.0240000
        k(   68) = (  -0.1000000   0.4000000   0.2000000), wk =   0.0240000
        k(   69) = (  -0.1000000  -0.5000000   0.2000000), wk =   0.0120000
        k(   70) = (  -0.1000000   0.4000000   0.3000000), wk =   0.0240000
        k(   71) = (  -0.1000000  -0.5000000   0.3000000), wk =   0.0120000
        k(   72) = (  -0.1000000  -0.5000000   0.4000000), wk =   0.0120000
        k(   73) = (  -0.2000000   0.4000000   0.3000000), wk =   0.0240000
        k(   74) = (  -0.2000000  -0.5000000   0.3000000), wk =   0.0120000
        k(   75) = (  -0.2000000  -0.5000000   0.4000000), wk =   0.0120000
        k(   76) = (  -0.3000000  -0.5000000   0.4000000), wk =   0.0120000

     Dense  grid:   304867 G-vectors     FFT dimensions: (  90,  90,  90)

     Smooth grid:    77053 G-vectors     FFT dimensions: (  54,  54,  54)

     Dynamical RAM for                 wfc:       1.06 MB

     Dynamical RAM for     wfc (w. buffer):      81.24 MB

     Dynamical RAM for           str. fact:       0.39 MB

     Dynamical RAM for           local pot:       0.00 MB

     Dynamical RAM for          nlocal pot:       1.67 MB

     Dynamical RAM for                qrad:      12.61 MB

     Dynamical RAM for          rho,v,vnew:       5.29 MB

     Dynamical RAM for               rhoin:       1.76 MB

     Dynamical RAM for            rho*nmix:      12.41 MB

     Dynamical RAM for           G-vectors:       0.75 MB

     Dynamical RAM for          h,s,v(r/c):       1.35 MB

     Dynamical RAM for          <psi|beta>:       0.71 MB

     Dynamical RAM for                 psi:       2.11 MB

     Dynamical RAM for                hpsi:       2.11 MB

     Dynamical RAM for                spsi:       2.11 MB

     Dynamical RAM for      wfcinit/wfcrot:       2.35 MB

     Dynamical RAM for           addusdens:     119.02 MB

     Dynamical RAM for          addusforce:     120.34 MB

     Dynamical RAM for         addusstress:     121.74 MB

     Estimated static dynamical RAM per process >     118.67 MB

     Estimated max dynamical RAM per process >     240.41 MB

     Estimated total dynamical RAM >       5.63 GB

     Initial potential from superposition of free atoms

     starting charge   71.99469, renormalised to   72.00000
     Starting wfcs are  112 randomized atomic wfcs
     Checking if some PAW data can be deallocated... 
       PAW data deallocated on   12 nodes for type:  1
       PAW data deallocated on   12 nodes for type:  2

     total cpu time spent up to now is       14.8 secs

     Self-consistent Calculation

     iteration #  1     ecut=    90.00 Ry     beta= 0.70
     Davidson diagonalization with overlap
     ethr =  1.00E-02,  avg # of iterations =  2.0

     Threshold (ethr) on eigenvalues was too large:
     Diagonalizing with lowered threshold

     Davidson diagonalization with overlap
     ethr =  2.09E-04,  avg # of iterations =  4.3

     total cpu time spent up to now is       86.7 secs

     total energy              =   -1180.30984581 Ry
     estimated scf accuracy    <       0.18908553 Ry

     iteration #  2     ecut=    90.00 Ry     beta= 0.70
     Davidson diagonalization with overlap
     ethr =  2.63E-04,  avg # of iterations =  3.2

     total cpu time spent up to now is      123.0 secs

     total energy              =   -1180.31464571 Ry
     estimated scf accuracy    <       0.08118902 Ry

     iteration #  3     ecut=    90.00 Ry     beta= 0.70
     Davidson diagonalization with overlap
     ethr =  1.13E-04,  avg # of iterations =  5.1

     total cpu time spent up to now is      167.8 secs

     total energy              =   -1180.32592492 Ry
     estimated scf accuracy    <       0.16328883 Ry

     iteration #  4     ecut=    90.00 Ry     beta= 0.70
     Davidson diagonalization with overlap
     ethr =  1.13E-04,  avg # of iterations =  4.0

     total cpu time spent up to now is      203.7 secs

     total energy              =   -1180.34983339 Ry
     estimated scf accuracy    <       0.00030195 Ry

     iteration #  5     ecut=    90.00 Ry     beta= 0.70
     Davidson diagonalization with overlap
     ethr =  4.19E-07,  avg # of iterations =  8.4

     total cpu time spent up to now is      260.0 secs

     total energy              =   -1180.35046238 Ry
     estimated scf accuracy    <       0.00033461 Ry

     iteration #  6     ecut=    90.00 Ry     beta= 0.70
     Davidson diagonalization with overlap
     ethr =  4.19E-07,  avg # of iterations =  2.9

     total cpu time spent up to now is      291.4 secs

     total energy              =   -1180.35051334 Ry
     estimated scf accuracy    <       0.00000531 Ry

     iteration #  7     ecut=    90.00 Ry     beta= 0.70
     Davidson diagonalization with overlap
     ethr =  7.38E-09,  avg # of iterations =  5.9

     total cpu time spent up to now is      338.3 secs

     total energy              =   -1180.35051715 Ry
     estimated scf accuracy    <       0.00003593 Ry

     iteration #  8     ecut=    90.00 Ry     beta= 0.70
     Davidson diagonalization with overlap
     ethr =  7.38E-09,  avg # of iterations =  4.8

     total cpu time spent up to now is      382.1 secs

     End of self-consistent calculation

          k = 0.0000 0.0000 0.0000 (  9771 PWs)   bands (ev):

   -56.5151 -56.5151 -56.4804 -56.4804 -56.4804 -56.4804 -56.4804 -56.4804
   -28.5807 -28.5807 -28.5730 -28.5730 -28.5730 -28.5730 -28.4837 -28.4837
   -27.6155 -27.6155 -27.6155 -27.6155 -27.5386 -27.5386 -27.5386 -27.5386
   -27.5326 -27.5326 -27.4504 -27.4504 -27.4504 -27.4504 -27.4499 -27.4499
     2.6986   2.6986   7.4568   7.4568   7.4568   7.4568   7.4660   7.4660
    10.5369  10.5369  10.5449  10.5449  10.5449  10.5449  11.9116  11.9116
    11.9116  11.9116  11.9227  11.9227  12.6028  12.6028  12.7721  12.7721
    12.7721  12.7721  13.1436  13.1436  13.1436  13.1436  13.1447  13.1447
    13.6717  13.6717  13.6717  13.6717  13.6755  13.6755  15.5519  15.5519
    15.5832  15.5832  15.5832  15.5832  15.7658  15.7658  15.7658  15.7658
    16.6657  16.6657  16.6961  16.6961  16.6961  16.6961

     occupation numbers 
     1.0000   1.0000   1.0000   1.0000   1.0000   1.0000   1.0000   1.0000
     1.0000   1.0000   1.0000   1.0000   1.0000   1.0000   1.0000   1.0000
     1.0000   1.0000   1.0000   1.0000   1.0000   1.0000   1.0000   1.0000
     1.0000   1.0000   1.0000   1.0000   1.0000   1.0000   1.0000   1.0000
     1.0000   1.0000   1.0000   1.0000   1.0000   1.0000   1.0000   1.0000
     1.0000   1.0000   1.0000   1.0000   1.0000   1.0000   1.0000   1.0000
     1.0000   1.0000   1.0000   1.0000   1.0000   1.0000   1.0000   1.0000
     1.0000   1.0000   1.0000   1.0000   1.0000   1.0000   1.0000   1.0000
     1.0000   1.0000   1.0000   1.0000   1.0000   1.0000  -0.0004  -0.0004
    -0.0002  -0.0002  -0.0002  -0.0002  -0.0000  -0.0000  -0.0000  -0.0000
    -0.0000  -0.0000  -0.0000  -0.0000  -0.0000  -0.0000

          k = 0.0000 0.0000 0.1000 (  9695 PWs)   bands (ev):

   -56.5145 -56.5145 -56.4836 -56.4836 -56.4802 -56.4802 -56.4782 -56.4782
   -28.5858 -28.5786 -28.5770 -28.5755 -28.5683 -28.5654 -28.4855 -28.4855
   -27.6265 -27.6210 -27.6082 -27.6028 -27.5457 -27.5434 -27.5390 -27.5340
   -27.5328 -27.5229 -27.4564 -27.4549 -27.4530 -27.4489 -27.4483 -27.4448
     2.7680   2.7680   6.9405   6.9443   7.4971   7.4982   7.8789   7.8872
    10.1585  10.1640  10.5886  10.5898  10.9494  10.9523  11.4178  11.4189
    11.7326  11.7359  12.4392  12.4548  12.5671  12.5713  12.7701  12.7778
    12.8727  12.8732  13.1179  13.1196  13.1682  13.1685  13.1955  13.1960
    13.5355  13.5417  13.6613  13.6623  13.8561  13.8567  15.4470  15.4690
    15.4706  15.4757  15.7037  15.7193  15.7380  15.7521  15.7564  15.7694
    16.5148  16.5329  16.6527  16.6557  16.8460  16.8663

     occupation numbers 
     1.0000   1.0000   1.0000   1.0000   1.0000   1.0000   1.0000   1.0000
     1.0000   1.0000   1.0000   1.0000   1.0000   1.0000   1.0000   1.0000
     1.0000   1.0000   1.0000   1.0000   1.0000   1.0000   1.0000   1.0000
     1.0000   1.0000   1.0000   1.0000   1.0000   1.0000   1.0000   1.0000
     1.0000   1.0000   1.0000   1.0000   1.0000   1.0000   1.0000   1.0000
     1.0000   1.0000   1.0000   1.0000   1.0000   1.0000   1.0000   1.0000
     1.0000   1.0000   1.0000   1.0000   1.0000   1.0000   1.0000   1.0000
     1.0000   1.0000   1.0000   1.0000   1.0000   1.0000   1.0000   1.0000
     1.0000   1.0000   1.0000   1.0000   1.0000   1.0000  -0.0031  -0.0020
    -0.0020  -0.0018  -0.0000  -0.0000  -0.0000  -0.0000  -0.0000  -0.0000
    -0.0000  -0.0000  -0.0000  -0.0000  -0.0000  -0.0000

          k = 0.0000 0.0000 0.2000 (  9663 PWs)   bands (ev):

   -56.5126 -56.5126 -56.4874 -56.4874 -56.4796 -56.4796 -56.4768 -56.4768
   -28.5893 -28.5822 -28.5784 -28.5769 -28.5592 -28.5559 -28.4909 -28.4908
   -27.6346 -27.6259 -27.5987 -27.5908 -27.5534 -27.5459 -27.5397 -27.5324
   -27.5290 -27.5117 -27.4637 -27.4604 -27.4572 -27.4491 -27.4476 -27.4415
     2.9743   2.9743   6.3257   6.3277   7.6079   7.6103   8.2280   8.2378
     9.8575   9.8606  10.7051  10.7085  10.9853  10.9909  11.3746  11.3805
    11.3908  11.3910  12.3761  12.3887  12.8260  12.8324  12.8458  12.8704
    13.0742  13.0797  13.1053  13.1082  13.2177  13.2214  13.2382  13.2383
    13.5735  13.5847  13.6070  13.6107  14.0041  14.0048  15.2042  15.2282
    15.4002  15.4047  15.6641  15.6763  15.7437  15.7646  15.8243  15.8490
    16.3560  16.3708  16.5584  16.5677  17.0730  17.0936

     occupation numbers 
     1.0000   1.0000   1.0000   1.0000   1.0000   1.0000   1.0000   1.0000
     1.0000   1.0000   1.0000   1.0000   1.0000   1.0000   1.0000   1.0000
     1.0000   1.0000   1.0000   1.0000   1.0000   1.0000   1.0000   1.0000
     1.0000   1.0000   1.0000   1.0000   1.0000   1.0000   1.0000   1.0000
     1.0000   1.0000   1.0000   1.0000   1.0000   1.0000   1.0000   1.0000
     1.0000   1.0000   1.0000   1.0000   1.0000   1.0000   1.0000   1.0000
     1.0000   1.0000   1.0000   1.0000   1.0000   1.0000   1.0000   1.0000
     1.0000   1.0000   1.0000   1.0000   1.0000   1.0000   1.0000   1.0000
     1.0000   1.0000   1.0000   1.0000   1.0000   1.0000  -0.0346  -0.0353
    -0.0067  -0.0063  -0.0000  -0.0000  -0.0000  -0.0000  -0.0000  -0.0000
    -0.0000  -0.0000  -0.0000  -0.0000  -0.0000  -0.0000

          k = 0.0000 0.0000 0.3000 (  9638 PWs)   bands (ev):

   -56.5096 -56.5096 -56.4918 -56.4918 -56.4788 -56.4788 -56.4762 -56.4762
   -28.5909 -28.5839 -28.5818 -28.5785 -28.5478 -28.5450 -28.4993 -28.4989
   -27.6392 -27.6307 -27.5874 -27.5817 -27.5609 -27.5451 -27.5363 -27.5328
   -27.5282 -27.5001 -27.4746 -27.4628 -27.4624 -27.4507 -27.4470 -27.4405
     3.3114   3.3114   5.6495   5.6505   7.7871   7.7907   8.4734   8.4834
     9.6691   9.6695  10.7383  10.7433  10.7930  10.8043  11.0722  11.0787
    11.7459  11.7475  12.1735  12.1894  12.8833  12.9007  12.9087  12.9165
    13.1314  13.1369  13.1524  13.1583  13.2600  13.2622  13.3809  13.3816
    13.4579  13.4628  13.8464  13.8504  14.0774  14.0794  14.9573  14.9897
    15.3639  15.3694  15.5679  15.5853  15.7398  15.7668  15.8578  15.8816
    16.2267  16.2421  16.4213  16.4343  17.2685  17.2872

     occupation numbers 
     1.0000   1.0000   1.0000   1.0000   1.0000   1.0000   1.0000   1.0000
     1.0000   1.0000   1.0000   1.0000   1.0000   1.0000   1.0000   1.0000
     1.0000   1.0000   1.0000   1.0000   1.0000   1.0000   1.0000   1.0000
     1.0000   1.0000   1.0000   1.0000   1.0000   1.0000   1.0000   1.0000
     1.0000   1.0000   1.0000   1.0000   1.0000   1.0000   1.0000   1.0000
     1.0000   1.0000   1.0000   1.0000   1.0000   1.0000   1.0000   1.0000
     1.0000   1.0000   1.0000   1.0000   1.0000   1.0000   1.0000   1.0000
     1.0000   1.0000   1.0000   1.0000   1.0000   1.0000   1.0000   1.0000
     1.0000   1.0000   1.0000   1.0000   1.0000   1.0000   0.4852   0.3612
    -0.0114  -0.0106  -0.0002  -0.0002  -0.0000  -0.0000  -0.0000  -0.0000
    -0.0000  -0.0000  -0.0000  -0.0000  -0.0000  -0.0000

          k = 0.0000 0.0000 0.4000 (  9654 PWs)   bands (ev):

   -56.5058 -56.5058 -56.4966 -56.4966 -56.4778 -56.4778 -56.4763 -56.4763
   -28.5905 -28.5854 -28.5839 -28.5806 -28.5352 -28.5331 -28.5101 -28.5093
   -27.6405 -27.6353 -27.5782 -27.5720 -27.5674 -27.5456 -27.5413 -27.5308
   -27.5198 -27.4888 -27.4884 -27.4700 -27.4607 -27.4536 -27.4456 -27.4414
     3.7684   3.7684   4.9675   4.9679   8.0220   8.0269   8.4870   8.4954
     9.7176   9.7210  10.4131  10.4149  10.7854  10.7987  11.0146  11.0190
    12.0859  12.0881  12.1327  12.1464  12.7241  12.7394  12.9198  12.9326
    13.0715  13.0777  13.1920  13.1951  13.2344  13.2379  13.2956  13.2991
    13.5919  13.5931  13.9167  13.9210  14.2940  14.3109  14.7677  14.8024
    15.3607  15.3740  15.4749  15.4941  15.7623  15.7922  15.8404  15.8666
    16.1534  16.1690  16.2727  16.2866  17.3793  17.3871

     occupation numbers 
     1.0000   1.0000   1.0000   1.0000   1.0000   1.0000   1.0000   1.0000
     1.0000   1.0000   1.0000   1.0000   1.0000   1.0000   1.0000   1.0000
     1.0000   1.0000   1.0000   1.0000   1.0000   1.0000   1.0000   1.0000
     1.0000   1.0000   1.0000   1.0000   1.0000   1.0000   1.0000   1.0000
     1.0000   1.0000   1.0000   1.0000   1.0000   1.0000   1.0000   1.0000
     1.0000   1.0000   1.0000   1.0000   1.0000   1.0000   1.0000   1.0000
     1.0000   1.0000   1.0000   1.0000   1.0000   1.0000   1.0000   1.0000
     1.0000   1.0000   1.0000   1.0000   1.0000   1.0000   1.0000   1.0000
     1.0000   1.0000   1.0000   1.0000   1.0001   1.0001   1.0025   0.9578
    -0.0119  -0.0099  -0.0018  -0.0012  -0.0000  -0.0000  -0.0000  -0.0000
    -0.0000  -0.0000  -0.0000  -0.0000  -0.0000  -0.0000

          k = 0.0000 0.0000-0.5000 (  9658 PWs)   bands (ev):

   -56.5013 -56.5013 -56.5013 -56.5013 -56.4769 -56.4769 -56.4769 -56.4769
   -28.5885 -28.5885 -28.5826 -28.5826 -28.5224 -28.5224 -28.5209 -28.5209
   -27.6389 -27.6389 -27.5730 -27.5730 -27.5584 -27.5584 -27.5358 -27.5358
   -27.5040 -27.5040 -27.4787 -27.4787 -27.4572 -27.4572 -27.4434 -27.4434
     4.3286   4.3286   4.3288   4.3288   8.2825   8.2825   8.2890   8.2890
    10.0170  10.0170  10.0210  10.0210  10.8980  10.8980  10.9093  10.9093
    12.2473  12.2473  12.2539  12.2539  12.6852  12.6852  12.6977  12.6977
    13.1421  13.1421  13.1425  13.1425  13.2372  13.2372  13.2409  13.2409
    13.7828  13.7828  13.7859  13.7859  14.5656  14.5656  14.5941  14.5941
    15.4013  15.4013  15.4191  15.4191  15.8061  15.8061  15.8358  15.8358
    16.1661  16.1661  16.1798  16.1798  17.5419  17.5470

     occupation numbers 
     1.0000   1.0000   1.0000   1.0000   1.0000   1.0000   1.0000   1.0000
     1.0000   1.0000   1.0000   1.0000   1.0000   1.0000   1.0000   1.0000
     1.0000   1.0000   1.0000   1.0000   1.0000   1.0000   1.0000   1.0000
     1.0000   1.0000   1.0000   1.0000   1.0000   1.0000   1.0000   1.0000
     1.0000   1.0000   1.0000   1.0000   1.0000   1.0000   1.0000   1.0000
     1.0000   1.0000   1.0000   1.0000   1.0000   1.0000   1.0000   1.0000
     1.0000   1.0000   1.0000   1.0000   1.0000   1.0000   1.0000   1.0000
     1.0000   1.0000   1.0000   1.0000   1.0000   1.0000   1.0000   1.0000
     1.0000   1.0000   1.0000   1.0000   1.0151   1.0151   1.0207   1.0207
    -0.0066  -0.0066  -0.0050  -0.0050  -0.0000  -0.0000  -0.0000  -0.0000
    -0.0000  -0.0000  -0.0000  -0.0000  -0.0000  -0.0000

          k = 0.0000 0.1000 0.1000 (  9675 PWs)   bands (ev):

   -56.5139 -56.5139 -56.4848 -56.4848 -56.4804 -56.4804 -56.4774 -56.4774
   -28.5876 -28.5811 -28.5759 -28.5746 -28.5662 -28.5623 -28.4873 -28.4873
   -27.6284 -27.6251 -27.6026 -27.5991 -27.5484 -27.5439 -27.5410 -27.5373
   -27.5274 -27.5179 -27.4595 -27.4590 -27.4541 -27.4493 -27.4462 -27.4428
     2.8371   2.8372   6.8017   6.8069   7.3667   7.3701   8.0832   8.0892
    10.0375  10.0429  10.6307  10.6345  11.0120  11.0164  11.1728  11.1746
    11.8329  11.8342  12.4245  12.4393  12.5994  12.6058  12.8433  12.8517
    12.9295  12.9361  13.1414  13.1438  13.1613  13.1649  13.2343  13.2367
    13.4840  13.4893  13.6679  13.6769  13.9356  13.9395  15.3914  15.4003
    15.4511  15.4550  15.6582  15.6674  15.7378  15.7498  15.7749  15.7913
    16.4354  16.4541  16.6622  16.6679  16.8853  16.9119

     occupation numbers 
     1.0000   1.0000   1.0000   1.0000   1.0000   1.0000   1.0000   1.0000
     1.0000   1.0000   1.0000   1.0000   1.0000   1.0000   1.0000   1.0000
     1.0000   1.0000   1.0000   1.0000   1.0000   1.0000   1.0000   1.0000
     1.0000   1.0000   1.0000   1.0000   1.0000   1.0000   1.0000   1.0000
     1.0000   1.0000   1.0000   1.0000   1.0000   1.0000   1.0000   1.0000
     1.0000   1.0000   1.0000   1.0000   1.0000   1.0000   1.0000   1.0000
     1.0000   1.0000   1.0000   1.0000   1.0000   1.0000   1.0000   1.0000
     1.0000   1.0000   1.0000   1.0000   1.0000   1.0000   1.0000   1.0000
     1.0000   1.0000   1.0000   1.0000   1.0000   1.0000  -0.0077  -0.0067
    -0.0029  -0.0027  -0.0000  -0.0000  -0.0000  -0.0000  -0.0000  -0.0000
    -0.0000  -0.0000  -0.0000  -0.0000  -0.0000  -0.0000

          k = 0.0000 0.1000 0.2000 (  9636 PWs)   bands (ev):

   -56.5120 -56.5120 -56.4879 -56.4879 -56.4801 -56.4801 -56.4765 -56.4765
   -28.5899 -28.5836 -28.5765 -28.5758 -28.5585 -28.5549 -28.4926 -28.4925
   -27.6341 -27.6277 -27.5952 -27.5893 -27.5535 -27.5471 -27.5417 -27.5366
   -27.5241 -27.5082 -27.4680 -27.4635 -27.4570 -27.4511 -27.4444 -27.4397
     3.0425   3.0425   6.3255   6.3286   7.3967   7.3993   8.3524   8.3585
     9.8333   9.8364  10.6451  10.6481  10.7648  10.7688  11.4220  11.4236
    11.6071  11.6119  12.3953  12.4034  12.6323  12.6357  13.0051  13.0160
    13.0984  13.1050  13.1358  13.1372  13.2146  13.2173  13.3010  13.3033
    13.4899  13.4954  13.7059  13.7193  14.0458  14.0522  15.2134  15.2368
    15.3452  15.3588  15.5955  15.6106  15.7114  15.7293  15.8278  15.8514
    16.3030  16.3202  16.5831  16.5941  17.0595  17.0892

     occupation numbers 
     1.0000   1.0000   1.0000   1.0000   1.0000   1.0000   1.0000   1.0000
     1.0000   1.0000   1.0000   1.0000   1.0000   1.0000   1.0000   1.0000
     1.0000   1.0000   1.0000   1.0000   1.0000   1.0000   1.0000   1.0000
     1.0000   1.0000   1.0000   1.0000   1.0000   1.0000   1.0000   1.0000
     1.0000   1.0000   1.0000   1.0000   1.0000   1.0000   1.0000   1.0000
     1.0000   1.0000   1.0000   1.0000   1.0000   1.0000   1.0000   1.0000
     1.0000   1.0000   1.0000   1.0000   1.0000   1.0000   1.0000   1.0000
     1.0000   1.0000   1.0000   1.0000   1.0000   1.0000   1.0000   1.0000
     1.0000   1.0000   1.0000   1.0000   1.0000   1.0000  -0.0353  -0.0346
    -0.0144  -0.0122  -0.0001  -0.0001  -0.0000  -0.0000  -0.0000  -0.0000
    -0.0000  -0.0000  -0.0000  -0.0000  -0.0000  -0.0000

          k = 0.0000 0.1000 0.3000 (  9642 PWs)   bands (ev):

   -56.5091 -56.5091 -56.4919 -56.4919 -56.4792 -56.4792 -56.4761 -56.4761
   -28.5908 -28.5847 -28.5798 -28.5774 -28.5479 -28.5450 -28.5008 -28.5005
   -27.6380 -27.6307 -27.5859 -27.5806 -27.5604 -27.5465 -27.5399 -27.5347
   -27.5246 -27.4974 -27.4790 -27.4662 -27.4609 -27.4540 -27.4429 -27.4382
     3.3779   3.3780   5.6880   5.6894   7.5761   7.5779   8.5076   8.5134
     9.6887   9.6902  10.3941  10.3985  10.9285  10.9301  11.2914  11.3020
    11.7041  11.7072  12.2164  12.2295  12.7190  12.7226  13.0168  13.0270
    13.0328  13.0358  13.2277  13.2337  13.2988  13.3004  13.4133  13.4173
    13.5155  13.5242  13.8860  13.8981  14.1187  14.1242  14.9669  14.9983
    15.3137  15.3264  15.4912  15.5061  15.7006  15.7249  15.8522  15.8779
    16.1924  16.2059  16.4504  16.4638  17.2315  17.2600

     occupation numbers 
     1.0000   1.0000   1.0000   1.0000   1.0000   1.0000   1.0000   1.0000
     1.0000   1.0000   1.0000   1.0000   1.0000   1.0000   1.0000   1.0000
     1.0000   1.0000   1.0000   1.0000   1.0000   1.0000   1.0000   1.0000
     1.0000   1.0000   1.0000   1.0000   1.0000   1.0000   1.0000   1.0000
     1.0000   1.0000   1.0000   1.0000   1.0000   1.0000   1.0000   1.0000
     1.0000   1.0000   1.0000   1.0000   1.0000   1.0000   1.0000   1.0000
     1.0000   1.0000   1.0000   1.0000   1.0000   1.0000   1.0000   1.0000
     1.0000   1.0000   1.0000   1.0000   1.0000   1.0000   1.0000   1.0000
     1.0000   1.0000   1.0000   1.0000   1.0000   1.0000   0.4479   0.3300
    -0.0206  -0.0180  -0.0013  -0.0010  -0.0000  -0.0000  -0.0000  -0.0000
    -0.0000  -0.0000  -0.0000  -0.0000  -0.0000  -0.0000

          k = 0.0000 0.1000 0.4000 (  9650 PWs)   bands (ev):

   -56.5053 -56.5053 -56.4964 -56.4964 -56.4782 -56.4782 -56.4764 -56.4764
   -28.5899 -28.5852 -28.5825 -28.5797 -28.5358 -28.5338 -28.5114 -28.5106
   -27.6389 -27.6342 -27.5780 -27.5711 -27.5670 -27.5482 -27.5411 -27.5300
   -27.5218 -27.4931 -27.4860 -27.4697 -27.4625 -27.4573 -27.4415 -27.4385
     3.8322   3.8324   5.0204   5.0211   7.8362   7.8385   8.4142   8.4187
     9.7546   9.7581  10.2267  10.2307  11.0029  11.0076  11.0664  11.0792
    11.9590  11.9647  12.1920  12.2007  12.6472  12.6521  12.8522  12.8612
    13.0643  13.0690  13.2687  13.2726  13.3073  13.3097  13.3728  13.3745
    13.6274  13.6315  13.9419  13.9471  14.3354  14.3549  14.7770  14.8112
    15.3088  15.3239  15.3978  15.4124  15.7216  15.7485  15.8309  15.8593
    16.1462  16.1551  16.3081  16.3210  17.3510  17.3689

     occupation numbers 
     1.0000   1.0000   1.0000   1.0000   1.0000   1.0000   1.0000   1.0000
     1.0000   1.0000   1.0000   1.0000   1.0000   1.0000   1.0000   1.0000
     1.0000   1.0000   1.0000   1.0000   1.0000   1.0000   1.0000   1.0000
     1.0000   1.0000   1.0000   1.0000   1.0000   1.0000   1.0000   1.0000
     1.0000   1.0000   1.0000   1.0000   1.0000   1.0000   1.0000   1.0000
     1.0000   1.0000   1.0000   1.0000   1.0000   1.0000   1.0000   1.0000
     1.0000   1.0000   1.0000   1.0000   1.0000   1.0000   1.0000   1.0000
     1.0000   1.0000   1.0000   1.0000   1.0000   1.0000   1.0000   1.0000
     1.0000   1.0000   1.0000   1.0000   1.0002   1.0004   0.9927   0.9427
    -0.0216  -0.0185  -0.0070  -0.0056  -0.0000  -0.0000  -0.0000  -0.0000
    -0.0000  -0.0000  -0.0000  -0.0000  -0.0000  -0.0000

          k = 0.0000 0.1000-0.5000 (  9676 PWs)   bands (ev):

   -56.5010 -56.5010 -56.5010 -56.5010 -56.4772 -56.4772 -56.4772 -56.4772
   -28.5876 -28.5876 -28.5818 -28.5818 -28.5237 -28.5237 -28.5217 -28.5217
   -27.6374 -27.6374 -27.5727 -27.5727 -27.5590 -27.5590 -27.5356 -27.5356
   -27.5075 -27.5075 -27.4770 -27.4770 -27.4603 -27.4603 -27.4398 -27.4398
     4.3884   4.3884   4.3888   4.3888   8.1376   8.1376   8.1444   8.1444
     9.9954   9.9954   9.9999   9.9999  10.9954  10.9954  11.0091  11.0091
    12.1786  12.1786  12.1845  12.1845  12.6276  12.6276  12.6438  12.6438
    13.1992  13.1992  13.2029  13.2029  13.3015  13.3015  13.3031  13.3031
    13.8130  13.8130  13.8165  13.8165  14.5875  14.5875  14.6174  14.6174
    15.3359  15.3359  15.3524  15.3524  15.7765  15.7765  15.8062  15.8062
    16.1900  16.1900  16.2016  16.2016  17.5343  17.5377

     occupation numbers 
     1.0000   1.0000   1.0000   1.0000   1.0000   1.0000   1.0000   1.0000
     1.0000   1.0000   1.0000   1.0000   1.0000   1.0000   1.0000   1.0000
     1.0000   1.0000   1.0000   1.0000   1.0000   1.0000   1.0000   1.0000
     1.0000   1.0000   1.0000   1.0000   1.0000   1.0000   1.0000   1.0000
     1.0000   1.0000   1.0000   1.0000   1.0000   1.0000   1.0000   1.0000
     1.0000   1.0000   1.0000   1.0000   1.0000   1.0000   1.0000   1.0000
     1.0000   1.0000   1.0000   1.0000   1.0000   1.0000   1.0000   1.0000
     1.0000   1.0000   1.0000   1.0000   1.0000   1.0000   1.0000   1.0000
     1.0000   1.0000   1.0000   1.0000   1.0194   1.0194   1.0256   1.0256
    -0.0161  -0.0161  -0.0132  -0.0132  -0.0000  -0.0000  -0.0000  -0.0000
    -0.0000  -0.0000  -0.0000  -0.0000  -0.0000  -0.0000

          k = 0.0000 0.2000 0.2000 (  9629 PWs)   bands (ev):

   -56.5103 -56.5103 -56.4895 -56.4895 -56.4805 -56.4805 -56.4762 -56.4762
   -28.5905 -28.5849 -28.5751 -28.5746 -28.5551 -28.5513 -28.4976 -28.4973
   -27.6339 -27.6300 -27.5881 -27.5851 -27.5532 -27.5518 -27.5438 -27.5386
   -27.5202 -27.5010 -27.4756 -27.4695 -27.4616 -27.4497 -27.4412 -27.4369
     3.2449   3.2450   6.2131   6.2170   7.1063   7.1107   8.4946   8.4998
     9.7694   9.7714  10.3192  10.3231  10.8496  10.8515  11.3879  11.3900
    11.7952  11.7966  12.3655  12.3693  12.5708  12.5788  12.9921  12.9995
    13.1299  13.1411  13.1928  13.1962  13.3268  13.3291  13.4089  13.4213
    13.4899  13.4963  13.8250  13.8390  14.1260  14.1333  15.1683  15.1895
    15.2398  15.2611  15.4448  15.4575  15.6663  15.6897  15.8100  15.8360
    16.2126  16.2276  16.5668  16.5776  17.1085  17.1477

     occupation numbers 
     1.0000   1.0000   1.0000   1.0000   1.0000   1.0000   1.0000   1.0000
     1.0000   1.0000   1.0000   1.0000   1.0000   1.0000   1.0000   1.0000
     1.0000   1.0000   1.0000   1.0000   1.0000   1.0000   1.0000   1.0000
     1.0000   1.0000   1.0000   1.0000   1.0000   1.0000   1.0000   1.0000
     1.0000   1.0000   1.0000   1.0000   1.0000   1.0000   1.0000   1.0000
     1.0000   1.0000   1.0000   1.0000   1.0000   1.0000   1.0000   1.0000
     1.0000   1.0000   1.0000   1.0000   1.0000   1.0000   1.0000   1.0000
     1.0000   1.0000   1.0000   1.0000   1.0000   1.0000   1.0000   1.0000
     1.0000   1.0000   1.0000   1.0000   1.0000   1.0000  -0.0237  -0.0318
    -0.0343  -0.0313  -0.0032  -0.0025  -0.0000  -0.0000  -0.0000  -0.0000
    -0.0000  -0.0000  -0.0000  -0.0000  -0.0000  -0.0000

          k = 0.0000 0.2000 0.3000 (  9653 PWs)   bands (ev):

   -56.5076 -56.5076 -56.4924 -56.4924 -56.4801 -56.4801 -56.4763 -56.4763
   -28.5900 -28.5848 -28.5767 -28.5752 -28.5475 -28.5446 -28.5052 -28.5050
   -27.6347 -27.6303 -27.5829 -27.5780 -27.5595 -27.5508 -27.5422 -27.5373
   -27.5209 -27.4941 -27.4863 -27.4732 -27.4648 -27.4503 -27.4388 -27.4349
     3.5751   3.5753   5.7761   5.7786   7.1290   7.1326   8.4352   8.4390
     9.7418   9.7451  10.1779  10.1824  10.9539  10.9557  11.4460  11.4494
    11.7627  11.7642  12.2215  12.2265  12.5370  12.5450  12.8824  12.8903
    13.1667  13.1790  13.2261  13.2301  13.4077  13.4082  13.5507  13.5613
    13.5862  13.5978  13.9904  14.0029  14.2291  14.2380  14.9839  15.0112
    15.1734  15.1951  15.3180  15.3278  15.6309  15.6554  15.7847  15.8148
    16.1559  16.1662  16.4877  16.4994  17.1991  17.2382

     occupation numbers 
     1.0000   1.0000   1.0000   1.0000   1.0000   1.0000   1.0000   1.0000
     1.0000   1.0000   1.0000   1.0000   1.0000   1.0000   1.0000   1.0000
     1.0000   1.0000   1.0000   1.0000   1.0000   1.0000   1.0000   1.0000
     1.0000   1.0000   1.0000   1.0000   1.0000   1.0000   1.0000   1.0000
     1.0000   1.0000   1.0000   1.0000   1.0000   1.0000   1.0000   1.0000
     1.0000   1.0000   1.0000   1.0000   1.0000   1.0000   1.0000   1.0000
     1.0000   1.0000   1.0000   1.0000   1.0000   1.0000   1.0000   1.0000
     1.0000   1.0000   1.0000   1.0000   1.0000   1.0000   1.0000   1.0000
     1.0000   1.0000   1.0000   1.0000   1.0000   1.0000   0.3831   0.2843
    -0.0262  -0.0331  -0.0197  -0.0177  -0.0000  -0.0000  -0.0000  -0.0000
    -0.0000  -0.0000  -0.0000  -0.0000  -0.0000  -0.0000

          k = 0.0000 0.2000 0.4000 (  9651 PWs)   bands (ev):

   -56.5041 -56.5041 -56.4961 -56.4961 -56.4791 -56.4791 -56.4770 -56.4770
   -28.5880 -28.5838 -28.5796 -28.5773 -28.5373 -28.5354 -28.5150 -28.5144
   -27.6344 -27.6311 -27.5790 -27.5717 -27.5641 -27.5516 -27.5409 -27.5295
   -27.5244 -27.5002 -27.4871 -27.4774 -27.4626 -27.4532 -27.4367 -27.4343
     4.0213   4.0217   5.1711   5.1724   7.3845   7.3870   8.1322   8.1349
     9.8717   9.8752  10.1408  10.1442  11.0537  11.0605  11.3119  11.3241
    11.8756  11.8799  12.0991  12.1051  12.4986  12.5093  12.6808  12.6915
    13.2250  13.2306  13.2769  13.2821  13.4065  13.4088  13.5615  13.5639
    13.7419  13.7461  14.0117  14.0193  14.4427  14.4679  14.7926  14.8241
    15.1672  15.1851  15.2257  15.2306  15.6298  15.6559  15.7346  15.7667
    16.1808  16.1869  16.3890  16.4015  17.2691  17.2939

     occupation numbers 
     1.0000   1.0000   1.0000   1.0000   1.0000   1.0000   1.0000   1.0000
     1.0000   1.0000   1.0000   1.0000   1.0000   1.0000   1.0000   1.0000
     1.0000   1.0000   1.0000   1.0000   1.0000   1.0000   1.0000   1.0000
     1.0000   1.0000   1.0000   1.0000   1.0000   1.0000   1.0000   1.0000
     1.0000   1.0000   1.0000   1.0000   1.0000   1.0000   1.0000   1.0000
     1.0000   1.0000   1.0000   1.0000   1.0000   1.0000   1.0000   1.0000
     1.0000   1.0000   1.0000   1.0000   1.0000   1.0000   1.0000   1.0000
     1.0000   1.0000   1.0000   1.0000   1.0000   1.0000   1.0000   1.0000
     1.0000   1.0000   1.0000   1.0000   1.0022   1.0035   0.9728   0.9176
    -0.0231  -0.0306  -0.0354  -0.0351  -0.0001  -0.0000  -0.0000  -0.0000
    -0.0000  -0.0000  -0.0000  -0.0000  -0.0000  -0.0000

          k = 0.0000 0.2000-0.5000 (  9650 PWs)   bands (ev):

   -56.5002 -56.5002 -56.5002 -56.5002 -56.4780 -56.4780 -56.4780 -56.4780
   -28.5852 -28.5852 -28.5796 -28.5796 -28.5269 -28.5269 -28.5241 -28.5241
   -27.6328 -27.6328 -27.5746 -27.5746 -27.5582 -27.5582 -27.5347 -27.5347
   -27.5136 -27.5136 -27.4821 -27.4821 -27.4577 -27.4577 -27.4351 -27.4351
     4.5641   4.5641   4.5650   4.5650   7.7410   7.7410   7.7476   7.7476
    10.0485  10.0485  10.0521  10.0521  11.1493  11.1493  11.1628  11.1628
    12.0404  12.0404  12.0439  12.0439  12.4898  12.4898  12.5046  12.5046
    13.3099  13.3099  13.3129  13.3129  13.4390  13.4390  13.4418  13.4418
    13.9066  13.9066  13.9111  13.9111  14.6379  14.6379  14.6696  14.6696
    15.1784  15.1784  15.1920  15.1920  15.6722  15.6722  15.7018  15.7018
    16.2738  16.2738  16.2845  16.2845  17.4437  17.4481

     occupation numbers 
     1.0000   1.0000   1.0000   1.0000   1.0000   1.0000   1.0000   1.0000
     1.0000   1.0000   1.0000   1.0000   1.0000   1.0000   1.0000   1.0000
     1.0000   1.0000   1.0000   1.0000   1.0000   1.0000   1.0000   1.0000
     1.0000   1.0000   1.0000   1.0000   1.0000   1.0000   1.0000   1.0000
     1.0000   1.0000   1.0000   1.0000   1.0000   1.0000   1.0000   1.0000
     1.0000   1.0000   1.0000   1.0000   1.0000   1.0000   1.0000   1.0000
     1.0000   1.0000   1.0000   1.0000   1.0000   1.0000   1.0000   1.0000
     1.0000   1.0000   1.0000   1.0000   1.0000   1.0000   1.0000   1.0000
     1.0000   1.0000   1.0000   1.0000   1.0298   1.0298   1.0346   1.0346
    -0.0282  -0.0282  -0.0324  -0.0324  -0.0000  -0.0000  -0.0000  -0.0000
    -0.0000  -0.0000  -0.0000  -0.0000  -0.0000  -0.0000

          k = 0.0000 0.3000 0.3000 (  9641 PWs)   bands (ev):

   -56.5052 -56.5052 -56.4937 -56.4937 -56.4805 -56.4805 -56.4769 -56.4769
   -28.5880 -28.5835 -28.5751 -28.5741 -28.5448 -28.5420 -28.5122 -28.5116
   -27.6307 -27.6287 -27.5816 -27.5763 -27.5594 -27.5518 -27.5401 -27.5390
   -27.5203 -27.4968 -27.4936 -27.4816 -27.4627 -27.4463 -27.4362 -27.4327
     3.8959   3.8962   5.7559   5.7584   6.7777   6.7809   8.1198   8.1242
     9.8827   9.8861  10.2219  10.2262  10.9527  10.9550  11.2879  11.2892
    11.9117  11.9183  12.2055  12.2109  12.3904  12.4011  12.7568  12.7640
    13.1526  13.1614  13.3638  13.3728  13.4948  13.4999  13.6398  13.6461
    13.7468  13.7585  14.0595  14.0725  14.3832  14.4034  14.9282  14.9453
    15.0236  15.0467  15.1474  15.1592  15.5594  15.5841  15.6733  15.7037
    16.1814  16.1901  16.4872  16.4958  17.1817  17.2188

     occupation numbers 
     1.0000   1.0000   1.0000   1.0000   1.0000   1.0000   1.0000   1.0000
     1.0000   1.0000   1.0000   1.0000   1.0000   1.0000   1.0000   1.0000
     1.0000   1.0000   1.0000   1.0000   1.0000   1.0000   1.0000   1.0000
     1.0000   1.0000   1.0000   1.0000   1.0000   1.0000   1.0000   1.0000
     1.0000   1.0000   1.0000   1.0000   1.0000   1.0000   1.0000   1.0000
     1.0000   1.0000   1.0000   1.0000   1.0000   1.0000   1.0000   1.0000
     1.0000   1.0000   1.0000   1.0000   1.0000   1.0000   1.0000   1.0000
     1.0000   1.0000   1.0000   1.0000   1.0000   1.0000   1.0000   1.0000
     1.0000   1.0000   1.0000   1.0000   1.0007   1.0010   0.5977   0.5319
     0.2424   0.1718  -0.0098  -0.0184  -0.0003  -0.0002  -0.0000  -0.0000
    -0.0000  -0.0000  -0.0000  -0.0000  -0.0000  -0.0000

          k = 0.0000 0.3000 0.4000 (  9635 PWs)   bands (ev):

   -56.5023 -56.5023 -56.4961 -56.4961 -56.4801 -56.4801 -56.4779 -56.4779
   -28.5850 -28.5813 -28.5764 -28.5748 -28.5385 -28.5367 -28.5206 -28.5200
   -27.6276 -27.6260 -27.5834 -27.5780 -27.5575 -27.5501 -27.5391 -27.5311
   -27.5249 -27.5058 -27.4967 -27.4887 -27.4560 -27.4460 -27.4342 -27.4319
     4.3265   4.3270   5.3791   5.3810   6.8558   6.8588   7.6666   7.6699
    10.0826  10.0850  10.2804  10.2830  11.0336  11.0369  11.3611  11.3685
    11.8663  11.8700  11.9502  11.9527  12.3437  12.3532  12.5150  12.5250
    13.2541  13.2628  13.4283  13.4295  13.4873  13.4876  13.7141  13.7182
    13.9459  13.9518  14.1241  14.1330  14.5479  14.5759  14.7622  14.7839
    14.9733  14.9928  15.0381  15.0510  15.5264  15.5491  15.5909  15.6214
    16.2736  16.2821  16.4809  16.4889  17.1364  17.1598

     occupation numbers 
     1.0000   1.0000   1.0000   1.0000   1.0000   1.0000   1.0000   1.0000
     1.0000   1.0000   1.0000   1.0000   1.0000   1.0000   1.0000   1.0000
     1.0000   1.0000   1.0000   1.0000   1.0000   1.0000   1.0000   1.0000
     1.0000   1.0000   1.0000   1.0000   1.0000   1.0000   1.0000   1.0000
     1.0000   1.0000   1.0000   1.0000   1.0000   1.0000   1.0000   1.0000
     1.0000   1.0000   1.0000   1.0000   1.0000   1.0000   1.0000   1.0000
     1.0000   1.0000   1.0000   1.0000   1.0000   1.0000   1.0000   1.0000
     1.0000   1.0000   1.0000   1.0000   1.0000   1.0000   1.0000   1.0000
     1.0000   1.0000   1.0000   1.0000   1.0121   1.0171   1.0075   0.9845
     0.4235   0.3498   0.1970   0.1599  -0.0006  -0.0004  -0.0001  -0.0001
    -0.0000  -0.0000  -0.0000  -0.0000  -0.0000  -0.0000

          k = 0.0000 0.3000-0.5000 (  9642 PWs)   bands (ev):

   -56.4991 -56.4991 -56.4991 -56.4991 -56.4791 -56.4791 -56.4791 -56.4791
   -28.5816 -28.5816 -28.5768 -28.5768 -28.5309 -28.5309 -28.5278 -28.5278
   -27.6255 -27.6255 -27.5821 -27.5821 -27.5528 -27.5528 -27.5333 -27.5333
   -27.5185 -27.5185 -27.4938 -27.4938 -27.4497 -27.4497 -27.4326 -27.4326
     4.8408   4.8408   4.8421   4.8421   7.2105   7.2105   7.2160   7.2160
    10.2420  10.2420  10.2444  10.2444  11.2286  11.2286  11.2381  11.2381
    11.8471  11.8471  11.8506  11.8506  12.3616  12.3616  12.3710  12.3710
    13.3637  13.3637  13.3712  13.3712  13.6060  13.6060  13.6141  13.6141
    14.0918  14.0918  14.0978  14.0978  14.6427  14.6427  14.6679  14.6679
    14.9959  14.9959  15.0078  15.0078  15.5366  15.5366  15.5633  15.5633
    16.3971  16.3971  16.4081  16.4081  17.2630  17.2664

     occupation numbers 
     1.0000   1.0000   1.0000   1.0000   1.0000   1.0000   1.0000   1.0000
     1.0000   1.0000   1.0000   1.0000   1.0000   1.0000   1.0000   1.0000
     1.0000   1.0000   1.0000   1.0000   1.0000   1.0000   1.0000   1.0000
     1.0000   1.0000   1.0000   1.0000   1.0000   1.0000   1.0000   1.0000
     1.0000   1.0000   1.0000   1.0000   1.0000   1.0000   1.0000   1.0000
     1.0000   1.0000   1.0000   1.0000   1.0000   1.0000   1.0000   1.0000
     1.0000   1.0000   1.0000   1.0000   1.0000   1.0000   1.0000   1.0000
     1.0000   1.0000   1.0000   1.0000   1.0000   1.0000   1.0000   1.0000
     1.0000   1.0000   1.0000   1.0000   1.0307   1.0307   1.0344   1.0344
     0.3384   0.3384   0.2960   0.2960  -0.0005  -0.0005  -0.0003  -0.0003
    -0.0000  -0.0000  -0.0000  -0.0000  -0.0000  -0.0000

          k = 0.0000 0.4000 0.4000 (  9636 PWs)   bands (ev):

   -56.5001 -56.5001 -56.4966 -56.4966 -56.4805 -56.4805 -56.4791 -56.4791
   -28.5811 -28.5784 -28.5748 -28.5740 -28.5375 -28.5361 -28.5271 -28.5263
   -27.6200 -27.6199 -27.5898 -27.5868 -27.5499 -27.5460 -27.5357 -27.5302
   -27.5270 -27.5094 -27.5076 -27.4990 -27.4480 -27.4409 -27.4341 -27.4315
     4.7276   4.7283   5.4687   5.4700   6.5217   6.5233   7.1467   7.1493
    10.3761  10.3765  10.5507  10.5516  10.9051  10.9055  11.2351  11.2385
    11.6918  11.6927  11.9447  11.9501  12.2653  12.2658  12.3944  12.4007
    13.2711  13.2779  13.3823  13.3830  13.7481  13.7499  13.8779  13.8827
    14.1462  14.1549  14.2001  14.2058  14.5514  14.5599  14.6741  14.6923
    14.8203  14.8366  14.9032  14.9275  15.4552  15.4712  15.4766  15.5000
    16.3837  16.3953  16.5293  16.5345  17.0564  17.0741

     occupation numbers 
     1.0000   1.0000   1.0000   1.0000   1.0000   1.0000   1.0000   1.0000
     1.0000   1.0000   1.0000   1.0000   1.0000   1.0000   1.0000   1.0000
     1.0000   1.0000   1.0000   1.0000   1.0000   1.0000   1.0000   1.0000
     1.0000   1.0000   1.0000   1.0000   1.0000   1.0000   1.0000   1.0000
     1.0000   1.0000   1.0000   1.0000   1.0000   1.0000   1.0000   1.0000
     1.0000   1.0000   1.0000   1.0000   1.0000   1.0000   1.0000   1.0000
     1.0000   1.0000   1.0000   1.0000   1.0000   1.0000   1.0000   1.0000
     1.0000   1.0000   1.0000   1.0000   1.0000   1.0000   1.0000   1.0000
     1.0000   1.0000   1.0000   1.0000   1.0127   1.0141   1.0350   1.0354
     0.9253   0.8898   0.6899   0.6002  -0.0026  -0.0020  -0.0018  -0.0011
    -0.0000  -0.0000  -0.0000  -0.0000  -0.0000  -0.0000

          k = 0.0000 0.4000-0.5000 (  9646 PWs)   bands (ev):

   -56.4981 -56.4981 -56.4981 -56.4981 -56.4801 -56.4801 -56.4801 -56.4801
   -28.5777 -28.5777 -28.5747 -28.5747 -28.5339 -28.5339 -28.5317 -28.5317
   -27.6159 -27.6159 -27.5930 -27.5930 -27.5446 -27.5446 -27.5330 -27.5330
   -27.5202 -27.5202 -27.5061 -27.5061 -27.4420 -27.4420 -27.4329 -27.4329
     5.1720   5.1720   5.1734   5.1734   6.6924   6.6924   6.6960   6.6960
    10.5221  10.5221  10.5231  10.5231  11.2416  11.2416  11.2501  11.2501
    11.5669  11.5669  11.5760  11.5760  12.2998  12.2998  12.3036  12.3036
    13.3638  13.3638  13.3684  13.3684  13.8278  13.8278  13.8369  13.8369
    14.3264  14.3264  14.3299  14.3299  14.4973  14.4973  14.5055  14.5055
    14.8519  14.8519  14.8717  14.8717  15.4410  15.4410  15.4573  15.4573
    16.5208  16.5208  16.5301  16.5301  17.0714  17.0725

     occupation numbers 
     1.0000   1.0000   1.0000   1.0000   1.0000   1.0000   1.0000   1.0000
     1.0000   1.0000   1.0000   1.0000   1.0000   1.0000   1.0000   1.0000
     1.0000   1.0000   1.0000   1.0000   1.0000   1.0000   1.0000   1.0000
     1.0000   1.0000   1.0000   1.0000   1.0000   1.0000   1.0000   1.0000
     1.0000   1.0000   1.0000   1.0000   1.0000   1.0000   1.0000   1.0000
     1.0000   1.0000   1.0000   1.0000   1.0000   1.0000   1.0000   1.0000
     1.0000   1.0000   1.0000   1.0000   1.0000   1.0000   1.0000   1.0000
     1.0000   1.0000   1.0000   1.0000   1.0000   1.0000   1.0000   1.0000
     1.0002   1.0002   1.0002   1.0002   1.0058   1.0058   1.0066   1.0066
     0.8514   0.8514   0.7945   0.7945  -0.0034  -0.0034  -0.0025  -0.0025
    -0.0000  -0.0000  -0.0000  -0.0000  -0.0000  -0.0000

          k = 0.0000-0.5000-0.5000 (  9580 PWs)   bands (ev):

   -56.4977 -56.4977 -56.4977 -56.4977 -56.4805 -56.4805 -56.4805 -56.4805
   -28.5750 -28.5750 -28.5750 -28.5750 -28.5342 -28.5342 -28.5342 -28.5342
   -27.6047 -27.6047 -27.6047 -27.6047 -27.5370 -27.5370 -27.5370 -27.5370
   -27.5159 -27.5159 -27.5159 -27.5159 -27.4362 -27.4362 -27.4362 -27.4362
     5.3714   5.3714   5.3714   5.3714   6.4277   6.4277   6.4277   6.4277
    10.7057  10.7057  10.7057  10.7057  11.2425  11.2425  11.2425  11.2425
    11.3851  11.3851  11.3851  11.3851  12.2844  12.2844  12.2844  12.2844
    13.3618  13.3618  13.3618  13.3618  14.0070  14.0070  14.0070  14.0070
    14.2934  14.2934  14.2934  14.2934  14.5253  14.5253  14.5253  14.5253
    14.7578  14.7578  14.7578  14.7578  15.4168  15.4168  15.4168  15.4168
    16.5874  16.5874  16.5874  16.5874  16.9840  16.9840

     occupation numbers 
     1.0000   1.0000   1.0000   1.0000   1.0000   1.0000   1.0000   1.0000
     1.0000   1.0000   1.0000   1.0000   1.0000   1.0000   1.0000   1.0000
     1.0000   1.0000   1.0000   1.0000   1.0000   1.0000   1.0000   1.0000
     1.0000   1.0000   1.0000   1.0000   1.0000   1.0000   1.0000   1.0000
     1.0000   1.0000   1.0000   1.0000   1.0000   1.0000   1.0000   1.0000
     1.0000   1.0000   1.0000   1.0000   1.0000   1.0000   1.0000   1.0000
     1.0000   1.0000   1.0000   1.0000   1.0000   1.0000   1.0000   1.0000
     1.0000   1.0000   1.0000   1.0000   1.0000   1.0000   1.0000   1.0000
     1.0001   1.0001   1.0001   1.0001   1.0089   1.0089   1.0089   1.0089
     1.0112   1.0112   1.0112   1.0112  -0.0052  -0.0052  -0.0052  -0.0052
    -0.0000  -0.0000  -0.0000  -0.0000  -0.0000  -0.0000

          k = 0.1000 0.1000 0.1000 (  9669 PWs)   bands (ev):

   -56.5132 -56.5132 -56.4856 -56.4856 -56.4807 -56.4807 -56.4769 -56.4769
   -28.5887 -28.5826 -28.5750 -28.5738 -28.5645 -28.5603 -28.4891 -28.4890
   -27.6290 -27.6278 -27.5992 -27.5956 -27.5501 -27.5431 -27.5429 -27.5404
   -27.5241 -27.5139 -27.4649 -27.4592 -27.4541 -27.4521 -27.4438 -27.4414
     2.9060   2.9060   6.7163   6.7228   7.2684   7.2746   8.1856   8.1906
     9.9891   9.9947  10.6192  10.6199  10.8708  10.8709  11.1921  11.1975
    11.9275  11.9286  12.3620  12.3755  12.6865  12.6877  12.8055  12.8139
    13.0089  13.0096  13.1672  13.1677  13.2142  13.2192  13.2409  13.2441
    13.4578  13.4615  13.6798  13.6834  13.9969  14.0021  15.3611  15.3652
    15.4275  15.4289  15.6220  15.6277  15.6885  15.7013  15.8017  15.8109
    16.3816  16.4014  16.6657  16.6718  16.9085  16.9399

     occupation numbers 
     1.0000   1.0000   1.0000   1.0000   1.0000   1.0000   1.0000   1.0000
     1.0000   1.0000   1.0000   1.0000   1.0000   1.0000   1.0000   1.0000
     1.0000   1.0000   1.0000   1.0000   1.0000   1.0000   1.0000   1.0000
     1.0000   1.0000   1.0000   1.0000   1.0000   1.0000   1.0000   1.0000
     1.0000   1.0000   1.0000   1.0000   1.0000   1.0000   1.0000   1.0000
     1.0000   1.0000   1.0000   1.0000   1.0000   1.0000   1.0000   1.0000
     1.0000   1.0000   1.0000   1.0000   1.0000   1.0000   1.0000   1.0000
     1.0000   1.0000   1.0000   1.0000   1.0000   1.0000   1.0000   1.0000
     1.0000   1.0000   1.0000   1.0000   1.0000   1.0000  -0.0118  -0.0112
    -0.0043  -0.0042  -0.0001  -0.0001  -0.0000  -0.0000  -0.0000  -0.0000
    -0.0000  -0.0000  -0.0000  -0.0000  -0.0000  -0.0000

          k = 0.1000 0.1000 0.2000 (  9653 PWs)   bands (ev):

   -56.5114 -56.5114 -56.4882 -56.4882 -56.4805 -56.4805 -56.4763 -56.4763
   -28.5903 -28.5843 -28.5752 -28.5748 -28.5580 -28.5542 -28.4943 -28.4941
   -27.6337 -27.6288 -27.5932 -27.5870 -27.5535 -27.5476 -27.5432 -27.5400
   -27.5209 -27.5053 -27.4728 -27.4632 -27.4575 -27.4538 -27.4415 -27.4388
     3.1104   3.1104   6.3280   6.3320   7.2718   7.2762   8.3625   8.3675
     9.8303   9.8335  10.5503  10.5526  10.6973  10.7004  11.3544  11.3594
    11.8167  11.8213  12.3555  12.3582  12.7043  12.7080  12.9590  12.9602
    13.0701  13.0779  13.1344  13.1377  13.2693  13.2739  13.3459  13.3583
    13.5133  13.5283  13.7247  13.7338  14.0857  14.0929  15.2035  15.2268
    15.3341  15.3487  15.5473  15.5608  15.6485  15.6646  15.8253  15.8427
    16.2724  16.2906  16.5960  16.6078  17.0411  17.0743

     occupation numbers 
     1.0000   1.0000   1.0000   1.0000   1.0000   1.0000   1.0000   1.0000
     1.0000   1.0000   1.0000   1.0000   1.0000   1.0000   1.0000   1.0000
     1.0000   1.0000   1.0000   1.0000   1.0000   1.0000   1.0000   1.0000
     1.0000   1.0000   1.0000   1.0000   1.0000   1.0000   1.0000   1.0000
     1.0000   1.0000   1.0000   1.0000   1.0000   1.0000   1.0000   1.0000
     1.0000   1.0000   1.0000   1.0000   1.0000   1.0000   1.0000   1.0000
     1.0000   1.0000   1.0000   1.0000   1.0000   1.0000   1.0000   1.0000
     1.0000   1.0000   1.0000   1.0000   1.0000   1.0000   1.0000   1.0000
     1.0000   1.0000   1.0000   1.0000   1.0000   1.0000  -0.0345  -0.0353
    -0.0165  -0.0138  -0.0004  -0.0003  -0.0000  -0.0000  -0.0000  -0.0000
    -0.0000  -0.0000  -0.0000  -0.0000  -0.0000  -0.0000

          k = 0.1000 0.1000 0.3000 (  9634 PWs)   bands (ev):

   -56.5086 -56.5086 -56.4920 -56.4920 -56.4797 -56.4797 -56.4762 -56.4762
   -28.5905 -28.5849 -28.5782 -28.5764 -28.5481 -28.5451 -28.5024 -28.5019
   -27.6368 -27.6305 -27.5849 -27.5793 -27.5597 -27.5474 -27.5426 -27.5372
   -27.5216 -27.4964 -27.4816 -27.4667 -27.4616 -27.4563 -27.4400 -27.4372
     3.4440   3.4441   5.7260   5.7277   7.4469   7.4492   8.4625   8.4680
     9.6441   9.6452  10.3740  10.3785  10.8191  10.8227  11.3610  11.3655
    11.7650  11.7660  12.2468  12.2548  12.7656  12.7689  13.0172  13.0255
    13.0594  13.0660  13.1625  13.1679  13.3274  13.3310  13.3869  13.3933
    13.5968  13.5997  13.9091  13.9184  14.1569  14.1618  14.9664  14.9967
    15.2980  15.3122  15.4395  15.4544  15.6400  15.6609  15.8294  15.8513
    16.1784  16.1926  16.4655  16.4804  17.1982  17.2274

     occupation numbers 
     1.0000   1.0000   1.0000   1.0000   1.0000   1.0000   1.0000   1.0000
     1.0000   1.0000   1.0000   1.0000   1.0000   1.0000   1.0000   1.0000
     1.0000   1.0000   1.0000   1.0000   1.0000   1.0000   1.0000   1.0000
     1.0000   1.0000   1.0000   1.0000   1.0000   1.0000   1.0000   1.0000
     1.0000   1.0000   1.0000   1.0000   1.0000   1.0000   1.0000   1.0000
     1.0000   1.0000   1.0000   1.0000   1.0000   1.0000   1.0000   1.0000
     1.0000   1.0000   1.0000   1.0000   1.0000   1.0000   1.0000   1.0000
     1.0000   1.0000   1.0000   1.0000   1.0000   1.0000   1.0000   1.0000
     1.0000   1.0000   1.0000   1.0000   1.0000   1.0000   0.4498   0.3358
    -0.0239  -0.0209  -0.0035  -0.0027  -0.0000  -0.0000  -0.0000  -0.0000
    -0.0000  -0.0000  -0.0000  -0.0000  -0.0000  -0.0000

          k = 0.1000 0.1000 0.4000 (  9660 PWs)   bands (ev):

   -56.5049 -56.5049 -56.4963 -56.4963 -56.4786 -56.4786 -56.4766 -56.4766
   -28.5892 -28.5849 -28.5813 -28.5788 -28.5366 -28.5344 -28.5127 -28.5118
   -27.6375 -27.6332 -27.5772 -27.5712 -27.5662 -27.5504 -27.5414 -27.5303
   -27.5224 -27.4979 -27.4824 -27.4694 -27.4638 -27.4597 -27.4388 -27.4369
     3.8958   3.8960   5.0727   5.0735   7.7152   7.7175   8.3339   8.3387
     9.6761   9.6775  10.1905  10.1943  10.9270  10.9309  11.2409  11.2472
    11.8798  11.8843  12.2198  12.2236  12.7275  12.7307  12.9303  12.9379
    13.0630  13.0699  13.2321  13.2379  13.3081  13.3098  13.3801  13.3862
    13.6678  13.6711  13.9458  13.9517  14.3706  14.3918  14.7823  14.8162
    15.2816  15.2978  15.3488  15.3644  15.6673  15.6900  15.7926  15.8169
    16.1493  16.1587  16.3234  16.3373  17.3632  17.3810

     occupation numbers 
     1.0000   1.0000   1.0000   1.0000   1.0000   1.0000   1.0000   1.0000
     1.0000   1.0000   1.0000   1.0000   1.0000   1.0000   1.0000   1.0000
     1.0000   1.0000   1.0000   1.0000   1.0000   1.0000   1.0000   1.0000
     1.0000   1.0000   1.0000   1.0000   1.0000   1.0000   1.0000   1.0000
     1.0000   1.0000   1.0000   1.0000   1.0000   1.0000   1.0000   1.0000
     1.0000   1.0000   1.0000   1.0000   1.0000   1.0000   1.0000   1.0000
     1.0000   1.0000   1.0000   1.0000   1.0000   1.0000   1.0000   1.0000
     1.0000   1.0000   1.0000   1.0000   1.0000   1.0000   1.0000   1.0000
     1.0000   1.0000   1.0000   1.0000   1.0005   1.0008   0.9865   0.9333
    -0.0273  -0.0239  -0.0138  -0.0113  -0.0000  -0.0000  -0.0000  -0.0000
    -0.0000  -0.0000  -0.0000  -0.0000  -0.0000  -0.0000

          k = 0.1000 0.1000-0.5000 (  9662 PWs)   bands (ev):

   -56.5007 -56.5007 -56.5007 -56.5007 -56.4775 -56.4775 -56.4775 -56.4775
   -28.5868 -28.5868 -28.5810 -28.5810 -28.5250 -28.5250 -28.5225 -28.5225
   -27.6359 -27.6359 -27.5719 -27.5719 -27.5602 -27.5602 -27.5351 -27.5351
   -27.5106 -27.5106 -27.4751 -27.4751 -27.4626 -27.4626 -27.4377 -27.4377
     4.4478   4.4478   4.4483   4.4483   8.0329   8.0329   8.0392   8.0392
     9.9191   9.9191   9.9218   9.9218  11.0690  11.0690  11.0796  11.0796
    12.1015  12.1015  12.1057  12.1057  12.7601  12.7601  12.7734  12.7734
    13.1695  13.1695  13.1763  13.1763  13.3260  13.3260  13.3288  13.3288
    13.8213  13.8213  13.8262  13.8262  14.6061  14.6061  14.6370  14.6370
    15.2950  15.2950  15.3137  15.3137  15.7269  15.7269  15.7546  15.7546
    16.2038  16.2038  16.2147  16.2147  17.6020  17.6049

     occupation numbers 
     1.0000   1.0000   1.0000   1.0000   1.0000   1.0000   1.0000   1.0000
     1.0000   1.0000   1.0000   1.0000   1.0000   1.0000   1.0000   1.0000
     1.0000   1.0000   1.0000   1.0000   1.0000   1.0000   1.0000   1.0000
     1.0000   1.0000   1.0000   1.0000   1.0000   1.0000   1.0000   1.0000
     1.0000   1.0000   1.0000   1.0000   1.0000   1.0000   1.0000   1.0000
     1.0000   1.0000   1.0000   1.0000   1.0000   1.0000   1.0000   1.0000
     1.0000   1.0000   1.0000   1.0000   1.0000   1.0000   1.0000   1.0000
     1.0000   1.0000   1.0000   1.0000   1.0000   1.0000   1.0000   1.0000
     1.0000   1.0000   1.0000   1.0000   1.0233   1.0233   1.0297   1.0297
    -0.0245  -0.0245  -0.0206  -0.0206  -0.0000  -0.0000  -0.0000  -0.0000
    -0.0000  -0.0000  -0.0000  -0.0000  -0.0000  -0.0000

          k = 0.1000 0.2000 0.2000 (  9644 PWs)   bands (ev):

   -56.5098 -56.5098 -56.4897 -56.4897 -56.4808 -56.4808 -56.4762 -56.4762
   -28.5905 -28.5850 -28.5740 -28.5737 -28.5549 -28.5511 -28.4992 -28.4989
   -27.6333 -27.6300 -27.5886 -27.5816 -27.5530 -27.5514 -27.5451 -27.5424
   -27.5173 -27.4999 -27.4798 -27.4665 -27.4629 -27.4529 -27.4388 -27.4365
     3.3118   3.3119   6.2295   6.2345   7.0569   7.0633   8.3959   8.3995
     9.6895   9.6919  10.4530  10.4556  10.6342  10.6368  11.4238  11.4289
    11.8989  11.9023  12.3331  12.3374  12.6657  12.6723  13.0041  13.0064
    13.0645  13.0718  13.1666  13.1713  13.2565  13.2617  13.4823  13.4932
    13.6000  13.6091  13.8299  13.8391  14.1574  14.1647  15.1592  15.1769
    15.2424  15.2610  15.4253  15.4372  15.5791  15.5946  15.7956  15.8143
    16.2057  16.2214  16.5741  16.5863  17.0893  17.1295

     occupation numbers 
     1.0000   1.0000   1.0000   1.0000   1.0000   1.0000   1.0000   1.0000
     1.0000   1.0000   1.0000   1.0000   1.0000   1.0000   1.0000   1.0000
     1.0000   1.0000   1.0000   1.0000   1.0000   1.0000   1.0000   1.0000
     1.0000   1.0000   1.0000   1.0000   1.0000   1.0000   1.0000   1.0000
     1.0000   1.0000   1.0000   1.0000   1.0000   1.0000   1.0000   1.0000
     1.0000   1.0000   1.0000   1.0000   1.0000   1.0000   1.0000   1.0000
     1.0000   1.0000   1.0000   1.0000   1.0000   1.0000   1.0000   1.0000
     1.0000   1.0000   1.0000   1.0000   1.0000   1.0000   1.0000   1.0000
     1.0000   1.0000   1.0000   1.0000   1.0000   1.0000  -0.0184  -0.0277
    -0.0341  -0.0313  -0.0045  -0.0037  -0.0002  -0.0001  -0.0000  -0.0000
    -0.0000  -0.0000  -0.0000  -0.0000  -0.0000  -0.0000

          k = 0.1000 0.2000 0.3000 (  9631 PWs)   bands (ev):

   -56.5071 -56.5071 -56.4924 -56.4924 -56.4805 -56.4805 -56.4765 -56.4765
   -28.5896 -28.5845 -28.5756 -28.5742 -28.5479 -28.5448 -28.5068 -28.5063
   -27.6337 -27.6296 -27.5833 -27.5759 -27.5592 -27.5508 -27.5441 -27.5401
   -27.5180 -27.4983 -27.4838 -27.4704 -27.4670 -27.4530 -27.4370 -27.4345
     3.6402   3.6404   5.8138   5.8167   7.0977   7.1021   8.3492   8.3525
     9.5026   9.5049  10.3404  10.3432  10.7928  10.7975  11.5156  11.5206
    11.8102  11.8162  12.2472  12.2498  12.5914  12.5996  12.9290  12.9364
    13.1509  13.1615  13.2107  13.2154  13.3135  13.3198  13.5200  13.5246
    13.7297  13.7347  13.9822  13.9913  14.2717  14.2813  14.9772  15.0022
    15.1796  15.1981  15.3021  15.3126  15.5600  15.5765  15.7530  15.7769
    16.1617  16.1727  16.4929  16.5061  17.1718  17.2094

     occupation numbers 
     1.0000   1.0000   1.0000   1.0000   1.0000   1.0000   1.0000   1.0000
     1.0000   1.0000   1.0000   1.0000   1.0000   1.0000   1.0000   1.0000
     1.0000   1.0000   1.0000   1.0000   1.0000   1.0000   1.0000   1.0000
     1.0000   1.0000   1.0000   1.0000   1.0000   1.0000   1.0000   1.0000
     1.0000   1.0000   1.0000   1.0000   1.0000   1.0000   1.0000   1.0000
     1.0000   1.0000   1.0000   1.0000   1.0000   1.0000   1.0000   1.0000
     1.0000   1.0000   1.0000   1.0000   1.0000   1.0000   1.0000   1.0000
     1.0000   1.0000   1.0000   1.0000   1.0000   1.0000   1.0000   1.0000
     1.0000   1.0000   1.0000   1.0000   1.0000   1.0001   0.4086   0.3158
    -0.0287  -0.0337  -0.0230  -0.0208  -0.0003  -0.0002  -0.0000  -0.0000
    -0.0000  -0.0000  -0.0000  -0.0000  -0.0000  -0.0000

          k = 0.1000 0.2000 0.4000 (  9656 PWs)   bands (ev):

   -56.5037 -56.5037 -56.4959 -56.4959 -56.4795 -56.4795 -56.4772 -56.4772
   -28.5873 -28.5833 -28.5785 -28.5764 -28.5381 -28.5361 -28.5163 -28.5156
   -27.6331 -27.6299 -27.5784 -27.5707 -27.5649 -27.5534 -27.5408 -27.5318
   -27.5224 -27.5052 -27.4826 -27.4752 -27.4646 -27.4554 -27.4354 -27.4338
     4.0837   4.0841   5.2220   5.2234   7.3545   7.3574   8.0847   8.0875
     9.5718   9.5733  10.1180  10.1203  11.0717  11.0770  11.5566  11.5628
    11.7333  11.7356  12.1000  12.1027  12.5621  12.5714  12.7862  12.7943
    13.1898  13.1977  13.2814  13.2863  13.3634  13.3677  13.5207  13.5269
    13.7985  13.8047  14.0211  14.0297  14.4747  14.5016  14.8017  14.8332
    15.1550  15.1694  15.2097  15.2161  15.5822  15.6015  15.6979  15.7241
    16.1854  16.1919  16.3894  16.4021  17.2758  17.2990

     occupation numbers 
     1.0000   1.0000   1.0000   1.0000   1.0000   1.0000   1.0000   1.0000
     1.0000   1.0000   1.0000   1.0000   1.0000   1.0000   1.0000   1.0000
     1.0000   1.0000   1.0000   1.0000   1.0000   1.0000   1.0000   1.0000
     1.0000   1.0000   1.0000   1.0000   1.0000   1.0000   1.0000   1.0000
     1.0000   1.0000   1.0000   1.0000   1.0000   1.0000   1.0000   1.0000
     1.0000   1.0000   1.0000   1.0000   1.0000   1.0000   1.0000   1.0000
     1.0000   1.0000   1.0000   1.0000   1.0000   1.0000   1.0000   1.0000
     1.0000   1.0000   1.0000   1.0000   1.0000   1.0000   1.0000   1.0000
[...]
    11.8850  11.8850  11.8889  11.8889  12.3763  12.3763  12.3838  12.3838
    13.2708  13.2708  13.2756  13.2756  13.8517  13.8517  13.8646  13.8646
    14.2114  14.2114  14.2185  14.2185  14.6454  14.6454  14.6729  14.6729
    14.8181  14.8181  14.8578  14.8578  15.4144  15.4144  15.4290  15.4290
    16.4547  16.4547  16.4659  16.4659  17.1059  17.1082

     occupation numbers 
     1.0000   1.0000   1.0000   1.0000   1.0000   1.0000   1.0000   1.0000
     1.0000   1.0000   1.0000   1.0000   1.0000   1.0000   1.0000   1.0000
     1.0000   1.0000   1.0000   1.0000   1.0000   1.0000   1.0000   1.0000
     1.0000   1.0000   1.0000   1.0000   1.0000   1.0000   1.0000   1.0000
     1.0000   1.0000   1.0000   1.0000   1.0000   1.0000   1.0000   1.0000
     1.0000   1.0000   1.0000   1.0000   1.0000   1.0000   1.0000   1.0000
     1.0000   1.0000   1.0000   1.0000   1.0000   1.0000   1.0000   1.0000
     1.0000   1.0000   1.0000   1.0000   1.0000   1.0000   1.0000   1.0000
     1.0000   1.0000   1.0000   1.0000   1.0312   1.0312   1.0349   1.0349
     0.9297   0.9297   0.8352   0.8352  -0.0054  -0.0054  -0.0042  -0.0042
    -0.0000  -0.0000  -0.0000  -0.0000  -0.0000  -0.0000

          k =-0.2000 0.4000 0.3000 (  9651 PWs)   bands (ev):

   -56.5007 -56.5007 -56.4950 -56.4950 -56.4816 -56.4816 -56.4791 -56.4791
   -28.5820 -28.5786 -28.5728 -28.5715 -28.5419 -28.5397 -28.5256 -28.5242
   -27.6235 -27.6210 -27.5805 -27.5752 -27.5648 -27.5595 -27.5403 -27.5311
   -27.5243 -27.5126 -27.4842 -27.4772 -27.4612 -27.4535 -27.4346 -27.4320
     4.5649   4.5653   5.5669   5.5690   6.8870   6.8914   7.6190   7.6224
     9.1376   9.1412   9.7833   9.7868  11.0154  11.0179  11.5299  11.5317
    11.7529  11.7560  12.2100  12.2133  12.6686  12.6740  12.8323  12.8389
    13.1086  13.1150  13.1938  13.2062  13.4204  13.4268  13.6486  13.6601
    13.9728  13.9833  14.2848  14.2948  14.6198  14.6455  14.8155  14.8313
    14.9763  14.9931  15.1257  15.1543  15.3623  15.3674  15.5064  15.5197
    16.2479  16.2559  16.4035  16.4124  17.1309  17.1470

     occupation numbers 
     1.0000   1.0000   1.0000   1.0000   1.0000   1.0000   1.0000   1.0000
     1.0000   1.0000   1.0000   1.0000   1.0000   1.0000   1.0000   1.0000
     1.0000   1.0000   1.0000   1.0000   1.0000   1.0000   1.0000   1.0000
     1.0000   1.0000   1.0000   1.0000   1.0000   1.0000   1.0000   1.0000
     1.0000   1.0000   1.0000   1.0000   1.0000   1.0000   1.0000   1.0000
     1.0000   1.0000   1.0000   1.0000   1.0000   1.0000   1.0000   1.0000
     1.0000   1.0000   1.0000   1.0000   1.0000   1.0000   1.0000   1.0000
     1.0000   1.0000   1.0000   1.0000   1.0000   1.0000   1.0000   1.0000
     1.0000   1.0000   1.0001   1.0001   1.0262   1.0312   0.9346   0.9020
     0.4119   0.3488   0.0123  -0.0151  -0.0116  -0.0108  -0.0010  -0.0007
    -0.0000  -0.0000  -0.0000  -0.0000  -0.0000  -0.0000

          k =-0.2000-0.5000 0.3000 (  9660 PWs)   bands (ev):

   -56.4977 -56.4977 -56.4977 -56.4977 -56.4805 -56.4805 -56.4805 -56.4805
   -28.5783 -28.5783 -28.5736 -28.5736 -28.5352 -28.5352 -28.5315 -28.5315
   -27.6208 -27.6208 -27.5786 -27.5786 -27.5630 -27.5630 -27.5337 -27.5337
   -27.5201 -27.5201 -27.4822 -27.4822 -27.4557 -27.4557 -27.4333 -27.4333
     5.0599   5.0599   5.0610   5.0610   7.2216   7.2216   7.2265   7.2265
     9.4399   9.4399   9.4432   9.4432  11.2335  11.2335  11.2364  11.2364
    11.9948  11.9948  12.0020  12.0020  12.7538  12.7538  12.7644  12.7644
    13.1385  13.1385  13.1491  13.1491  13.5470  13.5470  13.5567  13.5567
    14.1606  14.1606  14.1699  14.1699  14.7347  14.7347  14.7605  14.7605
    15.0222  15.0222  15.0473  15.0473  15.4246  15.4246  15.4412  15.4412
    16.3235  16.3235  16.3339  16.3339  17.2492  17.2549

     occupation numbers 
     1.0000   1.0000   1.0000   1.0000   1.0000   1.0000   1.0000   1.0000
     1.0000   1.0000   1.0000   1.0000   1.0000   1.0000   1.0000   1.0000
     1.0000   1.0000   1.0000   1.0000   1.0000   1.0000   1.0000   1.0000
     1.0000   1.0000   1.0000   1.0000   1.0000   1.0000   1.0000   1.0000
     1.0000   1.0000   1.0000   1.0000   1.0000   1.0000   1.0000   1.0000
     1.0000   1.0000   1.0000   1.0000   1.0000   1.0000   1.0000   1.0000
     1.0000   1.0000   1.0000   1.0000   1.0000   1.0000   1.0000   1.0000
     1.0000   1.0000   1.0000   1.0000   1.0000   1.0000   1.0000   1.0000
     1.0000   1.0000   1.0000   1.0000   1.0257   1.0257   1.0090   1.0090
     0.2470   0.2470   0.1702   0.1702  -0.0045  -0.0045  -0.0034  -0.0034
    -0.0000  -0.0000  -0.0000  -0.0000  -0.0000  -0.0000

          k =-0.2000-0.5000 0.4000 (  9638 PWs)   bands (ev):

   -56.4965 -56.4965 -56.4965 -56.4965 -56.4816 -56.4816 -56.4816 -56.4816
   -28.5743 -28.5743 -28.5713 -28.5713 -28.5382 -28.5382 -28.5357 -28.5357
   -27.6122 -27.6122 -27.5890 -27.5890 -27.5589 -27.5589 -27.5372 -27.5372
   -27.5156 -27.5156 -27.4901 -27.4901 -27.4486 -27.4486 -27.4354 -27.4354
     5.3779   5.3779   5.3794   5.3794   6.8019   6.8019   6.8055   6.8055
     9.5481   9.5481   9.5521   9.5521  10.9114  10.9114  10.9139  10.9139
    12.1982  12.1982  12.2061  12.2061  12.5666  12.5666  12.5766  12.5766
    13.1592  13.1592  13.1651  13.1651  13.6490  13.6490  13.6621  13.6621
    14.3404  14.3404  14.3462  14.3462  14.7476  14.7476  14.7714  14.7714
    14.9079  14.9079  14.9459  14.9459  15.3615  15.3615  15.3739  15.3739
    16.3983  16.3983  16.4080  16.4080  17.0264  17.0306

     occupation numbers 
     1.0000   1.0000   1.0000   1.0000   1.0000   1.0000   1.0000   1.0000
     1.0000   1.0000   1.0000   1.0000   1.0000   1.0000   1.0000   1.0000
     1.0000   1.0000   1.0000   1.0000   1.0000   1.0000   1.0000   1.0000
     1.0000   1.0000   1.0000   1.0000   1.0000   1.0000   1.0000   1.0000
     1.0000   1.0000   1.0000   1.0000   1.0000   1.0000   1.0000   1.0000
     1.0000   1.0000   1.0000   1.0000   1.0000   1.0000   1.0000   1.0000
     1.0000   1.0000   1.0000   1.0000   1.0000   1.0000   1.0000   1.0000
     1.0000   1.0000   1.0000   1.0000   1.0000   1.0000   1.0000   1.0000
     1.0003   1.0003   1.0003   1.0003   1.0186   1.0186   0.9988   0.9988
     0.6731   0.6731   0.5296   0.5296  -0.0117  -0.0117  -0.0099  -0.0099
    -0.0000  -0.0000  -0.0000  -0.0000  -0.0000  -0.0000

          k =-0.3000-0.5000 0.4000 (  9654 PWs)   bands (ev):

   -56.4948 -56.4948 -56.4948 -56.4948 -56.4834 -56.4834 -56.4834 -56.4834
   -28.5704 -28.5704 -28.5675 -28.5675 -28.5428 -28.5428 -28.5402 -28.5402
   -27.6072 -27.6072 -27.5859 -27.5859 -27.5685 -27.5685 -27.5432 -27.5432
   -27.5078 -27.5078 -27.4796 -27.4796 -27.4546 -27.4546 -27.4394 -27.4394
     5.6189   5.6189   5.6210   5.6210   6.8416   6.8416   6.8468   6.8468
     9.1180   9.1180   9.1237   9.1237  10.4444  10.4444  10.4476  10.4476
    12.4413  12.4413  12.4495  12.4495  12.7825  12.7825  12.7915  12.7915
    13.0792  13.0792  13.0887  13.0887  13.4292  13.4292  13.4404  13.4404
    14.5083  14.5083  14.5154  14.5154  14.8784  14.8784  14.9007  14.9007
    15.0317  15.0317  15.0644  15.0644  15.2854  15.2854  15.3011  15.3011
    16.3479  16.3479  16.3568  16.3568  16.8709  16.8767

     occupation numbers 
     1.0000   1.0000   1.0000   1.0000   1.0000   1.0000   1.0000   1.0000
     1.0000   1.0000   1.0000   1.0000   1.0000   1.0000   1.0000   1.0000
     1.0000   1.0000   1.0000   1.0000   1.0000   1.0000   1.0000   1.0000
     1.0000   1.0000   1.0000   1.0000   1.0000   1.0000   1.0000   1.0000
     1.0000   1.0000   1.0000   1.0000   1.0000   1.0000   1.0000   1.0000
     1.0000   1.0000   1.0000   1.0000   1.0000   1.0000   1.0000   1.0000
     1.0000   1.0000   1.0000   1.0000   1.0000   1.0000   1.0000   1.0000
     1.0000   1.0000   1.0000   1.0000   1.0000   1.0000   1.0000   1.0000
     1.0069   1.0069   1.0077   1.0077   0.7735   0.7735   0.6986   0.6986
     0.2166   0.2166   0.1248   0.1248  -0.0265  -0.0265  -0.0232  -0.0232
    -0.0000  -0.0000  -0.0000  -0.0000  -0.0000  -0.0000

     the Fermi energy is    14.9535 ev

!    total energy              =   -1180.35052239 Ry

     total all-electron energy =    -10727.811359 Ry
     estimated scf accuracy    <       0.00000012 Ry
     smearing contrib. (-TS)   =      -0.00051970 Ry
     internal energy E=F+TS    =   -1180.35000269 Ry

     The total energy is F=E-TS. E is the sum of the following terms:
     one-electron contribution =    -336.79328680 Ry
     hartree contribution      =     207.03757605 Ry
     xc contribution           =    -114.36155538 Ry
     ewald contribution        =    -496.51183961 Ry
     one-center paw contrib.   =    -439.72089696 Ry
      -> PAW hartree energy AE =     126.71386948 Ry
      -> PAW hartree energy PS =    -125.74653504 Ry
      -> PAW xc energy AE      =     -96.23964301 Ry
      -> PAW xc energy PS      =      20.93229447 Ry
      -> total E_H with PAW    =     208.00491049 Ry
      -> total E_XC with PAW   =    -189.66890391 Ry

     convergence has been achieved in   8 iterations

     Forces acting on atoms (cartesian axes, Ry/au):

     atom    1 type  1   force =    -0.00286476   -0.00286476    0.00286476
     atom    2 type  1   force =    -0.00286476    0.00286476   -0.00286476
     atom    3 type  1   force =     0.00286476   -0.00286476   -0.00286476
     atom    4 type  1   force =     0.00286476    0.00286476    0.00286476
     atom    5 type  2   force =    -0.00424004   -0.00424004    0.00424004
     atom    6 type  2   force =    -0.00424004    0.00424004   -0.00424004
     atom    7 type  2   force =     0.00424004   -0.00424004   -0.00424004
     atom    8 type  2   force =     0.00424004    0.00424004    0.00424004
     The non-local contrib.  to forces
     atom    1 type  1   force =     0.05117963    0.05117963   -0.05117963
     atom    2 type  1   force =     0.05117963   -0.05117963    0.05117963
     atom    3 type  1   force =    -0.05117963    0.05117963    0.05117963
     atom    4 type  1   force =    -0.05117963   -0.05117963   -0.05117963
     atom    5 type  2   force =    -0.00807055   -0.00807055    0.00807055
     atom    6 type  2   force =    -0.00807055    0.00807055   -0.00807055
     atom    7 type  2   force =     0.00807055   -0.00807055   -0.00807055
     atom    8 type  2   force =     0.00807055    0.00807055    0.00807055
     The ionic contribution  to forces
     atom    1 type  1   force =    -0.85044630   -0.85044630    0.85044630
     atom    2 type  1   force =    -0.85044630    0.85044630   -0.85044630
     atom    3 type  1   force =     0.85044630   -0.85044630   -0.85044630
     atom    4 type  1   force =     0.85044630    0.85044630    0.85044630
     atom    5 type  2   force =    -0.24524978   -0.24524978    0.24524978
     atom    6 type  2   force =    -0.24524978    0.24524978   -0.24524978
     atom    7 type  2   force =     0.24524978   -0.24524978   -0.24524978
     atom    8 type  2   force =     0.24524978    0.24524978    0.24524978
     The local contribution  to forces
     atom    1 type  1   force =     0.79732478    0.79732478   -0.79732478
     atom    2 type  1   force =     0.79732478   -0.79732478    0.79732478
     atom    3 type  1   force =    -0.79732478    0.79732478    0.79732478
     atom    4 type  1   force =    -0.79732478   -0.79732478   -0.79732478
     atom    5 type  2   force =     0.24829012    0.24829012   -0.24829012
     atom    6 type  2   force =     0.24829012   -0.24829012    0.24829012
     atom    7 type  2   force =    -0.24829012    0.24829012    0.24829012
     atom    8 type  2   force =    -0.24829012   -0.24829012   -0.24829012
     The core correction contribution to forces
     atom    1 type  1   force =    -0.00103220   -0.00103220    0.00103220
     atom    2 type  1   force =    -0.00103220    0.00103220   -0.00103220
     atom    3 type  1   force =     0.00103220   -0.00103220   -0.00103220
     atom    4 type  1   force =     0.00103220    0.00103220    0.00103220
     atom    5 type  2   force =     0.00079587    0.00079587   -0.00079587
     atom    6 type  2   force =     0.00079587   -0.00079587    0.00079587
     atom    7 type  2   force =    -0.00079587    0.00079587    0.00079587
     atom    8 type  2   force =    -0.00079587   -0.00079587   -0.00079587
     The Hubbard contrib.    to forces
     atom    1 type  1   force =     0.00000000    0.00000000    0.00000000
     atom    2 type  1   force =     0.00000000    0.00000000    0.00000000
     atom    3 type  1   force =     0.00000000    0.00000000    0.00000000
     atom    4 type  1   force =     0.00000000    0.00000000    0.00000000
     atom    5 type  2   force =     0.00000000    0.00000000    0.00000000
     atom    6 type  2   force =     0.00000000    0.00000000    0.00000000
     atom    7 type  2   force =     0.00000000    0.00000000    0.00000000
     atom    8 type  2   force =     0.00000000    0.00000000    0.00000000
     The SCF correction term to forces
     atom    1 type  1   force =     0.00010933    0.00010933   -0.00010933
     atom    2 type  1   force =     0.00010933   -0.00010933    0.00010933
     atom    3 type  1   force =    -0.00010933    0.00010933    0.00010933
     atom    4 type  1   force =    -0.00010933   -0.00010933   -0.00010933
     atom    5 type  2   force =    -0.00000571   -0.00000571    0.00000571
     atom    6 type  2   force =    -0.00000571    0.00000571   -0.00000571
     atom    7 type  2   force =     0.00000571   -0.00000571   -0.00000571
     atom    8 type  2   force =     0.00000571    0.00000571    0.00000571

     Total force =     0.017726     Total SCF correction =     0.000379


     Computing stress (Cartesian axis) and pressure

          total   stress  (Ry/bohr**3)                   (kbar)     P=      -42.32
  -0.00028768   0.00000000   0.00000000          -42.32        0.00        0.00
   0.00000000  -0.00028768   0.00000000            0.00      -42.32        0.00
   0.00000000   0.00000000  -0.00028768            0.00        0.00      -42.32

     kinetic stress (kbar)  35759.60      0.00      0.00
                                0.00  35759.60      0.00
                                0.00      0.00  35759.60

     local   stress (kbar) -10012.35      0.00     -0.00
                                0.00 -10012.35     -0.00
                               -0.00     -0.00 -10012.35

     nonloc. stress (kbar)   2427.35      0.00      0.00
                                0.00   2427.35      0.00
                                0.00      0.00   2427.35

     hartree stress (kbar)  15166.92     -0.00      0.00
                               -0.00  15166.92      0.00
                                0.00      0.00  15166.92

     exc-cor stress (kbar)  -1706.56     -0.00     -0.00
                               -0.00  -1706.56     -0.00
                               -0.00     -0.00  -1706.56

     corecor stress (kbar)  -5304.38      0.00      0.00
                                0.00  -5304.38     -0.00
                                0.00     -0.00  -5304.38

     ewald   stress (kbar) -36372.90      0.00      0.00
                                0.00 -36372.90      0.00
                                0.00      0.00 -36372.90

     hubbard stress (kbar)      0.00      0.00      0.00
                                0.00      0.00      0.00
                                0.00      0.00      0.00

     DFT-D   stress (kbar)      0.00      0.00      0.00
                                0.00      0.00      0.00
                                0.00      0.00      0.00

     XDM     stress (kbar)      0.00      0.00      0.00
                                0.00      0.00      0.00
                                0.00      0.00      0.00

     dft-nl  stress (kbar)      0.00      0.00      0.00
                                0.00      0.00      0.00
                                0.00      0.00      0.00

     TS-vdW  stress (kbar)      0.00      0.00      0.00
                                0.00      0.00      0.00
                                0.00      0.00      0.00



     Writing output data file /zfs_data/vergnior/martin/Scratch/OAL/CrSi/convergence/smearing/10x10x10/0.016/tmp/CrSi.save/
 
     init_run     :     11.79s CPU     12.23s WALL (       1 calls)
     electrons    :    359.67s CPU    367.38s WALL (       1 calls)
     forces       :     11.21s CPU     11.31s WALL (       1 calls)
     stress       :     28.09s CPU     28.36s WALL (       1 calls)

     Called by init_run:
     wfcinit      :     10.58s CPU     10.87s WALL (       1 calls)
     wfcinit:atom :      0.09s CPU      0.10s WALL (      76 calls)
     wfcinit:wfcr :     10.07s CPU     10.34s WALL (      76 calls)
     potinit      :      0.18s CPU      0.27s WALL (       1 calls)
     hinit0       :      0.18s CPU      0.18s WALL (       1 calls)

     Called by electrons:
     c_bands      :    299.60s CPU    305.01s WALL (       9 calls)
     sum_band     :     54.78s CPU     56.46s WALL (       9 calls)
     v_of_rho     :      0.21s CPU      0.22s WALL (       9 calls)
     v_h          :      0.02s CPU      0.02s WALL (       9 calls)
     v_xc         :      0.23s CPU      0.24s WALL (      11 calls)
     newd         :      4.37s CPU      4.97s WALL (       9 calls)
     PAW_pot      :      1.12s CPU      1.14s WALL (       9 calls)
     mix_rho      :      0.13s CPU      0.13s WALL (       9 calls)

     Called by c_bands:
     init_us_2    :      1.93s CPU      1.99s WALL (    1596 calls)
     cegterg      :    273.34s CPU    278.09s WALL (     684 calls)

     Called by sum_band:
     sum_band:wei :      0.10s CPU      0.10s WALL (       9 calls)
     sum_band:loo :     51.49s CPU     52.38s WALL (       9 calls)
     sum_band:buf :      0.49s CPU      0.55s WALL (     684 calls)
     sum_band:ini :      0.89s CPU      0.90s WALL (     684 calls)
     sum_band:cal :      3.60s CPU      3.62s WALL (     684 calls)
     sum_band:bec :      8.78s CPU      8.81s WALL (     684 calls)
     addusdens    :      2.98s CPU      3.76s WALL (       9 calls)
     addusd:skk   :      0.01s CPU      0.01s WALL (      18 calls)
     addusd:dgemm :      1.15s CPU      1.91s WALL (      18 calls)
     addusd:qvan2 :      1.78s CPU      1.78s WALL (      18 calls)

     Called by *egterg:
     cdiaghg      :     26.62s CPU     26.72s WALL (    3698 calls)
     cegterg:over :     14.24s CPU     14.31s WALL (    3090 calls)
     cegterg:upda :      7.33s CPU      7.45s WALL (    3090 calls)
     cegterg:last :     14.47s CPU     14.52s WALL (    1961 calls)
     h_psi        :    186.72s CPU    191.12s WALL (    3850 calls)
     s_psi        :     26.92s CPU     27.03s WALL (    3850 calls)
     g_psi        :      0.45s CPU      0.45s WALL (    3090 calls)

     Called by h_psi:
     h_psi:calbec :     12.95s CPU     13.07s WALL (    3850 calls)
     vloc_psi     :    147.73s CPU    151.72s WALL (    3850 calls)
     add_vuspsi   :     25.12s CPU     25.30s WALL (    3850 calls)

     General routines
     calbec       :     18.29s CPU     18.43s WALL (    4914 calls)
     fft          :      0.22s CPU      0.22s WALL (     216 calls)
     ffts         :      0.02s CPU      0.10s WALL (      72 calls)
     fftw         :    136.07s CPU    139.73s WALL (  930328 calls)
     interpolate  :      0.05s CPU      0.12s WALL (      36 calls)
 
     Parallel routines
     fft_scatt_xy :     13.22s CPU     13.53s WALL (  930616 calls)
     fft_scatt_yz :     48.82s CPU     50.08s WALL (  930616 calls)

     PAW routines
     PAW_pot      :      1.12s CPU      1.14s WALL (       9 calls)
     PAW_symme    :      0.02s CPU      0.02s WALL (      18 calls)
 
     PWSCF        :   6m54.68s CPU   7m 6.06s WALL

 
   This run was terminated on:  12:40:28   1Aug2021            

=------------------------------------------------------------------------------=
   JOB DONE.
=------------------------------------------------------------------------------=
