
     Program PWSCF v.6.7MaX starts on 18May2022 at 17:37:32 

     This program is part of the open-source Quantum ESPRESSO suite
     for quantum simulation of materials; please cite
         "P. Giannozzi et al., J. Phys.:Condens. Matter 21 395502 (2009);
         "P. Giannozzi et al., J. Phys.:Condens. Matter 29 465901 (2017);
          URL http://www.quantum-espresso.org", 
     in publications or presentations arising from this work. More details at
     http://www.quantum-espresso.org/quote

     Parallel version (MPI), running on    48 processors

     MPI processes distributed on     1 nodes
     R & G space division:  proc/nbgrp/npool/nimage =      48
     Waiting for input...
     Reading input from standard input

     Current dimensions of program PWSCF are:
     Max number of different atomic species (ntypx) = 10
     Max number of k-points (npk) =  40000
     Max angular momentum in pseudopotentials (lmaxx) =  3
     file O.pbe-nl-kjpaw_psl.1.0.0.UPF: wavefunction(s)  2S 2P renormalized
     file Cl.pbe-nl-kjpaw_psl.1.0.0.UPF: wavefunction(s)  3S renormalized
     file Nb.pbe-spn-kjpaw_psl.1.0.0.UPF: wavefunction(s)  4S 4P 4D renormalized

     Subspace diagonalization in iterative solution of the eigenvalue problem:
     a serial algorithm will be used

     Message from routine setup:
     using ibrav=0 with symmetry is DISCOURAGED, use correct ibrav instead
 
     Parallelization info
     --------------------
     sticks:   dense  smooth     PW     G-vecs:    dense   smooth      PW
     Min         226      90     28                 8011     2025     357
     Max         227      91     29                 8013     2026     359
     Sum       10861    4353   1363               384583    97215   17183
 


     bravais-lattice index     =            0
     lattice parameter (alat)  =      12.6717  a.u.
     unit-cell volume          =     547.9313 (a.u.)^3
     number of atoms/cell      =            4
     number of atomic types    =            3
     number of electrons       =        33.00
     number of Kohn-Sham states=           21
     kinetic-energy cutoff     =     120.0000  Ry
     charge density cutoff     =    1200.0000  Ry
     scf convergence threshold =      1.0E-10
     mixing beta               =       0.7000
     number of iterations used =            8  plain     mixing
     Exchange-correlation= SLA  PW   PBX  PBC
                           (   1   4   3   4   0   0   0)

     celldm(1)=  12.671676  celldm(2)=   0.000000  celldm(3)=   0.000000
     celldm(4)=   0.000000  celldm(5)=   0.000000  celldm(6)=   0.000000

     crystal axes: (cart. coord. in units of alat)
               a(1) = (  -0.250426   0.291161   0.923316 )  
               a(2) = (   0.250426  -0.291161   0.923316 )  
               a(3) = (   0.250426   0.291161  -0.923316 )  

     reciprocal axes: (cart. coord. in units 2 pi/alat)
               b(1) = (  0.000000  1.717261  0.541527 )  
               b(2) = (  1.996594  0.000000  0.541527 )  
               b(3) = (  1.996594  1.717261  0.000000 )  


     PseudoPot. # 1 for O  read from file:
     /zfs_data/gutierre/Scratch/Cl2NbO/smearing/12x12x12/0.001/pseudo/O.pbe-nl-kjpaw_psl.1.0.0.UPF
     MD5 check sum: df3ddea38124b4e5de5e1084591730e4
     Pseudo is Projector augmented-wave + core cor, Zval =  6.0
     Generated using 'atomic' code by A. Dal Corso  v.6.7MaX
     Shape of augmentation charge: PSQ
     Using radial grid of 1095 points,  4 beta functions with: 
                l(1) =   0
                l(2) =   0
                l(3) =   1
                l(4) =   1
     Q(r) pseudized with 0 coefficients 


     PseudoPot. # 2 for Cl read from file:
     /zfs_data/gutierre/Scratch/Cl2NbO/smearing/12x12x12/0.001/pseudo/Cl.pbe-nl-kjpaw_psl.1.0.0.UPF
     MD5 check sum: 8cf6bde52c08f6236e0f72a8870677af
     Pseudo is Projector augmented-wave + core cor, Zval =  7.0
     Generated using 'atomic' code by A. Dal Corso  v.6.7MaX
     Shape of augmentation charge: PSQ
     Using radial grid of 1157 points,  4 beta functions with: 
                l(1) =   0
                l(2) =   0
                l(3) =   1
                l(4) =   1
     Q(r) pseudized with 0 coefficients 


     PseudoPot. # 3 for Nb read from file:
     /zfs_data/gutierre/Scratch/Cl2NbO/smearing/12x12x12/0.001/pseudo/Nb.pbe-spn-kjpaw_psl.1.0.0.UPF
     MD5 check sum: 1ec1a3aa7bf3cbf7f7e0d720422bce7a
     Pseudo is Projector augmented-wave + core cor, Zval = 13.0
     Generated using 'atomic' code by A. Dal Corso  v.6.7MaX
     Shape of augmentation charge: PSQ
     Using radial grid of 1227 points,  6 beta functions with: 
                l(1) =   0
                l(2) =   0
                l(3) =   1
                l(4) =   1
                l(5) =   2
                l(6) =   2
     Q(r) pseudized with 0 coefficients 


     atomic species   valence    mass     pseudopotential
        O              6.00    15.99940     O ( 1.00)
        Cl             7.00    35.45150     Cl( 1.00)
        Nb            13.00    92.90637     Nb( 1.00)

      8 Sym. Ops., with inversion, found


                                    s                        frac. trans.

      isym =  1     identity                                     

 cryst.   s( 1) = (     1          0          0      )
                  (     0          1          0      )
                  (     0          0          1      )

 cart.    s( 1) = (  1.0000000  0.0000000  0.0000000 )
                  (  0.0000000  1.0000000  0.0000000 )
                  (  0.0000000  0.0000000  1.0000000 )


      isym =  2     180 deg rotation - cart. axis [0,0,1]        

 cryst.   s( 2) = (     0          1          0      )
                  (     1          0          0      )
                  (    -1         -1         -1      )

 cart.    s( 2) = ( -1.0000000  0.0000000  0.0000000 )
                  (  0.0000000 -1.0000000  0.0000000 )
                  (  0.0000000  0.0000000  1.0000000 )


      isym =  3     180 deg rotation - cart. axis [0,1,0]        

 cryst.   s( 3) = (     0          0          1      )
                  (    -1         -1         -1      )
                  (     1          0          0      )

 cart.    s( 3) = ( -1.0000000  0.0000000  0.0000000 )
                  (  0.0000000  1.0000000  0.0000000 )
                  (  0.0000000  0.0000000 -1.0000000 )


      isym =  4     180 deg rotation - cart. axis [1,0,0]        

 cryst.   s( 4) = (    -1         -1         -1      )
                  (     0          0          1      )
                  (     0          1          0      )

 cart.    s( 4) = (  1.0000000  0.0000000  0.0000000 )
                  (  0.0000000 -1.0000000  0.0000000 )
                  (  0.0000000  0.0000000 -1.0000000 )


      isym =  5     inversion                                    

 cryst.   s( 5) = (    -1          0          0      )
                  (     0         -1          0      )
                  (     0          0         -1      )

 cart.    s( 5) = ( -1.0000000  0.0000000  0.0000000 )
                  (  0.0000000 -1.0000000  0.0000000 )
                  (  0.0000000  0.0000000 -1.0000000 )


      isym =  6     inv. 180 deg rotation - cart. axis [0,0,1]   

 cryst.   s( 6) = (     0         -1          0      )
                  (    -1          0          0      )
                  (     1          1          1      )

 cart.    s( 6) = (  1.0000000  0.0000000  0.0000000 )
                  (  0.0000000  1.0000000  0.0000000 )
                  (  0.0000000  0.0000000 -1.0000000 )


      isym =  7     inv. 180 deg rotation - cart. axis [0,1,0]   

 cryst.   s( 7) = (     0          0         -1      )
                  (     1          1          1      )
                  (    -1          0          0      )

 cart.    s( 7) = (  1.0000000  0.0000000  0.0000000 )
                  (  0.0000000 -1.0000000  0.0000000 )
                  (  0.0000000  0.0000000  1.0000000 )


      isym =  8     inv. 180 deg rotation - cart. axis [1,0,0]   

 cryst.   s( 8) = (     1          1          1      )
                  (     0          0         -1      )
                  (     0         -1          0      )

 cart.    s( 8) = ( -1.0000000  0.0000000  0.0000000 )
                  (  0.0000000  1.0000000  0.0000000 )
                  (  0.0000000  0.0000000  1.0000000 )


   Cartesian axes

     site n.     atom                  positions (alat units)
         1           O   tau(   1) = (   0.0000000   0.2911613   0.0000000  )
         2           Cl  tau(   2) = (  -0.0000000   0.2911613   0.6365338  )
         3           Cl  tau(   3) = (   0.2504264  -0.0000000   0.2867819  )
         4           Nb  tau(   4) = (   0.0000000   0.0000000   0.0000000  )

   Crystallographic axes

     site n.     atom                  positions (cryst. coord.)
         1           O   tau(   1) = (  0.5000000  0.0000000  0.5000000  )
         2           Cl  tau(   2) = (  0.8447000  0.3447000  0.5000000  )
         3           Cl  tau(   3) = (  0.1553000  0.6553000  0.5000000  )
         4           Nb  tau(   4) = (  0.0000000  0.0000000  0.0000000  )

     number of k points=   280  Methfessel-Paxton smearing, width (Ry)=  0.0010
                       cart. coord. in units 2pi/alat
        k(    1) = (   0.0000000   0.0000000   0.0000000), wk =   0.0011574
        k(    2) = (   0.1663829   0.1431051   0.0000000), wk =   0.0046296
        k(    3) = (   0.3327657   0.2862102   0.0000000), wk =   0.0046296
        k(    4) = (   0.4991486   0.4293153   0.0000000), wk =   0.0046296
        k(    5) = (   0.6655314   0.5724204   0.0000000), wk =   0.0046296
        k(    6) = (   0.8319143   0.7155256   0.0000000), wk =   0.0046296
        k(    7) = (  -0.9982971  -0.8586307   0.0000000), wk =   0.0023148
        k(    8) = (   0.1663829   0.0000000   0.0451272), wk =   0.0046296
        k(    9) = (   0.3327657   0.1431051   0.0451272), wk =   0.0092593
        k(   10) = (   0.4991486   0.2862102   0.0451272), wk =   0.0092593
        k(   11) = (   0.6655314   0.4293153   0.0451272), wk =   0.0092593
        k(   12) = (   0.8319143   0.5724204   0.0451272), wk =   0.0092593
        k(   13) = (   0.9982971   0.7155256   0.0451272), wk =   0.0092593
        k(   14) = (  -0.8319143  -0.8586307   0.0451272), wk =   0.0092593
        k(   15) = (  -0.6655314  -0.7155256   0.0451272), wk =   0.0092593
        k(   16) = (  -0.4991486  -0.5724204   0.0451272), wk =   0.0092593
        k(   17) = (  -0.3327657  -0.4293153   0.0451272), wk =   0.0092593
        k(   18) = (  -0.1663829  -0.2862102   0.0451272), wk =   0.0092593
        k(   19) = (  -0.0000000  -0.1431051   0.0451272), wk =   0.0046296
        k(   20) = (   0.3327657   0.0000000   0.0902544), wk =   0.0046296
        k(   21) = (   0.4991486   0.1431051   0.0902544), wk =   0.0092593
        k(   22) = (   0.6655314   0.2862102   0.0902544), wk =   0.0092593
        k(   23) = (   0.8319143   0.4293153   0.0902544), wk =   0.0092593
        k(   24) = (   0.9982971   0.5724204   0.0902544), wk =   0.0092593
        k(   25) = (   1.1646800   0.7155256   0.0902544), wk =   0.0092593
        k(   26) = (  -0.6655314  -0.8586307   0.0902544), wk =   0.0092593
        k(   27) = (  -0.4991486  -0.7155256   0.0902544), wk =   0.0092593
        k(   28) = (  -0.3327657  -0.5724204   0.0902544), wk =   0.0092593
        k(   29) = (  -0.1663829  -0.4293153   0.0902544), wk =   0.0092593
        k(   30) = (   0.0000000  -0.2862102   0.0902544), wk =   0.0046296
        k(   31) = (   0.1663829  -0.1431051   0.0902544), wk =   0.0092593
        k(   32) = (   0.4991486   0.0000000   0.1353817), wk =   0.0046296
        k(   33) = (   0.6655314   0.1431051   0.1353817), wk =   0.0092593
        k(   34) = (   0.8319143   0.2862102   0.1353817), wk =   0.0092593
        k(   35) = (   0.9982971   0.4293153   0.1353817), wk =   0.0092593
        k(   36) = (   1.1646800   0.5724204   0.1353817), wk =   0.0092593
        k(   37) = (   1.3310629   0.7155256   0.1353817), wk =   0.0092593
        k(   38) = (  -0.4991486  -0.8586307   0.1353817), wk =   0.0092593
        k(   39) = (  -0.3327657  -0.7155256   0.1353817), wk =   0.0092593
        k(   40) = (  -0.1663829  -0.5724204   0.1353817), wk =   0.0092593
        k(   41) = (   0.0000000  -0.4293153   0.1353817), wk =   0.0046296
        k(   42) = (   0.1663829  -0.2862102   0.1353817), wk =   0.0092593
        k(   43) = (   0.3327657  -0.1431051   0.1353817), wk =   0.0092593
        k(   44) = (   0.6655314   0.0000000   0.1805089), wk =   0.0046296
        k(   45) = (   0.8319143   0.1431051   0.1805089), wk =   0.0092593
        k(   46) = (   0.9982971   0.2862102   0.1805089), wk =   0.0092593
        k(   47) = (   1.1646800   0.4293153   0.1805089), wk =   0.0092593
        k(   48) = (   1.3310629   0.5724204   0.1805089), wk =   0.0092593
        k(   49) = (   1.4974457   0.7155256   0.1805089), wk =   0.0092593
        k(   50) = (  -0.3327657  -0.8586307   0.1805089), wk =   0.0092593
        k(   51) = (  -0.1663829  -0.7155256   0.1805089), wk =   0.0092593
        k(   52) = (  -0.0000000  -0.5724204   0.1805089), wk =   0.0046296
        k(   53) = (   0.1663829  -0.4293153   0.1805089), wk =   0.0092593
        k(   54) = (   0.3327657  -0.2862102   0.1805089), wk =   0.0092593
        k(   55) = (   0.4991486  -0.1431051   0.1805089), wk =   0.0092593
        k(   56) = (   0.8319143   0.0000000   0.2256361), wk =   0.0046296
        k(   57) = (   0.9982971   0.1431051   0.2256361), wk =   0.0092593
        k(   58) = (   1.1646800   0.2862102   0.2256361), wk =   0.0092593
        k(   59) = (   1.3310629   0.4293153   0.2256361), wk =   0.0092593
        k(   60) = (   1.4974457   0.5724204   0.2256361), wk =   0.0092593
        k(   61) = (   1.6638286   0.7155256   0.2256361), wk =   0.0092593
        k(   62) = (  -0.1663829  -0.8586307   0.2256361), wk =   0.0092593
        k(   63) = (   0.0000000  -0.7155256   0.2256361), wk =   0.0046296
        k(   64) = (   0.1663829  -0.5724204   0.2256361), wk =   0.0092593
        k(   65) = (   0.3327657  -0.4293153   0.2256361), wk =   0.0092593
        k(   66) = (   0.4991486  -0.2862102   0.2256361), wk =   0.0092593
        k(   67) = (   0.6655314  -0.1431051   0.2256361), wk =   0.0092593
        k(   68) = (  -0.9982971   0.0000000  -0.2707633), wk =   0.0023148
        k(   69) = (  -0.8319143   0.1431051  -0.2707633), wk =   0.0092593
        k(   70) = (  -0.6655314   0.2862102  -0.2707633), wk =   0.0092593
        k(   71) = (  -0.4991486   0.4293153  -0.2707633), wk =   0.0092593
        k(   72) = (  -0.3327657   0.5724204  -0.2707633), wk =   0.0092593
        k(   73) = (  -0.1663829   0.7155256  -0.2707633), wk =   0.0092593
        k(   74) = (  -1.9965943  -0.8586307  -0.2707633), wk =   0.0023148
        k(   75) = (   0.3327657   0.2862102   0.0902544), wk =   0.0092593
        k(   76) = (   0.4991486   0.4293153   0.0902544), wk =   0.0092593
        k(   77) = (   0.6655314   0.5724204   0.0902544), wk =   0.0092593
        k(   78) = (   0.8319143   0.7155256   0.0902544), wk =   0.0092593
        k(   79) = (   0.9982971   0.8586307   0.0902544), wk =   0.0046296
        k(   80) = (  -0.0000000  -0.0000000   0.0902544), wk =   0.0023148
        k(   81) = (   0.4991486   0.2862102   0.1353817), wk =   0.0092593
        k(   82) = (   0.6655314   0.4293153   0.1353817), wk =   0.0092593
        k(   83) = (   0.8319143   0.5724204   0.1353817), wk =   0.0092593
        k(   84) = (   0.9982971   0.7155256   0.1353817), wk =   0.0092593
        k(   85) = (   1.1646800   0.8586307   0.1353817), wk =   0.0092593
        k(   86) = (  -0.6655314  -0.7155256   0.1353817), wk =   0.0092593
        k(   87) = (  -0.4991486  -0.5724204   0.1353817), wk =   0.0092593
        k(   88) = (  -0.3327657  -0.4293153   0.1353817), wk =   0.0092593
        k(   89) = (   0.0000000  -0.1431051   0.1353817), wk =   0.0046296
        k(   90) = (   0.1663829  -0.0000000   0.1353817), wk =   0.0046296
        k(   91) = (   0.6655314   0.2862102   0.1805089), wk =   0.0092593
        k(   92) = (   0.8319143   0.4293153   0.1805089), wk =   0.0092593
        k(   93) = (   0.9982971   0.5724204   0.1805089), wk =   0.0092593
        k(   94) = (   1.1646800   0.7155256   0.1805089), wk =   0.0092593
        k(   95) = (   1.3310629   0.8586307   0.1805089), wk =   0.0092593
        k(   96) = (  -0.4991486  -0.7155256   0.1805089), wk =   0.0092593
        k(   97) = (  -0.3327657  -0.5724204   0.1805089), wk =   0.0092593
        k(   98) = (   0.0000000  -0.2862102   0.1805089), wk =   0.0046296
        k(   99) = (   0.1663829  -0.1431051   0.1805089), wk =   0.0092593
        k(  100) = (   0.3327657  -0.0000000   0.1805089), wk =   0.0046296
        k(  101) = (   0.8319143   0.2862102   0.2256361), wk =   0.0092593
        k(  102) = (   0.9982971   0.4293153   0.2256361), wk =   0.0092593
        k(  103) = (   1.1646800   0.5724204   0.2256361), wk =   0.0092593
        k(  104) = (   1.3310629   0.7155256   0.2256361), wk =   0.0092593
        k(  105) = (   1.4974457   0.8586307   0.2256361), wk =   0.0092593
        k(  106) = (  -0.3327657  -0.7155256   0.2256361), wk =   0.0092593
        k(  107) = (  -0.0000000  -0.4293153   0.2256361), wk =   0.0046296
        k(  108) = (   0.1663829  -0.2862102   0.2256361), wk =   0.0092593
        k(  109) = (   0.3327657  -0.1431051   0.2256361), wk =   0.0092593
        k(  110) = (   0.4991486  -0.0000000   0.2256361), wk =   0.0046296
        k(  111) = (   0.9982971   0.2862102   0.2707633), wk =   0.0046296
        k(  112) = (   1.1646800   0.4293153   0.2707633), wk =   0.0092593
        k(  113) = (   1.3310629   0.5724204   0.2707633), wk =   0.0092593
        k(  114) = (   1.4974457   0.7155256   0.2707633), wk =   0.0092593
        k(  115) = (   1.6638286   0.8586307   0.2707633), wk =   0.0046296
        k(  116) = (   0.0000000  -0.5724204   0.2707633), wk =   0.0046296
        k(  117) = (   0.1663829  -0.4293153   0.2707633), wk =   0.0092593
        k(  118) = (   0.3327657  -0.2862102   0.2707633), wk =   0.0092593
        k(  119) = (   0.4991486  -0.1431051   0.2707633), wk =   0.0092593
        k(  120) = (   0.6655314  -0.0000000   0.2707633), wk =   0.0046296
        k(  121) = (  -0.6655314   0.4293153  -0.2256361), wk =   0.0092593
        k(  122) = (  -0.4991486   0.5724204  -0.2256361), wk =   0.0092593
        k(  123) = (  -1.9965943  -0.7155256  -0.2256361), wk =   0.0046296
        k(  124) = (  -1.8302114  -0.5724204  -0.2256361), wk =   0.0092593
        k(  125) = (  -1.6638286  -0.4293153  -0.2256361), wk =   0.0092593
        k(  126) = (  -1.4974457  -0.2862102  -0.2256361), wk =   0.0092593
        k(  127) = (  -1.3310629  -0.1431051  -0.2256361), wk =   0.0092593
        k(  128) = (  -1.1646800  -0.0000000  -0.2256361), wk =   0.0046296
        k(  129) = (  -0.4991486   0.4293153  -0.1805089), wk =   0.0092593
        k(  130) = (   0.0000000   0.8586307  -0.1805089), wk =   0.0046296
        k(  131) = (  -1.8302114  -0.7155256  -0.1805089), wk =   0.0092593
        k(  132) = (  -1.6638286  -0.5724204  -0.1805089), wk =   0.0092593
        k(  133) = (  -1.4974457  -0.4293153  -0.1805089), wk =   0.0092593
        k(  134) = (  -1.3310629  -0.2862102  -0.1805089), wk =   0.0092593
        k(  135) = (  -1.1646800  -0.1431051  -0.1805089), wk =   0.0092593
        k(  136) = (  -0.9982971  -0.0000000  -0.1805089), wk =   0.0046296
        k(  137) = (  -0.0000000   0.7155256  -0.1353817), wk =   0.0046296
        k(  138) = (   0.1663829   0.8586307  -0.1353817), wk =   0.0092593
        k(  139) = (  -1.6638286  -0.7155256  -0.1353817), wk =   0.0092593
        k(  140) = (  -1.4974457  -0.5724204  -0.1353817), wk =   0.0092593
        k(  141) = (  -1.3310629  -0.4293153  -0.1353817), wk =   0.0092593
        k(  142) = (  -1.1646800  -0.2862102  -0.1353817), wk =   0.0092593
        k(  143) = (  -0.9982971  -0.1431051  -0.1353817), wk =   0.0092593
        k(  144) = (  -0.8319143  -0.0000000  -0.1353817), wk =   0.0046296
        k(  145) = (   0.0000000   0.5724204  -0.0902544), wk =   0.0046296
        k(  146) = (   0.1663829   0.7155256  -0.0902544), wk =   0.0092593
        k(  147) = (   0.3327657   0.8586307  -0.0902544), wk =   0.0092593
        k(  148) = (  -1.4974457  -0.7155256  -0.0902544), wk =   0.0092593
        k(  149) = (  -1.3310629  -0.5724204  -0.0902544), wk =   0.0092593
        k(  150) = (  -1.1646800  -0.4293153  -0.0902544), wk =   0.0092593
        k(  151) = (  -0.9982971  -0.2862102  -0.0902544), wk =   0.0092593
        k(  152) = (  -0.8319143  -0.1431051  -0.0902544), wk =   0.0092593
        k(  153) = (  -0.6655314  -0.0000000  -0.0902544), wk =   0.0046296
        k(  154) = (   0.0000000   0.4293153  -0.0451272), wk =   0.0046296
        k(  155) = (   0.1663829   0.5724204  -0.0451272), wk =   0.0092593
        k(  156) = (   0.3327657   0.7155256  -0.0451272), wk =   0.0092593
        k(  157) = (   0.4991486   0.8586307  -0.0451272), wk =   0.0092593
        k(  158) = (  -1.3310629  -0.7155256  -0.0451272), wk =   0.0092593
        k(  159) = (  -1.1646800  -0.5724204  -0.0451272), wk =   0.0092593
        k(  160) = (  -0.9982971  -0.4293153  -0.0451272), wk =   0.0092593
        k(  161) = (  -0.8319143  -0.2862102  -0.0451272), wk =   0.0092593
        k(  162) = (  -0.6655314  -0.1431051  -0.0451272), wk =   0.0092593
        k(  163) = (  -0.4991486  -0.0000000  -0.0451272), wk =   0.0046296
        k(  164) = (  -0.0000000   0.2862102  -0.0000000), wk =   0.0023148
        k(  165) = (   0.1663829   0.4293153  -0.0000000), wk =   0.0046296
        k(  166) = (   0.3327657   0.5724204  -0.0000000), wk =   0.0046296
        k(  167) = (   0.4991486   0.7155256  -0.0000000), wk =   0.0046296
        k(  168) = (   0.6655314   0.8586307  -0.0000000), wk =   0.0046296
        k(  169) = (  -1.1646800  -0.7155256  -0.0000000), wk =   0.0046296
        k(  170) = (  -0.9982971  -0.5724204  -0.0000000), wk =   0.0046296
        k(  171) = (  -0.8319143  -0.4293153  -0.0000000), wk =   0.0046296
        k(  172) = (  -0.6655314  -0.2862102  -0.0000000), wk =   0.0046296
        k(  173) = (  -0.4991486  -0.1431051  -0.0000000), wk =   0.0046296
        k(  174) = (  -0.3327657  -0.0000000  -0.0000000), wk =   0.0023148
        k(  175) = (   0.6655314   0.5724204   0.1805089), wk =   0.0092593
        k(  176) = (   0.8319143   0.7155256   0.1805089), wk =   0.0092593
        k(  177) = (   0.9982971   0.8586307   0.1805089), wk =   0.0046296
        k(  178) = (   0.0000000   0.0000000   0.1805089), wk =   0.0023148
        k(  179) = (   0.8319143   0.5724204   0.2256361), wk =   0.0092593
        k(  180) = (   0.9982971   0.7155256   0.2256361), wk =   0.0092593
        k(  181) = (   1.1646800   0.8586307   0.2256361), wk =   0.0092593
        k(  182) = (   1.3310629   1.0017358   0.2256361), wk =   0.0092593
        k(  183) = (   0.0000000  -0.1431051   0.2256361), wk =   0.0046296
        k(  184) = (   0.1663829   0.0000000   0.2256361), wk =   0.0046296
        k(  185) = (   0.9982971   0.5724204   0.2707633), wk =   0.0046296
        k(  186) = (   1.1646800   0.7155256   0.2707633), wk =   0.0092593
        k(  187) = (   1.3310629   0.8586307   0.2707633), wk =   0.0046296
        k(  188) = (  -0.0000000  -0.2862102   0.2707633), wk =   0.0046296
        k(  189) = (   0.1663829  -0.1431051   0.2707633), wk =   0.0092593
        k(  190) = (   0.3327657   0.0000000   0.2707633), wk =   0.0046296
        k(  191) = (   0.0000000  -0.4293153   0.3158905), wk =   0.0046296
        k(  192) = (   0.1663829  -0.2862102   0.3158905), wk =   0.0092593
        k(  193) = (   0.3327657  -0.1431051   0.3158905), wk =   0.0092593
        k(  194) = (   0.4991486   0.0000000   0.3158905), wk =   0.0046296
        k(  195) = (  -1.9965943  -0.5724204  -0.1805089), wk =   0.0046296
        k(  196) = (  -1.8302114  -0.4293153  -0.1805089), wk =   0.0092593
        k(  197) = (  -1.6638286  -0.2862102  -0.1805089), wk =   0.0092593
        k(  198) = (  -1.4974457  -0.1431051  -0.1805089), wk =   0.0092593
        k(  199) = (  -1.3310629   0.0000000  -0.1805089), wk =   0.0046296
        k(  200) = (   0.0000000   1.0017358  -0.1353817), wk =   0.0046296
        k(  201) = (  -1.8302114  -0.5724204  -0.1353817), wk =   0.0092593
        k(  202) = (  -1.6638286  -0.4293153  -0.1353817), wk =   0.0092593
        k(  203) = (  -1.4974457  -0.2862102  -0.1353817), wk =   0.0092593
        k(  204) = (  -1.3310629  -0.1431051  -0.1353817), wk =   0.0092593
        k(  205) = (  -1.1646800   0.0000000  -0.1353817), wk =   0.0046296
        k(  206) = (  -0.0000000   0.8586307  -0.0902544), wk =   0.0046296
        k(  207) = (   0.1663829   1.0017358  -0.0902544), wk =   0.0092593
        k(  208) = (  -1.6638286  -0.5724204  -0.0902544), wk =   0.0092593
        k(  209) = (  -1.4974457  -0.4293153  -0.0902544), wk =   0.0092593
        k(  210) = (  -1.3310629  -0.2862102  -0.0902544), wk =   0.0092593
        k(  211) = (  -1.1646800  -0.1431051  -0.0902544), wk =   0.0092593
        k(  212) = (  -0.9982971   0.0000000  -0.0902544), wk =   0.0046296
        k(  213) = (   0.0000000   0.7155256  -0.0451272), wk =   0.0046296
        k(  214) = (   0.1663829   0.8586307  -0.0451272), wk =   0.0092593
        k(  215) = (   0.3327657   1.0017358  -0.0451272), wk =   0.0092593
        k(  216) = (  -1.4974457  -0.5724204  -0.0451272), wk =   0.0092593
        k(  217) = (  -1.3310629  -0.4293153  -0.0451272), wk =   0.0092593
        k(  218) = (  -1.1646800  -0.2862102  -0.0451272), wk =   0.0092593
        k(  219) = (  -0.9982971  -0.1431051  -0.0451272), wk =   0.0092593
        k(  220) = (  -0.8319143   0.0000000  -0.0451272), wk =   0.0046296
        k(  221) = (   0.0000000   0.5724204   0.0000000), wk =   0.0023148
        k(  222) = (   0.1663829   0.7155256   0.0000000), wk =   0.0046296
        k(  223) = (   0.3327657   0.8586307   0.0000000), wk =   0.0046296
        k(  224) = (   0.4991486   1.0017358   0.0000000), wk =   0.0046296
        k(  225) = (  -1.3310629  -0.5724204   0.0000000), wk =   0.0046296
        k(  226) = (  -1.1646800  -0.4293153   0.0000000), wk =   0.0046296
        k(  227) = (  -0.9982971  -0.2862102   0.0000000), wk =   0.0046296
        k(  228) = (  -0.8319143  -0.1431051   0.0000000), wk =   0.0046296
        k(  229) = (  -0.6655314   0.0000000   0.0000000), wk =   0.0023148
        k(  230) = (   0.9982971   0.8586307   0.2707633), wk =   0.0023148
        k(  231) = (   0.0000000   0.0000000   0.2707633), wk =   0.0023148
        k(  232) = (  -0.0000000  -0.1431051   0.3158905), wk =   0.0046296
        k(  233) = (   0.1663829   0.0000000   0.3158905), wk =   0.0046296
        k(  234) = (   0.0000000  -0.2862102   0.3610178), wk =   0.0046296
        k(  235) = (   0.1663829  -0.1431051   0.3610178), wk =   0.0092593
        k(  236) = (   0.3327657   0.0000000   0.3610178), wk =   0.0046296
        k(  237) = (  -1.9965943  -0.4293153  -0.1353817), wk =   0.0046296
        k(  238) = (  -1.8302114  -0.2862102  -0.1353817), wk =   0.0092593
        k(  239) = (  -1.6638286  -0.1431051  -0.1353817), wk =   0.0092593
        k(  240) = (  -1.4974457   0.0000000  -0.1353817), wk =   0.0046296
        k(  241) = (   0.0000000   1.1448409  -0.0902544), wk =   0.0046296
        k(  242) = (  -1.8302114  -0.4293153  -0.0902544), wk =   0.0092593
        k(  243) = (  -1.6638286  -0.2862102  -0.0902544), wk =   0.0092593
        k(  244) = (  -1.4974457  -0.1431051  -0.0902544), wk =   0.0092593
        k(  245) = (  -1.3310629   0.0000000  -0.0902544), wk =   0.0046296
        k(  246) = (  -0.0000000   1.0017358  -0.0451272), wk =   0.0046296
        k(  247) = (   0.1663829   1.1448409  -0.0451272), wk =   0.0092593
        k(  248) = (  -1.6638286  -0.4293153  -0.0451272), wk =   0.0092593
        k(  249) = (  -1.4974457  -0.2862102  -0.0451272), wk =   0.0092593
        k(  250) = (  -1.3310629  -0.1431051  -0.0451272), wk =   0.0092593
        k(  251) = (  -1.1646800   0.0000000  -0.0451272), wk =   0.0046296
        k(  252) = (   0.0000000   0.8586307   0.0000000), wk =   0.0023148
        k(  253) = (   0.1663829   1.0017358   0.0000000), wk =   0.0046296
        k(  254) = (   0.3327657   1.1448409   0.0000000), wk =   0.0046296
        k(  255) = (  -1.4974457  -0.4293153   0.0000000), wk =   0.0046296
        k(  256) = (  -1.3310629  -0.2862102   0.0000000), wk =   0.0046296
        k(  257) = (  -1.1646800  -0.1431051   0.0000000), wk =   0.0046296
        k(  258) = (  -0.9982971   0.0000000   0.0000000), wk =   0.0023148
        k(  259) = (  -0.0000000  -0.0000000   0.3610178), wk =   0.0023148
        k(  260) = (   0.0000000  -0.1431051   0.4061450), wk =   0.0046296
        k(  261) = (   0.1663829  -0.0000000   0.4061450), wk =   0.0046296
        k(  262) = (  -1.9965943  -0.2862102  -0.0902544), wk =   0.0046296
        k(  263) = (  -1.8302114  -0.1431051  -0.0902544), wk =   0.0092593
        k(  264) = (  -1.6638286  -0.0000000  -0.0902544), wk =   0.0046296
        k(  265) = (   0.0000000   1.2879460  -0.0451272), wk =   0.0046296
        k(  266) = (  -1.8302114  -0.2862102  -0.0451272), wk =   0.0092593
        k(  267) = (  -1.6638286  -0.1431051  -0.0451272), wk =   0.0092593
        k(  268) = (  -1.4974457  -0.0000000  -0.0451272), wk =   0.0046296
        k(  269) = (  -0.0000000   1.1448409  -0.0000000), wk =   0.0023148
        k(  270) = (   0.1663829   1.2879460  -0.0000000), wk =   0.0046296
        k(  271) = (  -1.6638286  -0.2862102  -0.0000000), wk =   0.0046296
        k(  272) = (  -1.4974457  -0.1431051  -0.0000000), wk =   0.0046296
        k(  273) = (  -1.3310629  -0.0000000  -0.0000000), wk =   0.0023148
        k(  274) = (   0.0000000   0.0000000   0.4512722), wk =   0.0023148
        k(  275) = (  -1.9965943  -0.1431051  -0.0451272), wk =   0.0046296
        k(  276) = (  -1.8302114   0.0000000  -0.0451272), wk =   0.0046296
        k(  277) = (   0.0000000   1.4310511   0.0000000), wk =   0.0023148
        k(  278) = (  -1.8302114  -0.1431051   0.0000000), wk =   0.0046296
        k(  279) = (  -1.6638286   0.0000000   0.0000000), wk =   0.0023148
        k(  280) = (  -1.9965943  -1.7172613  -0.5415266), wk =   0.0011574

                       cryst. coord.
        k(    1) = (   0.0000000   0.0000000   0.0000000), wk =   0.0011574
        k(    2) = (  -0.0000000   0.0000000   0.0833333), wk =   0.0046296
        k(    3) = (  -0.0000000   0.0000000   0.1666667), wk =   0.0046296
        k(    4) = (   0.0000000   0.0000000   0.2500000), wk =   0.0046296
        k(    5) = (  -0.0000000   0.0000000   0.3333333), wk =   0.0046296
        k(    6) = (  -0.0000000   0.0000000   0.4166667), wk =   0.0046296
        k(    7) = (   0.0000000   0.0000000  -0.5000000), wk =   0.0023148
        k(    8) = (   0.0000000   0.0833333  -0.0000000), wk =   0.0046296
        k(    9) = (   0.0000000   0.0833333   0.0833333), wk =   0.0092593
        k(   10) = (  -0.0000000   0.0833333   0.1666667), wk =   0.0092593
        k(   11) = (   0.0000000   0.0833333   0.2500000), wk =   0.0092593
        k(   12) = (  -0.0000000   0.0833333   0.3333333), wk =   0.0092593
        k(   13) = (  -0.0000000   0.0833333   0.4166667), wk =   0.0092593
        k(   14) = (   0.0000000   0.0833333  -0.5000000), wk =   0.0092593
        k(   15) = (   0.0000000   0.0833333  -0.4166667), wk =   0.0092593
        k(   16) = (   0.0000000   0.0833333  -0.3333333), wk =   0.0092593
        k(   17) = (   0.0000000   0.0833333  -0.2500000), wk =   0.0092593
        k(   18) = (   0.0000000   0.0833333  -0.1666667), wk =   0.0092593
        k(   19) = (   0.0000000   0.0833333  -0.0833333), wk =   0.0046296
        k(   20) = (   0.0000000   0.1666667  -0.0000000), wk =   0.0046296
        k(   21) = (   0.0000000   0.1666667   0.0833333), wk =   0.0092593
        k(   22) = (   0.0000000   0.1666667   0.1666667), wk =   0.0092593
        k(   23) = (   0.0000000   0.1666667   0.2500000), wk =   0.0092593
        k(   24) = (  -0.0000000   0.1666667   0.3333333), wk =   0.0092593
        k(   25) = (  -0.0000000   0.1666667   0.4166667), wk =   0.0092593
        k(   26) = (   0.0000000   0.1666667  -0.5000000), wk =   0.0092593
        k(   27) = (   0.0000000   0.1666667  -0.4166667), wk =   0.0092593
        k(   28) = (   0.0000000   0.1666667  -0.3333333), wk =   0.0092593
        k(   29) = (   0.0000000   0.1666667  -0.2500000), wk =   0.0092593
        k(   30) = (   0.0000000   0.1666667  -0.1666667), wk =   0.0046296
        k(   31) = (   0.0000000   0.1666667  -0.0833333), wk =   0.0092593
        k(   32) = (   0.0000000   0.2500000   0.0000000), wk =   0.0046296
        k(   33) = (   0.0000000   0.2500000   0.0833333), wk =   0.0092593
        k(   34) = (  -0.0000000   0.2500000   0.1666667), wk =   0.0092593
        k(   35) = (   0.0000000   0.2500000   0.2500000), wk =   0.0092593
        k(   36) = (   0.0000000   0.2500000   0.3333333), wk =   0.0092593
        k(   37) = (  -0.0000000   0.2500000   0.4166667), wk =   0.0092593
        k(   38) = (   0.0000000   0.2500000  -0.5000000), wk =   0.0092593
        k(   39) = (   0.0000000   0.2500000  -0.4166667), wk =   0.0092593
        k(   40) = (   0.0000000   0.2500000  -0.3333333), wk =   0.0092593
        k(   41) = (   0.0000000   0.2500000  -0.2500000), wk =   0.0046296
        k(   42) = (   0.0000000   0.2500000  -0.1666667), wk =   0.0092593
        k(   43) = (   0.0000000   0.2500000  -0.0833333), wk =   0.0092593
        k(   44) = (   0.0000000   0.3333333  -0.0000000), wk =   0.0046296
        k(   45) = (   0.0000000   0.3333333   0.0833333), wk =   0.0092593
        k(   46) = (   0.0000000   0.3333333   0.1666667), wk =   0.0092593
        k(   47) = (   0.0000000   0.3333333   0.2500000), wk =   0.0092593
        k(   48) = (   0.0000000   0.3333333   0.3333333), wk =   0.0092593
        k(   49) = (   0.0000000   0.3333333   0.4166667), wk =   0.0092593
        k(   50) = (   0.0000000   0.3333333  -0.5000000), wk =   0.0092593
        k(   51) = (   0.0000000   0.3333333  -0.4166667), wk =   0.0092593
        k(   52) = (   0.0000000   0.3333333  -0.3333333), wk =   0.0046296
        k(   53) = (   0.0000000   0.3333333  -0.2500000), wk =   0.0092593
        k(   54) = (   0.0000000   0.3333333  -0.1666667), wk =   0.0092593
        k(   55) = (   0.0000000   0.3333333  -0.0833333), wk =   0.0092593
        k(   56) = (  -0.0000000   0.4166667   0.0000000), wk =   0.0046296
        k(   57) = (   0.0000000   0.4166667   0.0833333), wk =   0.0092593
        k(   58) = (  -0.0000000   0.4166667   0.1666667), wk =   0.0092593
        k(   59) = (  -0.0000000   0.4166667   0.2500000), wk =   0.0092593
        k(   60) = (  -0.0000000   0.4166667   0.3333333), wk =   0.0092593
        k(   61) = (  -0.0000000   0.4166667   0.4166667), wk =   0.0092593
        k(   62) = (   0.0000000   0.4166667  -0.5000000), wk =   0.0092593
        k(   63) = (   0.0000000   0.4166667  -0.4166667), wk =   0.0046296
        k(   64) = (   0.0000000   0.4166667  -0.3333333), wk =   0.0092593
        k(   65) = (  -0.0000000   0.4166667  -0.2500000), wk =   0.0092593
        k(   66) = (  -0.0000000   0.4166667  -0.1666667), wk =   0.0092593
        k(   67) = (  -0.0000000   0.4166667  -0.0833333), wk =   0.0092593
        k(   68) = (   0.0000000  -0.5000000   0.0000000), wk =   0.0023148
        k(   69) = (   0.0000000  -0.5000000   0.0833333), wk =   0.0092593
        k(   70) = (   0.0000000  -0.5000000   0.1666667), wk =   0.0092593
        k(   71) = (   0.0000000  -0.5000000   0.2500000), wk =   0.0092593
        k(   72) = (   0.0000000  -0.5000000   0.3333333), wk =   0.0092593
        k(   73) = (  -0.0000000  -0.5000000   0.4166667), wk =   0.0092593
        k(   74) = (   0.0000000  -0.5000000  -0.5000000), wk =   0.0023148
        k(   75) = (   0.0833333   0.0833333   0.0833333), wk =   0.0092593
        k(   76) = (   0.0833333   0.0833333   0.1666667), wk =   0.0092593
        k(   77) = (   0.0833333   0.0833333   0.2500000), wk =   0.0092593
        k(   78) = (   0.0833333   0.0833333   0.3333333), wk =   0.0092593
        k(   79) = (   0.0833333   0.0833333   0.4166667), wk =   0.0046296
        k(   80) = (   0.0833333   0.0833333  -0.0833333), wk =   0.0023148
        k(   81) = (   0.0833333   0.1666667   0.0833333), wk =   0.0092593
        k(   82) = (   0.0833333   0.1666667   0.1666667), wk =   0.0092593
        k(   83) = (   0.0833333   0.1666667   0.2500000), wk =   0.0092593
        k(   84) = (   0.0833333   0.1666667   0.3333333), wk =   0.0092593
        k(   85) = (   0.0833333   0.1666667   0.4166667), wk =   0.0092593
        k(   86) = (   0.0833333   0.1666667  -0.5000000), wk =   0.0092593
        k(   87) = (   0.0833333   0.1666667  -0.4166667), wk =   0.0092593
        k(   88) = (   0.0833333   0.1666667  -0.3333333), wk =   0.0092593
        k(   89) = (   0.0833333   0.1666667  -0.1666667), wk =   0.0046296
        k(   90) = (   0.0833333   0.1666667  -0.0833333), wk =   0.0046296
        k(   91) = (   0.0833333   0.2500000   0.0833333), wk =   0.0092593
        k(   92) = (   0.0833333   0.2500000   0.1666667), wk =   0.0092593
        k(   93) = (   0.0833333   0.2500000   0.2500000), wk =   0.0092593
        k(   94) = (   0.0833333   0.2500000   0.3333333), wk =   0.0092593
        k(   95) = (   0.0833333   0.2500000   0.4166667), wk =   0.0092593
        k(   96) = (   0.0833333   0.2500000  -0.5000000), wk =   0.0092593
        k(   97) = (   0.0833333   0.2500000  -0.4166667), wk =   0.0092593
        k(   98) = (   0.0833333   0.2500000  -0.2500000), wk =   0.0046296
        k(   99) = (   0.0833333   0.2500000  -0.1666667), wk =   0.0092593
        k(  100) = (   0.0833333   0.2500000  -0.0833333), wk =   0.0046296
        k(  101) = (   0.0833333   0.3333333   0.0833333), wk =   0.0092593
        k(  102) = (   0.0833333   0.3333333   0.1666667), wk =   0.0092593
        k(  103) = (   0.0833333   0.3333333   0.2500000), wk =   0.0092593
        k(  104) = (   0.0833333   0.3333333   0.3333333), wk =   0.0092593
        k(  105) = (   0.0833333   0.3333333   0.4166667), wk =   0.0092593
        k(  106) = (   0.0833333   0.3333333  -0.5000000), wk =   0.0092593
        k(  107) = (   0.0833333   0.3333333  -0.3333333), wk =   0.0046296
        k(  108) = (   0.0833333   0.3333333  -0.2500000), wk =   0.0092593
        k(  109) = (   0.0833333   0.3333333  -0.1666667), wk =   0.0092593
        k(  110) = (   0.0833333   0.3333333  -0.0833333), wk =   0.0046296
        k(  111) = (   0.0833333   0.4166667   0.0833333), wk =   0.0046296
        k(  112) = (   0.0833333   0.4166667   0.1666667), wk =   0.0092593
        k(  113) = (   0.0833333   0.4166667   0.2500000), wk =   0.0092593
        k(  114) = (   0.0833333   0.4166667   0.3333333), wk =   0.0092593
        k(  115) = (   0.0833333   0.4166667   0.4166667), wk =   0.0046296
        k(  116) = (   0.0833333   0.4166667  -0.4166667), wk =   0.0046296
        k(  117) = (   0.0833333   0.4166667  -0.3333333), wk =   0.0092593
        k(  118) = (   0.0833333   0.4166667  -0.2500000), wk =   0.0092593
        k(  119) = (   0.0833333   0.4166667  -0.1666667), wk =   0.0092593
        k(  120) = (   0.0833333   0.4166667  -0.0833333), wk =   0.0046296
        k(  121) = (   0.0833333  -0.5000000   0.1666667), wk =   0.0092593
        k(  122) = (   0.0833333  -0.5000000   0.2500000), wk =   0.0092593
        k(  123) = (   0.0833333  -0.5000000  -0.5000000), wk =   0.0046296
        k(  124) = (   0.0833333  -0.5000000  -0.4166667), wk =   0.0092593
        k(  125) = (   0.0833333  -0.5000000  -0.3333333), wk =   0.0092593
        k(  126) = (   0.0833333  -0.5000000  -0.2500000), wk =   0.0092593
        k(  127) = (   0.0833333  -0.5000000  -0.1666667), wk =   0.0092593
        k(  128) = (   0.0833333  -0.5000000  -0.0833333), wk =   0.0046296
        k(  129) = (   0.0833333  -0.4166667   0.1666667), wk =   0.0092593
        k(  130) = (   0.0833333  -0.4166667   0.4166667), wk =   0.0046296
        k(  131) = (   0.0833333  -0.4166667  -0.5000000), wk =   0.0092593
        k(  132) = (   0.0833333  -0.4166667  -0.4166667), wk =   0.0092593
        k(  133) = (   0.0833333  -0.4166667  -0.3333333), wk =   0.0092593
        k(  134) = (   0.0833333  -0.4166667  -0.2500000), wk =   0.0092593
        k(  135) = (   0.0833333  -0.4166667  -0.1666667), wk =   0.0092593
        k(  136) = (   0.0833333  -0.4166667  -0.0833333), wk =   0.0046296
        k(  137) = (   0.0833333  -0.3333333   0.3333333), wk =   0.0046296
        k(  138) = (   0.0833333  -0.3333333   0.4166667), wk =   0.0092593
        k(  139) = (   0.0833333  -0.3333333  -0.5000000), wk =   0.0092593
        k(  140) = (   0.0833333  -0.3333333  -0.4166667), wk =   0.0092593
        k(  141) = (   0.0833333  -0.3333333  -0.3333333), wk =   0.0092593
        k(  142) = (   0.0833333  -0.3333333  -0.2500000), wk =   0.0092593
        k(  143) = (   0.0833333  -0.3333333  -0.1666667), wk =   0.0092593
        k(  144) = (   0.0833333  -0.3333333  -0.0833333), wk =   0.0046296
        k(  145) = (   0.0833333  -0.2500000   0.2500000), wk =   0.0046296
        k(  146) = (   0.0833333  -0.2500000   0.3333333), wk =   0.0092593
        k(  147) = (   0.0833333  -0.2500000   0.4166667), wk =   0.0092593
        k(  148) = (   0.0833333  -0.2500000  -0.5000000), wk =   0.0092593
        k(  149) = (   0.0833333  -0.2500000  -0.4166667), wk =   0.0092593
        k(  150) = (   0.0833333  -0.2500000  -0.3333333), wk =   0.0092593
        k(  151) = (   0.0833333  -0.2500000  -0.2500000), wk =   0.0092593
        k(  152) = (   0.0833333  -0.2500000  -0.1666667), wk =   0.0092593
        k(  153) = (   0.0833333  -0.2500000  -0.0833333), wk =   0.0046296
        k(  154) = (   0.0833333  -0.1666667   0.1666667), wk =   0.0046296
        k(  155) = (   0.0833333  -0.1666667   0.2500000), wk =   0.0092593
        k(  156) = (   0.0833333  -0.1666667   0.3333333), wk =   0.0092593
        k(  157) = (   0.0833333  -0.1666667   0.4166667), wk =   0.0092593
        k(  158) = (   0.0833333  -0.1666667  -0.5000000), wk =   0.0092593
        k(  159) = (   0.0833333  -0.1666667  -0.4166667), wk =   0.0092593
        k(  160) = (   0.0833333  -0.1666667  -0.3333333), wk =   0.0092593
        k(  161) = (   0.0833333  -0.1666667  -0.2500000), wk =   0.0092593
        k(  162) = (   0.0833333  -0.1666667  -0.1666667), wk =   0.0092593
        k(  163) = (   0.0833333  -0.1666667  -0.0833333), wk =   0.0046296
        k(  164) = (   0.0833333  -0.0833333   0.0833333), wk =   0.0023148
        k(  165) = (   0.0833333  -0.0833333   0.1666667), wk =   0.0046296
        k(  166) = (   0.0833333  -0.0833333   0.2500000), wk =   0.0046296
        k(  167) = (   0.0833333  -0.0833333   0.3333333), wk =   0.0046296
        k(  168) = (   0.0833333  -0.0833333   0.4166667), wk =   0.0046296
        k(  169) = (   0.0833333  -0.0833333  -0.5000000), wk =   0.0046296
        k(  170) = (   0.0833333  -0.0833333  -0.4166667), wk =   0.0046296
        k(  171) = (   0.0833333  -0.0833333  -0.3333333), wk =   0.0046296
        k(  172) = (   0.0833333  -0.0833333  -0.2500000), wk =   0.0046296
        k(  173) = (   0.0833333  -0.0833333  -0.1666667), wk =   0.0046296
        k(  174) = (   0.0833333  -0.0833333  -0.0833333), wk =   0.0023148
        k(  175) = (   0.1666667   0.1666667   0.1666667), wk =   0.0092593
        k(  176) = (   0.1666667   0.1666667   0.2500000), wk =   0.0092593
        k(  177) = (   0.1666667   0.1666667   0.3333333), wk =   0.0046296
        k(  178) = (   0.1666667   0.1666667  -0.1666667), wk =   0.0023148
        k(  179) = (   0.1666667   0.2500000   0.1666667), wk =   0.0092593
        k(  180) = (   0.1666667   0.2500000   0.2500000), wk =   0.0092593
        k(  181) = (   0.1666667   0.2500000   0.3333333), wk =   0.0092593
        k(  182) = (   0.1666667   0.2500000   0.4166667), wk =   0.0092593
        k(  183) = (   0.1666667   0.2500000  -0.2500000), wk =   0.0046296
        k(  184) = (   0.1666667   0.2500000  -0.1666667), wk =   0.0046296
        k(  185) = (   0.1666667   0.3333333   0.1666667), wk =   0.0046296
        k(  186) = (   0.1666667   0.3333333   0.2500000), wk =   0.0092593
        k(  187) = (   0.1666667   0.3333333   0.3333333), wk =   0.0046296
        k(  188) = (   0.1666667   0.3333333  -0.3333333), wk =   0.0046296
        k(  189) = (   0.1666667   0.3333333  -0.2500000), wk =   0.0092593
        k(  190) = (   0.1666667   0.3333333  -0.1666667), wk =   0.0046296
        k(  191) = (   0.1666667   0.4166667  -0.4166667), wk =   0.0046296
        k(  192) = (   0.1666667   0.4166667  -0.3333333), wk =   0.0092593
        k(  193) = (   0.1666667   0.4166667  -0.2500000), wk =   0.0092593
        k(  194) = (   0.1666667   0.4166667  -0.1666667), wk =   0.0046296
        k(  195) = (   0.1666667  -0.5000000  -0.5000000), wk =   0.0046296
        k(  196) = (   0.1666667  -0.5000000  -0.4166667), wk =   0.0092593
        k(  197) = (   0.1666667  -0.5000000  -0.3333333), wk =   0.0092593
        k(  198) = (   0.1666667  -0.5000000  -0.2500000), wk =   0.0092593
        k(  199) = (   0.1666667  -0.5000000  -0.1666667), wk =   0.0046296
        k(  200) = (   0.1666667  -0.4166667   0.4166667), wk =   0.0046296
        k(  201) = (   0.1666667  -0.4166667  -0.5000000), wk =   0.0092593
        k(  202) = (   0.1666667  -0.4166667  -0.4166667), wk =   0.0092593
        k(  203) = (   0.1666667  -0.4166667  -0.3333333), wk =   0.0092593
        k(  204) = (   0.1666667  -0.4166667  -0.2500000), wk =   0.0092593
        k(  205) = (   0.1666667  -0.4166667  -0.1666667), wk =   0.0046296
        k(  206) = (   0.1666667  -0.3333333   0.3333333), wk =   0.0046296
        k(  207) = (   0.1666667  -0.3333333   0.4166667), wk =   0.0092593
        k(  208) = (   0.1666667  -0.3333333  -0.5000000), wk =   0.0092593
        k(  209) = (   0.1666667  -0.3333333  -0.4166667), wk =   0.0092593
        k(  210) = (   0.1666667  -0.3333333  -0.3333333), wk =   0.0092593
        k(  211) = (   0.1666667  -0.3333333  -0.2500000), wk =   0.0092593
        k(  212) = (   0.1666667  -0.3333333  -0.1666667), wk =   0.0046296
        k(  213) = (   0.1666667  -0.2500000   0.2500000), wk =   0.0046296
        k(  214) = (   0.1666667  -0.2500000   0.3333333), wk =   0.0092593
        k(  215) = (   0.1666667  -0.2500000   0.4166667), wk =   0.0092593
        k(  216) = (   0.1666667  -0.2500000  -0.5000000), wk =   0.0092593
        k(  217) = (   0.1666667  -0.2500000  -0.4166667), wk =   0.0092593
        k(  218) = (   0.1666667  -0.2500000  -0.3333333), wk =   0.0092593
        k(  219) = (   0.1666667  -0.2500000  -0.2500000), wk =   0.0092593
        k(  220) = (   0.1666667  -0.2500000  -0.1666667), wk =   0.0046296
        k(  221) = (   0.1666667  -0.1666667   0.1666667), wk =   0.0023148
        k(  222) = (   0.1666667  -0.1666667   0.2500000), wk =   0.0046296
        k(  223) = (   0.1666667  -0.1666667   0.3333333), wk =   0.0046296
        k(  224) = (   0.1666667  -0.1666667   0.4166667), wk =   0.0046296
        k(  225) = (   0.1666667  -0.1666667  -0.5000000), wk =   0.0046296
        k(  226) = (   0.1666667  -0.1666667  -0.4166667), wk =   0.0046296
        k(  227) = (   0.1666667  -0.1666667  -0.3333333), wk =   0.0046296
        k(  228) = (   0.1666667  -0.1666667  -0.2500000), wk =   0.0046296
        k(  229) = (   0.1666667  -0.1666667  -0.1666667), wk =   0.0023148
        k(  230) = (   0.2500000   0.2500000   0.2500000), wk =   0.0023148
        k(  231) = (   0.2500000   0.2500000  -0.2500000), wk =   0.0023148
        k(  232) = (   0.2500000   0.3333333  -0.3333333), wk =   0.0046296
        k(  233) = (   0.2500000   0.3333333  -0.2500000), wk =   0.0046296
        k(  234) = (   0.2500000   0.4166667  -0.4166667), wk =   0.0046296
        k(  235) = (   0.2500000   0.4166667  -0.3333333), wk =   0.0092593
        k(  236) = (   0.2500000   0.4166667  -0.2500000), wk =   0.0046296
        k(  237) = (   0.2500000  -0.5000000  -0.5000000), wk =   0.0046296
        k(  238) = (   0.2500000  -0.5000000  -0.4166667), wk =   0.0092593
        k(  239) = (   0.2500000  -0.5000000  -0.3333333), wk =   0.0092593
        k(  240) = (   0.2500000  -0.5000000  -0.2500000), wk =   0.0046296
        k(  241) = (   0.2500000  -0.4166667   0.4166667), wk =   0.0046296
        k(  242) = (   0.2500000  -0.4166667  -0.5000000), wk =   0.0092593
        k(  243) = (   0.2500000  -0.4166667  -0.4166667), wk =   0.0092593
        k(  244) = (   0.2500000  -0.4166667  -0.3333333), wk =   0.0092593
        k(  245) = (   0.2500000  -0.4166667  -0.2500000), wk =   0.0046296
        k(  246) = (   0.2500000  -0.3333333   0.3333333), wk =   0.0046296
        k(  247) = (   0.2500000  -0.3333333   0.4166667), wk =   0.0092593
        k(  248) = (   0.2500000  -0.3333333  -0.5000000), wk =   0.0092593
        k(  249) = (   0.2500000  -0.3333333  -0.4166667), wk =   0.0092593
        k(  250) = (   0.2500000  -0.3333333  -0.3333333), wk =   0.0092593
        k(  251) = (   0.2500000  -0.3333333  -0.2500000), wk =   0.0046296
        k(  252) = (   0.2500000  -0.2500000   0.2500000), wk =   0.0023148
        k(  253) = (   0.2500000  -0.2500000   0.3333333), wk =   0.0046296
        k(  254) = (   0.2500000  -0.2500000   0.4166667), wk =   0.0046296
        k(  255) = (   0.2500000  -0.2500000  -0.5000000), wk =   0.0046296
        k(  256) = (   0.2500000  -0.2500000  -0.4166667), wk =   0.0046296
        k(  257) = (   0.2500000  -0.2500000  -0.3333333), wk =   0.0046296
        k(  258) = (   0.2500000  -0.2500000  -0.2500000), wk =   0.0023148
        k(  259) = (   0.3333333   0.3333333  -0.3333333), wk =   0.0023148
        k(  260) = (   0.3333333   0.4166667  -0.4166667), wk =   0.0046296
        k(  261) = (   0.3333333   0.4166667  -0.3333333), wk =   0.0046296
        k(  262) = (   0.3333333  -0.5000000  -0.5000000), wk =   0.0046296
        k(  263) = (   0.3333333  -0.5000000  -0.4166667), wk =   0.0092593
        k(  264) = (   0.3333333  -0.5000000  -0.3333333), wk =   0.0046296
        k(  265) = (   0.3333333  -0.4166667   0.4166667), wk =   0.0046296
        k(  266) = (   0.3333333  -0.4166667  -0.5000000), wk =   0.0092593
        k(  267) = (   0.3333333  -0.4166667  -0.4166667), wk =   0.0092593
        k(  268) = (   0.3333333  -0.4166667  -0.3333333), wk =   0.0046296
        k(  269) = (   0.3333333  -0.3333333   0.3333333), wk =   0.0023148
        k(  270) = (   0.3333333  -0.3333333   0.4166667), wk =   0.0046296
        k(  271) = (   0.3333333  -0.3333333  -0.5000000), wk =   0.0046296
        k(  272) = (   0.3333333  -0.3333333  -0.4166667), wk =   0.0046296
        k(  273) = (   0.3333333  -0.3333333  -0.3333333), wk =   0.0023148
        k(  274) = (   0.4166667   0.4166667  -0.4166667), wk =   0.0023148
        k(  275) = (   0.4166667  -0.5000000  -0.5000000), wk =   0.0046296
        k(  276) = (   0.4166667  -0.5000000  -0.4166667), wk =   0.0046296
        k(  277) = (   0.4166667  -0.4166667   0.4166667), wk =   0.0023148
        k(  278) = (   0.4166667  -0.4166667  -0.5000000), wk =   0.0046296
        k(  279) = (   0.4166667  -0.4166667  -0.4166667), wk =   0.0023148
        k(  280) = (  -0.5000000  -0.5000000  -0.5000000), wk =   0.0011574

     Dense  grid:   384583 G-vectors     FFT dimensions: ( 144, 144, 144)

     Smooth grid:    97215 G-vectors     FFT dimensions: (  90,  90,  90)

     Dynamical RAM for                 wfc:       0.08 MB

     Dynamical RAM for     wfc (w. buffer):      22.78 MB

     Dynamical RAM for           str. fact:       0.37 MB

     Dynamical RAM for           local pot:       0.00 MB

     Dynamical RAM for          nlocal pot:       0.16 MB

     Dynamical RAM for                qrad:       8.33 MB

     Dynamical RAM for          rho,v,vnew:       1.79 MB

     Dynamical RAM for               rhoin:       0.60 MB

     Dynamical RAM for            rho*nmix:       1.96 MB

     Dynamical RAM for           G-vectors:       0.47 MB

     Dynamical RAM for          h,s,v(r/c):       0.08 MB

     Dynamical RAM for          <psi|beta>:       0.01 MB

     Dynamical RAM for                 psi:       0.16 MB

     Dynamical RAM for                hpsi:       0.16 MB

     Dynamical RAM for                spsi:       0.16 MB

     Dynamical RAM for      wfcinit/wfcrot:       0.21 MB

     Dynamical RAM for           addusdens:      22.98 MB

     Dynamical RAM for          addusforce:      23.30 MB

     Dynamical RAM for         addusstress:      24.57 MB

     Estimated static dynamical RAM per process >      39.32 MB

     Estimated max dynamical RAM per process >      63.90 MB

     Estimated total dynamical RAM >       3.00 GB

     Initial potential from superposition of free atoms

     starting charge   32.99867, renormalised to   33.00000
     Starting wfcs are   25 randomized atomic wfcs
     Checking if some PAW data can be deallocated... 
       PAW data deallocated on   36 nodes for type:  1
       PAW data deallocated on   24 nodes for type:  2
       PAW data deallocated on   36 nodes for type:  3

     total cpu time spent up to now is        6.8 secs

     Self-consistent Calculation

     iteration #  1     ecut=   120.00 Ry     beta= 0.70
     Davidson diagonalization with overlap
     ethr =  1.00E-02,  avg # of iterations =  2.3

     total cpu time spent up to now is       20.2 secs

     total energy              =    -534.52752575 Ry
     estimated scf accuracy    <       0.76316020 Ry

     iteration #  2     ecut=   120.00 Ry     beta= 0.70
     Davidson diagonalization with overlap
     ethr =  2.31E-03,  avg # of iterations =  3.5

     total cpu time spent up to now is       35.9 secs

     total energy              =    -533.60112783 Ry
     estimated scf accuracy    <       8.55107072 Ry

     iteration #  3     ecut=   120.00 Ry     beta= 0.70
     Davidson diagonalization with overlap
     ethr =  2.31E-03,  avg # of iterations =  3.5

     total cpu time spent up to now is       50.6 secs

     total energy              =    -534.97563473 Ry
     estimated scf accuracy    <       0.12657054 Ry

     iteration #  4     ecut=   120.00 Ry     beta= 0.70
     Davidson diagonalization with overlap
     ethr =  3.84E-04,  avg # of iterations =  1.3

     total cpu time spent up to now is       62.6 secs

     total energy              =    -534.96758240 Ry
     estimated scf accuracy    <       0.06192073 Ry

     iteration #  5     ecut=   120.00 Ry     beta= 0.70
     Davidson diagonalization with overlap
     ethr =  1.88E-04,  avg # of iterations =  1.5

     total cpu time spent up to now is       74.5 secs

     total energy              =    -534.96473966 Ry
     estimated scf accuracy    <       0.02265133 Ry

     iteration #  6     ecut=   120.00 Ry     beta= 0.70
     Davidson diagonalization with overlap
     ethr =  6.86E-05,  avg # of iterations =  1.9

     total cpu time spent up to now is       86.7 secs

     total energy              =    -534.96695029 Ry
     estimated scf accuracy    <       0.00094365 Ry

     iteration #  7     ecut=   120.00 Ry     beta= 0.70
     Davidson diagonalization with overlap
     ethr =  2.86E-06,  avg # of iterations =  3.2

     total cpu time spent up to now is      101.5 secs

     total energy              =    -534.96718576 Ry
     estimated scf accuracy    <       0.00014280 Ry

     iteration #  8     ecut=   120.00 Ry     beta= 0.70
     Davidson diagonalization with overlap
     ethr =  4.33E-07,  avg # of iterations =  2.0

     total cpu time spent up to now is      114.5 secs

     total energy              =    -534.96719349 Ry
     estimated scf accuracy    <       0.00001819 Ry

     iteration #  9     ecut=   120.00 Ry     beta= 0.70
     Davidson diagonalization with overlap
     ethr =  5.51E-08,  avg # of iterations =  2.4

     total cpu time spent up to now is      128.1 secs

     total energy              =    -534.96719823 Ry
     estimated scf accuracy    <       0.00000093 Ry

     iteration # 10     ecut=   120.00 Ry     beta= 0.70
     Davidson diagonalization with overlap
     ethr =  2.82E-09,  avg # of iterations =  3.5

     total cpu time spent up to now is      143.2 secs

     total energy              =    -534.96719850 Ry
     estimated scf accuracy    <       0.00000005 Ry

     iteration # 11     ecut=   120.00 Ry     beta= 0.70
     Davidson diagonalization with overlap
     ethr =  1.46E-10,  avg # of iterations =  3.7

     total cpu time spent up to now is      159.5 secs

     total energy              =    -534.96719852 Ry
     estimated scf accuracy    <          1.9E-09 Ry

     iteration # 12     ecut=   120.00 Ry     beta= 0.70
     Davidson diagonalization with overlap
     ethr =  5.71E-12,  avg # of iterations =  3.5

     total cpu time spent up to now is      176.3 secs

     total energy              =    -534.96719852 Ry
     estimated scf accuracy    <          6.7E-10 Ry

     iteration # 13     ecut=   120.00 Ry     beta= 0.70
     Davidson diagonalization with overlap
     ethr =  2.04E-12,  avg # of iterations =  2.0

     total cpu time spent up to now is      189.3 secs

     End of self-consistent calculation

          k = 0.0000 0.0000 0.0000 ( 12131 PWs)   bands (ev):

   -49.8592 -26.0972 -25.8033 -25.7139 -12.4044  -9.5091  -8.8195   0.6274
     2.4747   2.7297   2.8756   2.9856   3.4491   3.9417   4.1972   4.2848
     5.5100   7.2004   7.3377   8.6519   9.3749

     occupation numbers 
     1.0000   1.0000   1.0000   1.0000   1.0000   1.0000   1.0000   1.0000
     1.0000   1.0000   1.0000   1.0000   1.0000   1.0000   1.0000   1.0000
     1.0000  -0.0000  -0.0000  -0.0000  -0.0000

          k = 0.1664 0.1431 0.0000 ( 12121 PWs)   bands (ev):

   -49.8580 -26.1087 -25.8003 -25.7281 -12.3159  -9.4598  -8.8228   0.7230
     2.3199   2.3753   2.7294   3.2155   3.2390   3.8858   3.9003   4.0966
     5.7285   7.3522   7.4475   8.6901   9.7189

     occupation numbers 
     1.0000   1.0000   1.0000   1.0000   1.0000   1.0000   1.0000   1.0000
     1.0000   1.0000   1.0000   1.0000   1.0000   1.0000   1.0000   1.0000
     1.0000  -0.0000  -0.0000  -0.0000  -0.0000

          k = 0.3328 0.2862 0.0000 ( 12128 PWs)   bands (ev):

   -49.8547 -26.1396 -25.7921 -25.7666 -12.0676  -9.3214  -8.8330   0.9924
     1.9426   2.0258   2.1397   2.6721   3.0640   3.2584   3.8796   4.0077
     6.2024   7.7019   7.7649   8.8634  10.4782

     occupation numbers 
     1.0000   1.0000   1.0000   1.0000   1.0000   1.0000   1.0000   1.0000
     1.0000   1.0000   1.0000   1.0000   1.0000   1.0000   1.0000   1.0000
     1.0000  -0.0000  -0.0000  -0.0000  -0.0000

          k = 0.4991 0.4293 0.0000 ( 12152 PWs)   bands (ev):

   -49.8503 -26.1809 -25.8187 -25.7809 -11.7106  -9.1227  -8.8490   1.0850
     1.4069   1.7244   1.9049   1.9983   2.1930   2.9317   3.8417   4.0121
     6.8158   8.1502   8.2544   9.1643  11.1393

     occupation numbers 
     1.0000   1.0000   1.0000   1.0000   1.0000   1.0000   1.0000   1.0000
     1.0000   1.0000   1.0000   1.0000   1.0000   1.0000   1.0000   1.0000
     0.7448  -0.0000  -0.0000  -0.0000  -0.0000

          k = 0.6655 0.5724 0.0000 ( 12170 PWs)   bands (ev):

   -49.8458 -26.2209 -25.8700 -25.7697 -11.3283  -8.9105  -8.8675   0.2461
     1.2280   1.5025   1.6654   1.7725   1.9844   2.5132   3.6519   4.0027
     7.5215   8.6255   8.8028   9.4618  11.3733

     occupation numbers 
     1.0000   1.0000   1.0000   1.0000   1.0000   1.0000   1.0000   1.0000
     1.0000   1.0000   1.0000   1.0000   1.0000   1.0000   1.0000   1.0000
    -0.0000  -0.0000  -0.0000  -0.0000  -0.0000

          k = 0.8319 0.7155 0.0000 ( 12159 PWs)   bands (ev):

   -49.8425 -26.2496 -25.9071 -25.7615 -11.0285  -8.8827  -8.7446  -0.3659
     0.7653   1.0993   1.6842   1.8069   2.1470   2.3933   3.4003   3.9354
     8.1780   9.0124   9.2165   9.6774  11.3670

     occupation numbers 
     1.0000   1.0000   1.0000   1.0000   1.0000   1.0000   1.0000   1.0000
     1.0000   1.0000   1.0000   1.0000   1.0000   1.0000   1.0000   1.0000
    -0.0000  -0.0000  -0.0000  -0.0000  -0.0000

          k =-0.9983-0.8586 0.0000 ( 12140 PWs)   bands (ev):

   -49.8413 -26.2599 -25.9206 -25.7585 -10.9138  -8.8886  -8.6812  -0.5897
     0.5965   0.9598   1.7519   1.8389   1.9720   2.5849   3.2738   3.8795
     8.4702   9.1693   9.3558   9.7705  11.3982

     occupation numbers 
     1.0000   1.0000   1.0000   1.0000   1.0000   1.0000   1.0000   1.0000
     1.0000   1.0000   1.0000   1.0000   1.0000   1.0000   1.0000   1.0000
    -0.0000  -0.0000  -0.0000  -0.0000  -0.0000

          k = 0.1664 0.0000 0.0451 ( 12128 PWs)   bands (ev):

   -49.8582 -26.0961 -25.8008 -25.7285 -12.3965  -9.4685  -8.8254   0.7149
     2.3678   2.7020   2.9125   3.0084   3.3037   3.9117   4.0384   4.1602
     5.7196   7.1588   7.3112   8.6837   9.5674

     occupation numbers 
     1.0000   1.0000   1.0000   1.0000   1.0000   1.0000   1.0000   1.0000
     1.0000   1.0000   1.0000   1.0000   1.0000   1.0000   1.0000   1.0000
     1.0000  -0.0000  -0.0000  -0.0000  -0.0000

          k = 0.3328 0.1431 0.0451 ( 12145 PWs)   bands (ev):

   -49.8553 -26.1055 -25.7933 -25.7678 -12.2946  -9.3501  -8.8343   0.9469
     2.1317   2.3663   2.7432   2.8002   3.1682   3.4387   3.8734   4.0695
     6.1781   7.2359   7.3645   8.8475  10.0979

     occupation numbers 
     1.0000   1.0000   1.0000   1.0000   1.0000   1.0000   1.0000   1.0000
     1.0000   1.0000   1.0000   1.0000   1.0000   1.0000   1.0000   1.0000
     1.0000  -0.0000  -0.0000  -0.0000  -0.0000

          k = 0.4991 0.2862 0.0451 ( 12149 PWs)   bands (ev):

   -49.8511 -26.1351 -25.8203 -25.7825 -12.0390  -9.1644  -8.8488   1.2764
     1.9007   1.9863   2.0785   2.2033   2.5724   2.9984   3.8768   4.0852
     6.7740   7.5567   7.6653   9.1740  10.7631

     occupation numbers 
     1.0000   1.0000   1.0000   1.0000   1.0000   1.0000   1.0000   1.0000
     1.0000   1.0000   1.0000   1.0000   1.0000   1.0000   1.0000   1.0000
     1.0000  -0.0000  -0.0000  -0.0000  -0.0000

          k = 0.6655 0.4293 0.0451 ( 12177 PWs)   bands (ev):

   -49.8466 -26.1761 -25.8718 -25.7713 -11.6828  -8.9557  -8.8654   1.1056
     1.3859   1.5930   1.7403   1.8966   2.0863   2.6001   3.7659   4.1033
     7.4557   8.0386   8.1846   9.5137  11.1717

     occupation numbers 
     1.0000   1.0000   1.0000   1.0000   1.0000   1.0000   1.0000   1.0000
     1.0000   1.0000   1.0000   1.0000   1.0000   1.0000   1.0000   1.0000
    -0.0000  -0.0000  -0.0000  -0.0000  -0.0000

          k = 0.8319 0.5724 0.0451 ( 12171 PWs)   bands (ev):

   -49.8431 -26.2173 -25.9085 -25.7627 -11.3087  -8.8862  -8.7737   0.2625
     0.9765   1.0766   1.7139   1.8346   2.2629   2.3762   3.5093   4.0357
     8.1241   8.5536   8.7584   9.7246  11.2927

     occupation numbers 
     1.0000   1.0000   1.0000   1.0000   1.0000   1.0000   1.0000   1.0000
     1.0000   1.0000   1.0000   1.0000   1.0000   1.0000   1.0000   1.0000
    -0.0000  -0.0000  -0.0000  -0.0000  -0.0000

          k = 0.9983 0.7155 0.0451 ( 12167 PWs)   bands (ev):

   -49.8415 -26.2482 -25.9211 -25.7589 -11.0216  -8.8941  -8.6874  -0.3606
     0.6648   0.9447   1.6269   1.9321   2.0716   2.5969   3.3070   3.9106
     8.4657   8.9806   9.1941   9.7619  11.3421

     occupation numbers 
     1.0000   1.0000   1.0000   1.0000   1.0000   1.0000   1.0000   1.0000
     1.0000   1.0000   1.0000   1.0000   1.0000   1.0000   1.0000   1.0000
    -0.0000  -0.0000  -0.0000  -0.0000  -0.0000

          k =-0.8319-0.8586 0.0451 ( 12162 PWs)   bands (ev):

   -49.8423 -26.2613 -25.9066 -25.7610 -10.9205  -8.8913  -8.7231  -0.5946
     0.6821   1.0910   1.5273   1.8701   2.1985   2.4681   3.3502   3.8596
     8.2041   9.1952   9.3793   9.6308  11.3309

     occupation numbers 
     1.0000   1.0000   1.0000   1.0000   1.0000   1.0000   1.0000   1.0000
     1.0000   1.0000   1.0000   1.0000   1.0000   1.0000   1.0000   1.0000
    -0.0000  -0.0000  -0.0000  -0.0000  -0.0000

          k =-0.6655-0.7155 0.0451 ( 12161 PWs)   bands (ev):

   -49.8452 -26.2533 -25.8687 -25.7685 -11.0473  -8.8820  -8.8642  -0.3802
     1.0070   1.4667   1.5147   1.7480   2.0578   2.5455   3.5616   3.8703
     7.5681   9.0872   9.2547   9.3961  11.4143

     occupation numbers 
     1.0000   1.0000   1.0000   1.0000   1.0000   1.0000   1.0000   1.0000
     1.0000   1.0000   1.0000   1.0000   1.0000   1.0000   1.0000   1.0000
    -0.0000  -0.0000  -0.0000  -0.0000  -0.0000

          k =-0.4991-0.5724 0.0451 ( 12173 PWs)   bands (ev):

   -49.8494 -26.2259 -25.8170 -25.7792 -11.3549  -9.0725  -8.8582   0.2243
     1.4216   1.5134   1.6113   1.8965   2.1528   2.9304   3.7598   3.8702
     6.8677   8.7490   8.8284   9.1509  11.3576

     occupation numbers 
     1.0000   1.0000   1.0000   1.0000   1.0000   1.0000   1.0000   1.0000
     1.0000   1.0000   1.0000   1.0000   1.0000   1.0000   1.0000   1.0000
    -0.0000  -0.0000  -0.0000  -0.0000  -0.0000

          k =-0.3328-0.4293 0.0451 ( 12143 PWs)   bands (ev):

   -49.8539 -26.1856 -25.7904 -25.7650 -11.7382  -9.2743  -8.8404   1.0089
     1.1604   1.5499   2.1269   2.3242   2.9153   3.2727   3.8056   3.9077
     6.2484   8.3079   8.3220   8.8768  10.8427

     occupation numbers 
     1.0000   1.0000   1.0000   1.0000   1.0000   1.0000   1.0000   1.0000
     1.0000   1.0000   1.0000   1.0000   1.0000   1.0000   1.0000   1.0000
     1.0000  -0.0000  -0.0000  -0.0000  -0.0000

          k =-0.1664-0.2862 0.0451 ( 12113 PWs)   bands (ev):

   -49.8574 -26.1429 -25.7991 -25.7270 -12.0885  -9.4260  -8.8282   0.7751
     1.8476   2.0106   2.3858   3.0056   3.4091   3.6370   3.8497   3.9556
     5.7617   7.8384   7.8415   8.7109  10.0771

     occupation numbers 
     1.0000   1.0000   1.0000   1.0000   1.0000   1.0000   1.0000   1.0000
     1.0000   1.0000   1.0000   1.0000   1.0000   1.0000   1.0000   1.0000
     1.0000  -0.0000  -0.0000  -0.0000  -0.0000

          k =-0.0000-0.1431 0.0451 ( 12110 PWs)   bands (ev):

   -49.8590 -26.1099 -25.8029 -25.7135 -12.3237  -9.4954  -8.8233   0.6513
     2.3022   2.4849   2.7224   3.2259   3.3727   3.8722   4.0429   4.2224
     5.5243   7.4012   7.4791   8.6654   9.5403

     occupation numbers 
     1.0000   1.0000   1.0000   1.0000   1.0000   1.0000   1.0000   1.0000
     1.0000   1.0000   1.0000   1.0000   1.0000   1.0000   1.0000   1.0000
     1.0000  -0.0000  -0.0000  -0.0000  -0.0000

          k = 0.3328 0.0000 0.0903 ( 12143 PWs)   bands (ev):

   -49.8556 -26.0929 -25.7938 -25.7682 -12.3750  -9.3553  -8.8410   0.9438
     2.1375   2.5730   2.8283   2.9772   3.1172   3.6380   3.8784   4.0552
     6.1819   7.0520   7.2280   8.8251   9.9244

     occupation numbers 
     1.0000   1.0000   1.0000   1.0000   1.0000   1.0000   1.0000   1.0000
     1.0000   1.0000   1.0000   1.0000   1.0000   1.0000   1.0000   1.0000
     1.0000  -0.0000  -0.0000  -0.0000  -0.0000

          k = 0.4991 0.1431 0.0903 ( 12159 PWs)   bands (ev):

   -49.8517 -26.1012 -25.8216 -25.7838 -12.2654  -9.1907  -8.8532   1.2180
     1.9154   2.0824   2.3593   2.7640   3.1296   3.1981   3.8294   4.0107
     6.7651   7.1141   7.2331   9.1533  10.3195

     occupation numbers 
     1.0000   1.0000   1.0000   1.0000   1.0000   1.0000   1.0000   1.0000
     1.0000   1.0000   1.0000   1.0000   1.0000   1.0000   1.0000   1.0000
     1.0000  -0.0000  -0.0000  -0.0000  -0.0000

          k = 0.6655 0.2862 0.0903 ( 12171 PWs)   bands (ev):

   -49.8475 -26.1306 -25.8735 -25.7730 -12.0104  -8.9978  -8.8655   1.3223
     1.5535   1.7690   2.0616   2.1910   2.4488   2.8687   3.8439   4.0990
     7.2772   7.5484   7.6072   9.5268  10.7604

     occupation numbers 
     1.0000   1.0000   1.0000   1.0000   1.0000   1.0000   1.0000   1.0000
     1.0000   1.0000   1.0000   1.0000   1.0000   1.0000   1.0000   1.0000
    -0.0000  -0.0000  -0.0000  -0.0000  -0.0000

          k = 0.8319 0.4293 0.0903 ( 12169 PWs)   bands (ev):

   -49.8439 -26.1727 -25.9103 -25.7643 -11.6624  -8.9035  -8.7997   0.9519
     1.1866   1.3275   1.6172   1.9067   2.4471   2.5786   3.6534   4.1029
     7.8156   8.1229   8.2158   9.7514  11.0383

     occupation numbers 
     1.0000   1.0000   1.0000   1.0000   1.0000   1.0000   1.0000   1.0000
     1.0000   1.0000   1.0000   1.0000   1.0000   1.0000   1.0000   1.0000
    -0.0000  -0.0000  -0.0000  -0.0000  -0.0000

          k = 0.9983 0.5724 0.0903 ( 12177 PWs)   bands (ev):

   -49.8421 -26.2160 -25.9225 -25.7601 -11.3015  -8.9091  -8.7040   0.2684
     0.8263   0.9464   1.5091   1.9567   2.3495   2.6453   3.4057   3.9840
     8.4103   8.5333   8.7400   9.7513  11.1742

     occupation numbers 
     1.0000   1.0000   1.0000   1.0000   1.0000   1.0000   1.0000   1.0000
     1.0000   1.0000   1.0000   1.0000   1.0000   1.0000   1.0000   1.0000
    -0.0000  -0.0000  -0.0000  -0.0000  -0.0000

          k = 1.1647 0.7155 0.0903 ( 12179 PWs)   bands (ev):

   -49.8425 -26.2496 -25.9071 -25.7615 -11.0284  -8.9095  -8.7153  -0.3659
     0.7398   1.0498   1.4169   1.9324   2.3344   2.5674   3.3710   3.8439
     8.2175   9.0068   9.2164   9.5809  11.2336

     occupation numbers 
     1.0000   1.0000   1.0000   1.0000   1.0000   1.0000   1.0000   1.0000
     1.0000   1.0000   1.0000   1.0000   1.0000   1.0000   1.0000   1.0000
    -0.0000  -0.0000  -0.0000  -0.0000  -0.0000

          k =-0.6655-0.8586 0.0903 ( 12179 PWs)   bands (ev):

   -49.8449 -26.2651 -25.8682 -25.7680 -10.9388  -8.8990  -8.8347  -0.6079
     0.9082   1.3512   1.4829   1.7284   2.1996   2.6259   3.5322   3.7605
     7.6011   9.2185   9.3615   9.4368  11.3794

     occupation numbers 
     1.0000   1.0000   1.0000   1.0000   1.0000   1.0000   1.0000   1.0000
     1.0000   1.0000   1.0000   1.0000   1.0000   1.0000   1.0000   1.0000
    -0.0000  -0.0000  -0.0000  -0.0000  -0.0000

          k =-0.4991-0.7155 0.0903 ( 12183 PWs)   bands (ev):

   -49.8488 -26.2584 -25.8157 -25.7780 -11.0726  -9.0218  -8.8797  -0.3994
     1.2350   1.3369   1.6376   1.8632   2.1449   2.9530   3.6637   3.7610
     6.9147   8.9986   9.2279   9.3501  11.4511

     occupation numbers 
     1.0000   1.0000   1.0000   1.0000   1.0000   1.0000   1.0000   1.0000
     1.0000   1.0000   1.0000   1.0000   1.0000   1.0000   1.0000   1.0000
    -0.0000  -0.0000  -0.0000  -0.0000  -0.0000

          k =-0.3328-0.5724 0.0903 ( 12156 PWs)   bands (ev):

   -49.8530 -26.2308 -25.7887 -25.7634 -11.3813  -9.2172  -8.8596   0.2030
     1.1345   1.3051   1.9482   2.1374   2.8496   3.2300   3.6320   3.8887
     6.2994   8.7612   8.9097   9.0074  11.1124

     occupation numbers 
     1.0000   1.0000   1.0000   1.0000   1.0000   1.0000   1.0000   1.0000
     1.0000   1.0000   1.0000   1.0000   1.0000   1.0000   1.0000   1.0000
     1.0000  -0.0000  -0.0000  -0.0000  -0.0000

          k =-0.1664-0.4293 0.0903 ( 12130 PWs)   bands (ev):

   -49.8565 -26.1890 -25.7974 -25.7255 -11.7584  -9.3731  -8.8438   0.8406
     1.0930   1.4441   2.3921   2.6783   3.2347   3.5619   3.7575   3.9234
     5.8050   8.3846   8.4571   8.7457  10.4584

     occupation numbers 
     1.0000   1.0000   1.0000   1.0000   1.0000   1.0000   1.0000   1.0000
     1.0000   1.0000   1.0000   1.0000   1.0000   1.0000   1.0000   1.0000
     1.0000  -0.0000  -0.0000  -0.0000  -0.0000

          k = 0.0000-0.2862 0.0903 ( 12119 PWs)   bands (ev):

   -49.8584 -26.1441 -25.8016 -25.7124 -12.0960  -9.4564  -8.8353   0.7170
     1.8201   2.0060   2.5134   3.1608   3.3923   3.6129   3.9234   4.1097
     5.5556   7.8662   7.9010   8.7023   9.9130

     occupation numbers 
     1.0000   1.0000   1.0000   1.0000   1.0000   1.0000   1.0000   1.0000
     1.0000   1.0000   1.0000   1.0000   1.0000   1.0000   1.0000   1.0000
     1.0000  -0.0000  -0.0000  -0.0000  -0.0000

          k = 0.1664-0.1431 0.0903 ( 12119 PWs)   bands (ev):

   -49.8580 -26.1087 -25.8003 -25.7281 -12.3158  -9.4503  -8.8346   0.7538
     2.3267   2.3779   2.7280   3.1881   3.2436   3.7803   3.9646   4.0868
     5.7387   7.3499   7.4581   8.6939   9.7588

     occupation numbers 
     1.0000   1.0000   1.0000   1.0000   1.0000   1.0000   1.0000   1.0000
     1.0000   1.0000   1.0000   1.0000   1.0000   1.0000   1.0000   1.0000
     1.0000  -0.0000  -0.0000  -0.0000  -0.0000

          k = 0.4991 0.0000 0.1354 ( 12156 PWs)   bands (ev):

   -49.8519 -26.0887 -25.8220 -25.7842 -12.3457  -9.1968  -8.8584   1.1923
     1.9305   2.0324   2.4821   3.0363   3.3253   3.4486   3.7751   3.9018
     6.7938   6.9258   7.0777   9.1087  10.0944

     occupation numbers 
     1.0000   1.0000   1.0000   1.0000   1.0000   1.0000   1.0000   1.0000
     1.0000   1.0000   1.0000   1.0000   1.0000   1.0000   1.0000   1.0000
     1.0102  -0.0000  -0.0000  -0.0000  -0.0000

          k = 0.6655 0.1431 0.1354 ( 12168 PWs)   bands (ev):

   -49.8481 -26.0969 -25.8748 -25.7742 -12.2364  -9.0295  -8.8640   1.2563
     1.4874   1.8965   2.1637   2.8087   3.0841   3.2614   3.7985   3.9462
     6.9608   7.0599   7.5055   9.4969  10.2719

     occupation numbers 
     1.0000   1.0000   1.0000   1.0000   1.0000   1.0000   1.0000   1.0000
     1.0000   1.0000   1.0000   1.0000   1.0000   1.0000   1.0000   1.0000
    -0.0000  -0.0000  -0.0000  -0.0000  -0.0000

          k = 0.8319 0.2862 0.1354 ( 12172 PWs)   bands (ev):

   -49.8448 -26.1273 -25.9121 -25.7659 -11.9895  -8.9312  -8.8141   0.9213
     1.4521   1.6719   1.9339   2.2064   2.6402   3.0051   3.7861   4.0603
     7.2731   7.4517   8.1599   9.7410  10.6072

     occupation numbers 
     1.0000   1.0000   1.0000   1.0000   1.0000   1.0000   1.0000   1.0000
     1.0000   1.0000   1.0000   1.0000   1.0000   1.0000   1.0000   1.0000
    -0.0000  -0.0000  -0.0000  -0.0000  -0.0000

          k = 0.9983 0.4293 0.1354 ( 12163 PWs)   bands (ev):

   -49.8430 -26.1714 -25.9243 -25.7617 -11.6549  -8.9295  -8.7264   0.7722
     1.2062   1.2146   1.4341   1.9594   2.6297   2.8141   3.5581   4.0439
     7.8396   8.0996   8.4607   9.7398  10.8888

     occupation numbers 
     1.0000   1.0000   1.0000   1.0000   1.0000   1.0000   1.0000   1.0000
     1.0000   1.0000   1.0000   1.0000   1.0000   1.0000   1.0000   1.0000
    -0.0000  -0.0000  -0.0000  -0.0000  -0.0000

          k = 1.1647 0.5724 0.1354 ( 12188 PWs)   bands (ev):

   -49.8431 -26.2173 -25.9085 -25.7627 -11.3086  -8.9333  -8.7221   0.2623
     0.9085   1.0220   1.3462   2.0131   2.5045   2.6775   3.4662   3.8948
     8.2172   8.5172   8.7632   9.5470  11.0701

     occupation numbers 
     1.0000   1.0000   1.0000   1.0000   1.0000   1.0000   1.0000   1.0000
     1.0000   1.0000   1.0000   1.0000   1.0000   1.0000   1.0000   1.0000
    -0.0000  -0.0000  -0.0000  -0.0000  -0.0000

          k = 1.3311 0.7155 0.1354 ( 12175 PWs)   bands (ev):

   -49.8452 -26.2533 -25.8687 -25.7685 -11.0470  -8.9279  -8.8160  -0.3805
     0.9541   1.3022   1.4323   1.7573   2.3494   2.7086   3.5749   3.7203
     7.6164   9.0483   9.2693   9.3046  11.2981

     occupation numbers 
     1.0000   1.0000   1.0000   1.0000   1.0000   1.0000   1.0000   1.0000
     1.0000   1.0000   1.0000   1.0000   1.0000   1.0000   1.0000   1.0000
    -0.0000  -0.0000  -0.0000  -0.0000  -0.0000

          k =-0.4991-0.8586 0.1354 ( 12184 PWs)   bands (ev):

   -49.8486 -26.2702 -25.8153 -25.7776 -10.9635  -8.9810  -8.9103  -0.6260
     1.1684   1.2132   1.7289   1.8074   2.1880   2.9728   3.5789   3.7452
     6.9466   8.9636   9.4059   9.4977  11.4622

     occupation numbers 
     1.0000   1.0000   1.0000   1.0000   1.0000   1.0000   1.0000   1.0000
     1.0000   1.0000   1.0000   1.0000   1.0000   1.0000   1.0000   1.0000
    -0.0000  -0.0000  -0.0000  -0.0000  -0.0000

          k =-0.3328-0.7155 0.1354 ( 12177 PWs)   bands (ev):

   -49.8524 -26.2635 -25.7875 -25.7623 -11.0976  -9.1607  -8.8905  -0.4183
     1.0000   1.3604   1.7438   2.0661   2.8317   3.1267   3.5236   3.8886
     6.3421   8.8046   9.3529   9.3882  11.2755

     occupation numbers 
     1.0000   1.0000   1.0000   1.0000   1.0000   1.0000   1.0000   1.0000
     1.0000   1.0000   1.0000   1.0000   1.0000   1.0000   1.0000   1.0000
     1.0000  -0.0000  -0.0000  -0.0000  -0.0000

          k =-0.1664-0.5724 0.1354 ( 12144 PWs)   bands (ev):

   -49.8557 -26.2344 -25.7957 -25.7239 -11.4004  -9.3109  -8.8709   0.1872
     0.9070   1.2156   2.2866   2.4590   2.9698   3.5117   3.6624   3.9554
     5.8480   8.7573   8.9713   9.0497  10.7745

     occupation numbers 
     1.0000   1.0000   1.0000   1.0000   1.0000   1.0000   1.0000   1.0000
     1.0000   1.0000   1.0000   1.0000   1.0000   1.0000   1.0000   1.0000
     1.0000  -0.0000  -0.0000  -0.0000  -0.0000

          k = 0.0000-0.4293 0.1354 ( 12137 PWs)   bands (ev):

   -49.8575 -26.1903 -25.7999 -25.7109 -11.7656  -9.3989  -8.8569   0.7883
     1.0844   1.4303   2.5537   2.8870   3.0193   3.5585   3.9466   4.0195
     5.5938   8.4045   8.5196   8.7534  10.3171

     occupation numbers 
     1.0000   1.0000   1.0000   1.0000   1.0000   1.0000   1.0000   1.0000
     1.0000   1.0000   1.0000   1.0000   1.0000   1.0000   1.0000   1.0000
     1.0000  -0.0000  -0.0000  -0.0000  -0.0000

          k = 0.1664-0.2862 0.1354 ( 12127 PWs)   bands (ev):

   -49.8574 -26.1429 -25.7991 -25.7270 -12.0882  -9.4078  -8.8505   0.8300
     1.8681   2.0154   2.3920   2.9987   3.2688   3.5838   3.8451   4.0264
     5.7747   7.8388   7.8484   8.7207  10.1532

     occupation numbers 
     1.0000   1.0000   1.0000   1.0000   1.0000   1.0000   1.0000   1.0000
     1.0000   1.0000   1.0000   1.0000   1.0000   1.0000   1.0000   1.0000
     1.0000  -0.0000  -0.0000  -0.0000  -0.0000

          k = 0.3328-0.1431 0.1354 ( 12136 PWs)   bands (ev):

   -49.8553 -26.1055 -25.7933 -25.7678 -12.2943  -9.3354  -8.8515   0.9840
     2.1411   2.3500   2.7419   2.7483   3.1684   3.4449   3.8826   4.0585
     6.2034   7.2229   7.3824   8.8069  10.1269

     occupation numbers 
     1.0000   1.0000   1.0000   1.0000   1.0000   1.0000   1.0000   1.0000
     1.0000   1.0000   1.0000   1.0000   1.0000   1.0000   1.0000   1.0000
     1.0000  -0.0000  -0.0000  -0.0000  -0.0000

          k = 0.6655 0.0000 0.1805 ( 12170 PWs)   bands (ev):

   -49.8483 -26.0844 -25.8753 -25.7746 -12.3165  -9.0458  -8.8579   1.2140
     1.4057   1.9666   2.2256   3.1114   3.4083   3.5502   3.7154   3.7499
     6.8211   6.8713   7.4987   9.4370  10.0185

     occupation numbers 
     1.0000   1.0000   1.0000   1.0000   1.0000   1.0000   1.0000   1.0000
     1.0000   1.0000   1.0000   1.0000   1.0000   1.0000   1.0000   1.0000
     0.4274  -0.0000  -0.0000  -0.0000  -0.0000

          k = 0.8319 0.1431 0.1805 ( 12182 PWs)   bands (ev):

   -49.8454 -26.0937 -25.9135 -25.7671 -12.2151  -8.9593  -8.8159   0.8658
     1.3880   1.9139   1.9650   2.9259   3.0697   3.4463   3.7729   3.9146
     6.8803   6.9136   8.1420   9.6751  10.1559

     occupation numbers 
     1.0000   1.0000   1.0000   1.0000   1.0000   1.0000   1.0000   1.0000
     1.0000   1.0000   1.0000   1.0000   1.0000   1.0000   1.0000   1.0000
    -0.0000  -0.0000  -0.0000  -0.0000  -0.0000

          k = 0.9983 0.2862 0.1805 ( 12170 PWs)   bands (ev):

   -49.8438 -26.1261 -25.9262 -25.7634 -11.9818  -8.9496  -8.7486   0.7275
     1.3513   1.6007   1.9405   2.2044   2.8029   3.1921   3.7309   4.0075
     7.2528   7.4114   8.4445   9.7101  10.4980

[...]

   -49.8590 -26.1099 -25.8030 -25.7135 -12.3219  -9.3117  -9.0413   1.2404
     2.2615   2.6424   2.6443   2.8003   3.2930   3.5573   3.9276   4.0135
     5.5678   7.4010   7.6071   8.9498  10.0441

     occupation numbers 
     1.0000   1.0000   1.0000   1.0000   1.0000   1.0000   1.0000   1.0000
     1.0000   1.0000   1.0000   1.0000   1.0000   1.0000   1.0000   1.0000
     1.0000  -0.0000  -0.0000  -0.0000  -0.0000

          k = 0.1664-0.0000 0.4061 ( 12140 PWs)   bands (ev):

   -49.8582 -26.0961 -25.8009 -25.7285 -12.3948  -9.2973  -9.0268   1.2776
     2.1233   2.6543   2.7973   3.1339   3.3395   3.5374   3.8611   3.9410
     5.8215   7.1375   7.4612   8.8314   9.9059

     occupation numbers 
     1.0000   1.0000   1.0000   1.0000   1.0000   1.0000   1.0000   1.0000
     1.0000   1.0000   1.0000   1.0000   1.0000   1.0000   1.0000   1.0000
     1.0000  -0.0000  -0.0000  -0.0000  -0.0000

          k =-1.9966-0.2862-0.0903 ( 12171 PWs)   bands (ev):

   -49.8584 -26.1441 -25.8017 -25.7124 -12.0942  -9.2480  -9.0764   1.2861
     1.9908   2.1002   2.3581   2.6675   3.1209   3.2404   3.8776   4.2176
     5.5907   7.8994   7.9210   8.9668  10.4736

     occupation numbers 
     1.0000   1.0000   1.0000   1.0000   1.0000   1.0000   1.0000   1.0000
     1.0000   1.0000   1.0000   1.0000   1.0000   1.0000   1.0000   1.0000
     1.0000  -0.0000  -0.0000  -0.0000  -0.0000

          k =-1.8302-0.1431-0.0903 ( 12141 PWs)   bands (ev):

   -49.8580 -26.1087 -25.8004 -25.7281 -12.3140  -9.2543  -9.0610   1.3745
     2.0149   2.5461   2.6405   2.9957   3.1139   3.5611   3.8352   3.9494
     5.8321   7.3366   7.5737   8.8575  10.1258

     occupation numbers 
     1.0000   1.0000   1.0000   1.0000   1.0000   1.0000   1.0000   1.0000
     1.0000   1.0000   1.0000   1.0000   1.0000   1.0000   1.0000   1.0000
     1.0000  -0.0000  -0.0000  -0.0000  -0.0000

          k =-1.6638-0.0000-0.0903 ( 12135 PWs)   bands (ev):

   -49.8556 -26.0929 -25.7939 -25.7682 -12.3736  -9.2133  -9.0006   1.3767
     1.7647   2.5111   2.7187   2.8429   3.4823   3.6962   3.7918   3.8254
     6.3545   6.9829   7.3242   8.6774   9.9577

     occupation numbers 
     1.0000   1.0000   1.0000   1.0000   1.0000   1.0000   1.0000   1.0000
     1.0000   1.0000   1.0000   1.0000   1.0000   1.0000   1.0000   1.0000
     1.0000  -0.0000  -0.0000  -0.0000  -0.0000

          k = 0.0000 1.2879-0.0451 ( 12182 PWs)   bands (ev):

   -49.8575 -26.1903 -25.8000 -25.7109 -11.7640  -9.1806  -9.1018   0.9801
     1.4008   1.6498   2.2780   2.6795   2.8726   2.9990   3.8160   4.3547
     5.6199   8.4096   8.5179   8.9621  10.7996

     occupation numbers 
     1.0000   1.0000   1.0000   1.0000   1.0000   1.0000   1.0000   1.0000
     1.0000   1.0000   1.0000   1.0000   1.0000   1.0000   1.0000   1.0000
     1.0000  -0.0000  -0.0000  -0.0000  -0.0000

          k =-1.8302-0.2862-0.0451 ( 12164 PWs)   bands (ev):

   -49.8574 -26.1429 -25.7992 -25.7270 -12.0866  -9.1939  -9.0914   1.3862
     1.9375   2.0738   2.1443   2.8889   2.9133   3.3054   3.6363   4.2367
     5.8519   7.8370   7.8880   8.8771  10.5484

     occupation numbers 
     1.0000   1.0000   1.0000   1.0000   1.0000   1.0000   1.0000   1.0000
     1.0000   1.0000   1.0000   1.0000   1.0000   1.0000   1.0000   1.0000
     1.0000  -0.0000  -0.0000  -0.0000  -0.0000

          k =-1.6638-0.1431-0.0451 ( 12133 PWs)   bands (ev):

   -49.8553 -26.1055 -25.7934 -25.7678 -12.2930  -9.1865  -9.0170   1.4633
     1.6572   2.5007   2.5636   2.6979   3.2835   3.4569   3.7289   4.0376
     6.3668   7.1798   7.4453   8.6890  10.1603

     occupation numbers 
     1.0000   1.0000   1.0000   1.0000   1.0000   1.0000   1.0000   1.0000
     1.0000   1.0000   1.0000   1.0000   1.0000   1.0000   1.0000   1.0000
     1.0000  -0.0000  -0.0000  -0.0000  -0.0000

          k =-1.4974-0.0000-0.0451 ( 12169 PWs)   bands (ev):

   -49.8519 -26.0887 -25.8220 -25.7843 -12.3448  -9.1450  -8.9117   1.2079
     1.5174   2.1191   2.6239   2.9187   3.6510   3.6592   3.7243   3.8967
     6.8187   6.9762   7.0998   8.6983   9.8794

     occupation numbers 
     1.0000   1.0000   1.0000   1.0000   1.0000   1.0000   1.0000   1.0000
     1.0000   1.0000   1.0000   1.0000   1.0000   1.0000   1.0000   1.0000
     0.5723  -0.0000  -0.0000  -0.0000  -0.0000

          k =-0.0000 1.1448-0.0000 ( 12185 PWs)   bands (ev):

   -49.8567 -26.2357 -25.7983 -25.7094 -11.4061  -9.1737  -9.0655   0.1742
     1.2252   1.2530   2.3956   2.6346   2.6774   2.8421   3.8225   4.3472
     5.6445   8.9366   8.9580   9.1041  10.9292

     occupation numbers 
     1.0000   1.0000   1.0000   1.0000   1.0000   1.0000   1.0000   1.0000
     1.0000   1.0000   1.0000   1.0000   1.0000   1.0000   1.0000   1.0000
     1.0000  -0.0000  -0.0000  -0.0000  -0.0000

          k = 0.1664 1.2879-0.0000 ( 12190 PWs)   bands (ev):

   -49.8566 -26.1890 -25.7975 -25.7255 -11.7567  -9.1225  -9.1198   0.9957
     1.4781   1.6375   2.0385   2.6306   2.8942   3.1616   3.5162   4.3413
     5.8731   8.3720   8.4603   8.8913  10.8809

     occupation numbers 
     1.0000   1.0000   1.0000   1.0000   1.0000   1.0000   1.0000   1.0000
     1.0000   1.0000   1.0000   1.0000   1.0000   1.0000   1.0000   1.0000
     1.0000  -0.0000  -0.0000  -0.0000  -0.0000

          k =-1.6638-0.2862-0.0000 ( 12170 PWs)   bands (ev):

   -49.8547 -26.1396 -25.7922 -25.7666 -12.0660  -9.1470  -9.0256   1.5037
     1.5463   2.0959   2.2225   2.4393   3.1184   3.1409   3.5516   4.2359
     6.3790   7.6831   7.7946   8.7221  10.5906

     occupation numbers 
     1.0000   1.0000   1.0000   1.0000   1.0000   1.0000   1.0000   1.0000
     1.0000   1.0000   1.0000   1.0000   1.0000   1.0000   1.0000   1.0000
     1.0000  -0.0000  -0.0000  -0.0000  -0.0000

          k =-1.4974-0.1431-0.0000 ( 12160 PWs)   bands (ev):

   -49.8517 -26.1012 -25.8216 -25.7838 -12.2644  -9.1333  -8.9123   1.2221
     1.5111   2.0558   2.5464   2.7578   3.3389   3.4518   3.7313   4.0697
     6.9767   7.0159   7.2533   8.7061  10.0780

     occupation numbers 
     1.0000   1.0000   1.0000   1.0000   1.0000   1.0000   1.0000   1.0000
     1.0000   1.0000   1.0000   1.0000   1.0000   1.0000   1.0000   1.0000
    -0.0000  -0.0000  -0.0000  -0.0000  -0.0000

          k =-1.3311-0.0000-0.0000 ( 12151 PWs)   bands (ev):

   -49.8483 -26.0844 -25.8753 -25.7747 -12.3160  -9.0864  -8.8095   1.0500
     1.0875   2.0373   2.4923   3.0250   3.6010   3.6572   3.8500   3.8621
     6.7144   6.8476   7.6326   8.9828   9.7433

     occupation numbers 
     1.0000   1.0000   1.0000   1.0000   1.0000   1.0000   1.0000   1.0000
     1.0000   1.0000   1.0000   1.0000   1.0000   1.0000   1.0000   1.0000
     1.0000  -0.0071  -0.0000  -0.0000  -0.0000

          k = 0.0000 0.0000 0.4513 ( 12116 PWs)   bands (ev):

   -49.8592 -26.0972 -25.8034 -25.7139 -12.4024  -9.2850  -9.0828   1.3510
     2.2179   2.6623   2.7746   3.3273   3.3441   3.3555   3.8255   4.0694
     5.5610   7.2013   7.5258   8.9801   9.8879

     occupation numbers 
     1.0000   1.0000   1.0000   1.0000   1.0000   1.0000   1.0000   1.0000
     1.0000   1.0000   1.0000   1.0000   1.0000   1.0000   1.0000   1.0000
     1.0000  -0.0000  -0.0000  -0.0000  -0.0000

          k =-1.9966-0.1431-0.0451 ( 12151 PWs)   bands (ev):

   -49.8590 -26.1099 -25.8030 -25.7135 -12.3216  -9.2406  -9.1177   1.4148
     2.1451   2.6100   2.6769   2.7579   3.2721   3.5610   3.8887   3.9831
     5.5698   7.4010   7.6287   8.9938  10.1097

     occupation numbers 
     1.0000   1.0000   1.0000   1.0000   1.0000   1.0000   1.0000   1.0000
     1.0000   1.0000   1.0000   1.0000   1.0000   1.0000   1.0000   1.0000
     1.0000  -0.0000  -0.0000  -0.0000  -0.0000

          k =-1.8302 0.0000-0.0451 ( 12123 PWs)   bands (ev):

   -49.8582 -26.0961 -25.8009 -25.7285 -12.3946  -9.2368  -9.0920   1.4754
     1.9288   2.6936   2.7890   3.0975   3.4104   3.5074   3.7862   3.9147
     5.8294   7.1360   7.4820   8.8692   9.9360

     occupation numbers 
     1.0000   1.0000   1.0000   1.0000   1.0000   1.0000   1.0000   1.0000
     1.0000   1.0000   1.0000   1.0000   1.0000   1.0000   1.0000   1.0000
     1.0000  -0.0000  -0.0000  -0.0000  -0.0000

          k = 0.0000 1.4311 0.0000 ( 12179 PWs)   bands (ev):

   -49.8584 -26.1441 -25.8017 -25.7124 -12.0941  -9.1865  -9.1404   1.3623
     2.0372   2.1143   2.2223   2.6830   3.1154   3.2090   3.8591   4.2275
     5.5928   7.8993   7.9280   8.9872  10.5134

     occupation numbers 
     1.0000   1.0000   1.0000   1.0000   1.0000   1.0000   1.0000   1.0000
     1.0000   1.0000   1.0000   1.0000   1.0000   1.0000   1.0000   1.0000
     1.0000  -0.0000  -0.0000  -0.0000  -0.0000

          k =-1.8302-0.1431 0.0000 ( 12161 PWs)   bands (ev):

   -49.8580 -26.1087 -25.8004 -25.7281 -12.3139  -9.2117  -9.1060   1.4943
     1.9019   2.5748   2.6201   3.0328   3.0631   3.5604   3.8201   3.9341
     5.8367   7.3361   7.5821   8.8765  10.1443

     occupation numbers 
     1.0000   1.0000   1.0000   1.0000   1.0000   1.0000   1.0000   1.0000
     1.0000   1.0000   1.0000   1.0000   1.0000   1.0000   1.0000   1.0000
     1.0000  -0.0000  -0.0000  -0.0000  -0.0000

          k =-1.6638 0.0000 0.0000 ( 12135 PWs)   bands (ev):

   -49.8556 -26.0929 -25.7939 -25.7682 -12.3735  -9.1919  -9.0234   1.5153
     1.6122   2.5484   2.6896   2.8374   3.5298   3.7441   3.7473   3.7742
     6.3668   6.9795   7.3297   8.6767   9.9503

     occupation numbers 
     1.0000   1.0000   1.0000   1.0000   1.0000   1.0000   1.0000   1.0000
     1.0000   1.0000   1.0000   1.0000   1.0000   1.0000   1.0000   1.0000
     1.0000  -0.0000  -0.0000  -0.0000  -0.0000

          k =-1.9966-1.7173-0.5415 ( 12132 PWs)   bands (ev):

   -49.8592 -26.0972 -25.8035 -25.7139 -12.4023  -9.2354  -9.1353   1.4673
     2.1036   2.6806   2.7712   3.3127   3.3324   3.3836   3.7818   4.0556
     5.5609   7.2014   7.5389   9.0036   9.9171

     occupation numbers 
     1.0000   1.0000   1.0000   1.0000   1.0000   1.0000   1.0000   1.0000
     1.0000   1.0000   1.0000   1.0000   1.0000   1.0000   1.0000   1.0000
     1.0000  -0.0000  -0.0000  -0.0000  -0.0000

     the Fermi energy is     6.8199 ev

!    total energy              =    -534.96719852 Ry

     total all-electron energy =     -9636.857441 Ry
     estimated scf accuracy    <          2.6E-11 Ry
     smearing contrib. (-TS)   =      -0.00000128 Ry
     internal energy E=F+TS    =    -534.96719724 Ry

     The total energy is F=E-TS. E is the sum of the following terms:
     one-electron contribution =     -93.94279986 Ry
     hartree contribution      =      61.21037634 Ry
     xc contribution           =     -39.53538751 Ry
     ewald contribution        =    -135.48921389 Ry
     one-center paw contrib.   =    -327.21017232 Ry
      -> PAW hartree energy AE =      29.09760044 Ry
      -> PAW hartree energy PS =     -29.06753324 Ry
      -> PAW xc energy AE      =     -17.03890830 Ry
      -> PAW xc energy PS      =       7.41476674 Ry
      -> total E_H with PAW    =      61.24044354 Ry
      -> total E_XC with PAW   =     -49.15952907 Ry

     convergence has been achieved in  13 iterations

     Forces acting on atoms (cartesian axes, Ry/au):

     atom    1 type  1   force =     0.00000000    0.00000000    0.00000000
     atom    2 type  2   force =     0.00000000    0.00000000    0.03609303
     atom    3 type  2   force =     0.00000000    0.00000000   -0.03609303
     atom    4 type  3   force =    -0.00000000   -0.00000000    0.00000000
     The non-local contrib.  to forces
     atom    1 type  1   force =     0.00000000    0.00000000    0.00000000
     atom    2 type  2   force =     0.00000000    0.00000000    0.06440368
     atom    3 type  2   force =     0.00000000    0.00000000   -0.06440368
     atom    4 type  3   force =     0.00000000    0.00000000    0.00000000
     The ionic contribution  to forces
     atom    1 type  1   force =    -0.00000000   -0.00000000    0.00000000
     atom    2 type  2   force =     0.00000001    0.00000000  -10.07462875
     atom    3 type  2   force =    -0.00000001   -0.00000000   10.07462875
     atom    4 type  3   force =    -0.00000000   -0.00000000    0.00000000
     The local contribution  to forces
     atom    1 type  1   force =     0.00000000    0.00000000    0.00000000
     atom    2 type  2   force =     0.00000002   -0.00000003   10.04479332
     atom    3 type  2   force =    -0.00000002    0.00000003  -10.04479332
     atom    4 type  3   force =     0.00000000    0.00000000    0.00000000
     The core correction contribution to forces
     atom    1 type  1   force =     0.00000000    0.00000000    0.00000000
     atom    2 type  2   force =    -0.00000000    0.00000000    0.00151759
     atom    3 type  2   force =     0.00000000   -0.00000000   -0.00151759
     atom    4 type  3   force =     0.00000000    0.00000000    0.00000000
     The Hubbard contrib.    to forces
     atom    1 type  1   force =     0.00000000    0.00000000    0.00000000
     atom    2 type  2   force =     0.00000000    0.00000000    0.00000000
     atom    3 type  2   force =     0.00000000    0.00000000    0.00000000
     atom    4 type  3   force =     0.00000000    0.00000000    0.00000000
     The SCF correction term to forces
     atom    1 type  1   force =    -0.00000000    0.00000000   -0.00000000
     atom    2 type  2   force =    -0.00000000    0.00000000    0.00000720
     atom    3 type  2   force =     0.00000000   -0.00000000   -0.00000720
     atom    4 type  3   force =     0.00000000   -0.00000000    0.00000000

     Total force =     0.051043     Total SCF correction =     0.000010


     Computing stress (Cartesian axis) and pressure

          total   stress  (Ry/bohr**3)                   (kbar)     P=      -39.28
  -0.00027808   0.00000000   0.00000000          -40.91        0.00        0.00
   0.00000000  -0.00025919   0.00000000            0.00      -38.13        0.00
   0.00000000   0.00000000  -0.00026387            0.00        0.00      -38.82

     kinetic stress (kbar)  14762.36      0.00      0.00
                                0.00  14818.13      0.00
                               -0.00      0.00  14769.03

     local   stress (kbar) -18906.28     -0.00      0.00
                               -0.00 -24204.18      0.00
                                0.00      0.00   4108.30

     nonloc. stress (kbar)   8010.08     -0.00     -0.00
                                0.00   7931.34     -0.00
                                0.00     -0.00   8006.01

     hartree stress (kbar)   8378.37      0.00     -0.00
                                0.00  10108.69      0.00
                               -0.00      0.00  -2053.68

     exc-cor stress (kbar)  -1130.89      0.00     -0.00
                                0.00  -1121.52     -0.00
                               -0.00     -0.00  -1130.52

     corecor stress (kbar)  -2029.42     -0.00      0.00
                               -0.00  -2029.14      0.00
                                0.00      0.00  -2029.25

     ewald   stress (kbar)  -9125.13      0.00     -0.00
                                0.00  -5541.44     -0.00
                               -0.00     -0.00 -21708.70

     hubbard stress (kbar)      0.00      0.00      0.00
                                0.00      0.00      0.00
                                0.00      0.00      0.00

     DFT-D   stress (kbar)      0.00      0.00      0.00
                                0.00      0.00      0.00
                                0.00      0.00      0.00

     XDM     stress (kbar)      0.00      0.00      0.00
                                0.00      0.00      0.00
                                0.00      0.00      0.00

     dft-nl  stress (kbar)      0.00      0.00      0.00
                                0.00      0.00      0.00
                                0.00      0.00      0.00

     TS-vdW  stress (kbar)      0.00      0.00      0.00
                                0.00      0.00      0.00
                                0.00      0.00      0.00



     Writing output data file /zfs_data/gutierre/Scratch/Cl2NbO/smearing/12x12x12/0.001/tmp/Cl2NbO.save/
 
     init_run     :      6.36s CPU      6.56s WALL (       1 calls)
     electrons    :    178.16s CPU    182.48s WALL (       1 calls)
     forces       :      1.02s CPU      1.02s WALL (       1 calls)
     stress       :      2.57s CPU      2.59s WALL (       1 calls)

     Called by init_run:
     wfcinit      :      5.16s CPU      5.32s WALL (       1 calls)
     wfcinit:atom :      0.04s CPU      0.04s WALL (     280 calls)
     wfcinit:wfcr :      4.96s CPU      5.11s WALL (     280 calls)
     potinit      :      0.36s CPU      0.38s WALL (       1 calls)
     hinit0       :      0.47s CPU      0.48s WALL (       1 calls)

     Called by electrons:
     c_bands      :    144.07s CPU    147.58s WALL (      13 calls)
     sum_band     :     30.87s CPU     31.59s WALL (      13 calls)
     v_of_rho     :      1.27s CPU      1.29s WALL (      14 calls)
     v_h          :      0.10s CPU      0.10s WALL (      14 calls)
     v_xc         :      1.33s CPU      1.36s WALL (      16 calls)
     newd         :      1.09s CPU      1.10s WALL (      14 calls)
     PAW_pot      :      0.72s CPU      0.74s WALL (      14 calls)
     mix_rho      :      0.18s CPU      0.19s WALL (      13 calls)

     Called by c_bands:
     init_us_2    :      2.00s CPU      2.10s WALL (    8120 calls)
     cegterg      :    139.88s CPU    143.11s WALL (    3640 calls)

     Called by sum_band:
     sum_band:wei :      0.10s CPU      0.10s WALL (      13 calls)
     sum_band:loo :     29.54s CPU     30.21s WALL (      13 calls)
     sum_band:buf :      0.29s CPU      0.30s WALL (    3640 calls)
     sum_band:ini :      0.94s CPU      0.97s WALL (    3640 calls)
     sum_band:cal :      0.97s CPU      0.98s WALL (    3640 calls)
     sum_band:bec :      0.11s CPU      0.11s WALL (    3640 calls)
     addusdens    :      1.07s CPU      1.11s WALL (      13 calls)
     addusd:skk   :      0.01s CPU      0.01s WALL (      39 calls)
     addusd:dgemm :      0.30s CPU      0.33s WALL (      39 calls)
     addusd:qvan2 :      0.72s CPU      0.72s WALL (      39 calls)

     Called by *egterg:
     cdiaghg      :      7.74s CPU      7.98s WALL (   13285 calls)
     cegterg:over :      2.70s CPU      2.78s WALL (    9645 calls)
     cegterg:upda :      0.83s CPU      0.85s WALL (    9645 calls)
     cegterg:last :      1.32s CPU      1.34s WALL (    7101 calls)
     h_psi        :    128.44s CPU    131.42s WALL (   13565 calls)
     s_psi        :      0.95s CPU      0.96s WALL (   13565 calls)
     g_psi        :      0.17s CPU      0.17s WALL (    9645 calls)

     Called by h_psi:
     h_psi:calbec :      3.10s CPU      3.18s WALL (   13565 calls)
     vloc_psi     :    123.46s CPU    126.30s WALL (   13565 calls)
     add_vuspsi   :      1.39s CPU      1.43s WALL (   13565 calls)

     General routines
     calbec       :      4.17s CPU      4.28s WALL (   18605 calls)
     fft          :      1.09s CPU      1.10s WALL (     205 calls)
     ffts         :      0.02s CPU      0.02s WALL (      27 calls)
     fftw         :    135.24s CPU    138.51s WALL (  460288 calls)
     interpolate  :      0.10s CPU      0.10s WALL (      14 calls)
 
     Parallel routines
     fft_scatt_xy :     17.85s CPU     18.14s WALL (  460520 calls)
     fft_scatt_yz :     59.26s CPU     60.72s WALL (  460520 calls)

     PAW routines
     PAW_pot      :      0.72s CPU      0.74s WALL (      14 calls)
     PAW_symme    :      0.02s CPU      0.02s WALL (      27 calls)
 
     PWSCF        :   3m10.12s CPU   3m18.18s WALL

 
   This run was terminated on:  17:40:50  18May2022            

=------------------------------------------------------------------------------=
   JOB DONE.
=------------------------------------------------------------------------------=
