
     Program PWSCF v.6.7MaX starts on 18May2022 at 17:46:32 

     This program is part of the open-source Quantum ESPRESSO suite
     for quantum simulation of materials; please cite
         "P. Giannozzi et al., J. Phys.:Condens. Matter 21 395502 (2009);
         "P. Giannozzi et al., J. Phys.:Condens. Matter 29 465901 (2017);
          URL http://www.quantum-espresso.org", 
     in publications or presentations arising from this work. More details at
     http://www.quantum-espresso.org/quote

     Parallel version (MPI), running on    48 processors

     MPI processes distributed on     1 nodes
     R & G space division:  proc/nbgrp/npool/nimage =      48
     Waiting for input...
     Reading input from standard input

     Current dimensions of program PWSCF are:
     Max number of different atomic species (ntypx) = 10
     Max number of k-points (npk) =  40000
     Max angular momentum in pseudopotentials (lmaxx) =  3
     file O.pbe-nl-kjpaw_psl.1.0.0.UPF: wavefunction(s)  2S 2P renormalized
     file Cl.pbe-nl-kjpaw_psl.1.0.0.UPF: wavefunction(s)  3S renormalized
     file Nb.pbe-spn-kjpaw_psl.1.0.0.UPF: wavefunction(s)  4S 4P 4D renormalized

     Subspace diagonalization in iterative solution of the eigenvalue problem:
     a serial algorithm will be used

     Message from routine setup:
     using ibrav=0 with symmetry is DISCOURAGED, use correct ibrav instead
 
     Parallelization info
     --------------------
     sticks:   dense  smooth     PW     G-vecs:    dense   smooth      PW
     Min         226      90     28                 8011     2025     357
     Max         227      91     29                 8013     2026     359
     Sum       10861    4353   1363               384583    97215   17183
 


     bravais-lattice index     =            0
     lattice parameter (alat)  =      12.6717  a.u.
     unit-cell volume          =     547.9313 (a.u.)^3
     number of atoms/cell      =            4
     number of atomic types    =            3
     number of electrons       =        33.00
     number of Kohn-Sham states=           21
     kinetic-energy cutoff     =     120.0000  Ry
     charge density cutoff     =    1200.0000  Ry
     scf convergence threshold =      1.0E-10
     mixing beta               =       0.7000
     number of iterations used =            8  plain     mixing
     Exchange-correlation= SLA  PW   PBX  PBC
                           (   1   4   3   4   0   0   0)

     celldm(1)=  12.671676  celldm(2)=   0.000000  celldm(3)=   0.000000
     celldm(4)=   0.000000  celldm(5)=   0.000000  celldm(6)=   0.000000

     crystal axes: (cart. coord. in units of alat)
               a(1) = (  -0.250426   0.291161   0.923316 )  
               a(2) = (   0.250426  -0.291161   0.923316 )  
               a(3) = (   0.250426   0.291161  -0.923316 )  

     reciprocal axes: (cart. coord. in units 2 pi/alat)
               b(1) = (  0.000000  1.717261  0.541527 )  
               b(2) = (  1.996594  0.000000  0.541527 )  
               b(3) = (  1.996594  1.717261  0.000000 )  


     PseudoPot. # 1 for O  read from file:
     /zfs_data/gutierre/Scratch/Cl2NbO/smearing/16x16x16/0.003/pseudo/O.pbe-nl-kjpaw_psl.1.0.0.UPF
     MD5 check sum: df3ddea38124b4e5de5e1084591730e4
     Pseudo is Projector augmented-wave + core cor, Zval =  6.0
     Generated using 'atomic' code by A. Dal Corso  v.6.7MaX
     Shape of augmentation charge: PSQ
     Using radial grid of 1095 points,  4 beta functions with: 
                l(1) =   0
                l(2) =   0
                l(3) =   1
                l(4) =   1
     Q(r) pseudized with 0 coefficients 


     PseudoPot. # 2 for Cl read from file:
     /zfs_data/gutierre/Scratch/Cl2NbO/smearing/16x16x16/0.003/pseudo/Cl.pbe-nl-kjpaw_psl.1.0.0.UPF
     MD5 check sum: 8cf6bde52c08f6236e0f72a8870677af
     Pseudo is Projector augmented-wave + core cor, Zval =  7.0
     Generated using 'atomic' code by A. Dal Corso  v.6.7MaX
     Shape of augmentation charge: PSQ
     Using radial grid of 1157 points,  4 beta functions with: 
                l(1) =   0
                l(2) =   0
                l(3) =   1
                l(4) =   1
     Q(r) pseudized with 0 coefficients 


     PseudoPot. # 3 for Nb read from file:
     /zfs_data/gutierre/Scratch/Cl2NbO/smearing/16x16x16/0.003/pseudo/Nb.pbe-spn-kjpaw_psl.1.0.0.UPF
     MD5 check sum: 1ec1a3aa7bf3cbf7f7e0d720422bce7a
     Pseudo is Projector augmented-wave + core cor, Zval = 13.0
     Generated using 'atomic' code by A. Dal Corso  v.6.7MaX
     Shape of augmentation charge: PSQ
     Using radial grid of 1227 points,  6 beta functions with: 
                l(1) =   0
                l(2) =   0
                l(3) =   1
                l(4) =   1
                l(5) =   2
                l(6) =   2
     Q(r) pseudized with 0 coefficients 


     atomic species   valence    mass     pseudopotential
        O              6.00    15.99940     O ( 1.00)
        Cl             7.00    35.45150     Cl( 1.00)
        Nb            13.00    92.90637     Nb( 1.00)

      8 Sym. Ops., with inversion, found


                                    s                        frac. trans.

      isym =  1     identity                                     

 cryst.   s( 1) = (     1          0          0      )
                  (     0          1          0      )
                  (     0          0          1      )

 cart.    s( 1) = (  1.0000000  0.0000000  0.0000000 )
                  (  0.0000000  1.0000000  0.0000000 )
                  (  0.0000000  0.0000000  1.0000000 )


      isym =  2     180 deg rotation - cart. axis [0,0,1]        

 cryst.   s( 2) = (     0          1          0      )
                  (     1          0          0      )
                  (    -1         -1         -1      )

 cart.    s( 2) = ( -1.0000000  0.0000000  0.0000000 )
                  (  0.0000000 -1.0000000  0.0000000 )
                  (  0.0000000  0.0000000  1.0000000 )


      isym =  3     180 deg rotation - cart. axis [0,1,0]        

 cryst.   s( 3) = (     0          0          1      )
                  (    -1         -1         -1      )
                  (     1          0          0      )

 cart.    s( 3) = ( -1.0000000  0.0000000  0.0000000 )
                  (  0.0000000  1.0000000  0.0000000 )
                  (  0.0000000  0.0000000 -1.0000000 )


      isym =  4     180 deg rotation - cart. axis [1,0,0]        

 cryst.   s( 4) = (    -1         -1         -1      )
                  (     0          0          1      )
                  (     0          1          0      )

 cart.    s( 4) = (  1.0000000  0.0000000  0.0000000 )
                  (  0.0000000 -1.0000000  0.0000000 )
                  (  0.0000000  0.0000000 -1.0000000 )


      isym =  5     inversion                                    

 cryst.   s( 5) = (    -1          0          0      )
                  (     0         -1          0      )
                  (     0          0         -1      )

 cart.    s( 5) = ( -1.0000000  0.0000000  0.0000000 )
                  (  0.0000000 -1.0000000  0.0000000 )
                  (  0.0000000  0.0000000 -1.0000000 )


      isym =  6     inv. 180 deg rotation - cart. axis [0,0,1]   

 cryst.   s( 6) = (     0         -1          0      )
                  (    -1          0          0      )
                  (     1          1          1      )

 cart.    s( 6) = (  1.0000000  0.0000000  0.0000000 )
                  (  0.0000000  1.0000000  0.0000000 )
                  (  0.0000000  0.0000000 -1.0000000 )


      isym =  7     inv. 180 deg rotation - cart. axis [0,1,0]   

 cryst.   s( 7) = (     0          0         -1      )
                  (     1          1          1      )
                  (    -1          0          0      )

 cart.    s( 7) = (  1.0000000  0.0000000  0.0000000 )
                  (  0.0000000 -1.0000000  0.0000000 )
                  (  0.0000000  0.0000000  1.0000000 )


      isym =  8     inv. 180 deg rotation - cart. axis [1,0,0]   

 cryst.   s( 8) = (     1          1          1      )
                  (     0          0         -1      )
                  (     0         -1          0      )

 cart.    s( 8) = ( -1.0000000  0.0000000  0.0000000 )
                  (  0.0000000  1.0000000  0.0000000 )
                  (  0.0000000  0.0000000  1.0000000 )


   Cartesian axes

     site n.     atom                  positions (alat units)
         1           O   tau(   1) = (   0.0000000   0.2911613   0.0000000  )
         2           Cl  tau(   2) = (  -0.0000000   0.2911613   0.6365338  )
         3           Cl  tau(   3) = (   0.2504264  -0.0000000   0.2867819  )
         4           Nb  tau(   4) = (   0.0000000   0.0000000   0.0000000  )

   Crystallographic axes

     site n.     atom                  positions (cryst. coord.)
         1           O   tau(   1) = (  0.5000000  0.0000000  0.5000000  )
         2           Cl  tau(   2) = (  0.8447000  0.3447000  0.5000000  )
         3           Cl  tau(   3) = (  0.1553000  0.6553000  0.5000000  )
         4           Nb  tau(   4) = (  0.0000000  0.0000000  0.0000000  )

     number of k points=   621  Methfessel-Paxton smearing, width (Ry)=  0.0030
                       cart. coord. in units 2pi/alat
        k(    1) = (   0.0000000   0.0000000   0.0000000), wk =   0.0004883
        k(    2) = (   0.1247871   0.1073288   0.0000000), wk =   0.0019531
        k(    3) = (   0.2495743   0.2146577   0.0000000), wk =   0.0019531
        k(    4) = (   0.3743614   0.3219865   0.0000000), wk =   0.0019531
        k(    5) = (   0.4991486   0.4293153   0.0000000), wk =   0.0019531
        k(    6) = (   0.6239357   0.5366442   0.0000000), wk =   0.0019531
        k(    7) = (   0.7487229   0.6439730   0.0000000), wk =   0.0019531
        k(    8) = (   0.8735100   0.7513018   0.0000000), wk =   0.0019531
        k(    9) = (  -0.9982971  -0.8586307   0.0000000), wk =   0.0009766
        k(   10) = (   0.1247871   0.0000000   0.0338454), wk =   0.0019531
        k(   11) = (   0.2495743   0.1073288   0.0338454), wk =   0.0039062
        k(   12) = (   0.3743614   0.2146577   0.0338454), wk =   0.0039062
        k(   13) = (   0.4991486   0.3219865   0.0338454), wk =   0.0039062
        k(   14) = (   0.6239357   0.4293153   0.0338454), wk =   0.0039062
        k(   15) = (   0.7487229   0.5366442   0.0338454), wk =   0.0039062
        k(   16) = (   0.8735100   0.6439730   0.0338454), wk =   0.0039062
        k(   17) = (   0.9982971   0.7513018   0.0338454), wk =   0.0039062
        k(   18) = (  -0.8735100  -0.8586307   0.0338454), wk =   0.0039062
        k(   19) = (  -0.7487229  -0.7513018   0.0338454), wk =   0.0039062
        k(   20) = (  -0.6239357  -0.6439730   0.0338454), wk =   0.0039062
        k(   21) = (  -0.4991486  -0.5366442   0.0338454), wk =   0.0039062
        k(   22) = (  -0.3743614  -0.4293153   0.0338454), wk =   0.0039062
        k(   23) = (  -0.2495743  -0.3219865   0.0338454), wk =   0.0039062
        k(   24) = (  -0.1247871  -0.2146577   0.0338454), wk =   0.0039062
        k(   25) = (   0.0000000  -0.1073288   0.0338454), wk =   0.0019531
        k(   26) = (   0.2495743   0.0000000   0.0676908), wk =   0.0019531
        k(   27) = (   0.3743614   0.1073288   0.0676908), wk =   0.0039062
        k(   28) = (   0.4991486   0.2146577   0.0676908), wk =   0.0039062
        k(   29) = (   0.6239357   0.3219865   0.0676908), wk =   0.0039062
        k(   30) = (   0.7487229   0.4293153   0.0676908), wk =   0.0039062
        k(   31) = (   0.8735100   0.5366442   0.0676908), wk =   0.0039062
        k(   32) = (   0.9982971   0.6439730   0.0676908), wk =   0.0039062
        k(   33) = (   1.1230843   0.7513018   0.0676908), wk =   0.0039062
        k(   34) = (  -0.7487229  -0.8586307   0.0676908), wk =   0.0039062
        k(   35) = (  -0.6239357  -0.7513018   0.0676908), wk =   0.0039062
        k(   36) = (  -0.4991486  -0.6439730   0.0676908), wk =   0.0039062
        k(   37) = (  -0.3743614  -0.5366442   0.0676908), wk =   0.0039062
        k(   38) = (  -0.2495743  -0.4293153   0.0676908), wk =   0.0039062
        k(   39) = (  -0.1247871  -0.3219865   0.0676908), wk =   0.0039062
        k(   40) = (   0.0000000  -0.2146577   0.0676908), wk =   0.0019531
        k(   41) = (   0.1247871  -0.1073288   0.0676908), wk =   0.0039062
        k(   42) = (   0.3743614   0.0000000   0.1015362), wk =   0.0019531
        k(   43) = (   0.4991486   0.1073288   0.1015362), wk =   0.0039062
        k(   44) = (   0.6239357   0.2146577   0.1015362), wk =   0.0039062
        k(   45) = (   0.7487229   0.3219865   0.1015362), wk =   0.0039062
        k(   46) = (   0.8735100   0.4293153   0.1015362), wk =   0.0039062
        k(   47) = (   0.9982971   0.5366442   0.1015362), wk =   0.0039062
        k(   48) = (   1.1230843   0.6439730   0.1015362), wk =   0.0039062
        k(   49) = (   1.2478714   0.7513018   0.1015362), wk =   0.0039062
        k(   50) = (  -0.6239357  -0.8586307   0.1015362), wk =   0.0039062
        k(   51) = (  -0.4991486  -0.7513018   0.1015362), wk =   0.0039062
        k(   52) = (  -0.3743614  -0.6439730   0.1015362), wk =   0.0039062
        k(   53) = (  -0.2495743  -0.5366442   0.1015362), wk =   0.0039062
        k(   54) = (  -0.1247871  -0.4293153   0.1015362), wk =   0.0039062
        k(   55) = (   0.0000000  -0.3219865   0.1015362), wk =   0.0019531
        k(   56) = (   0.1247871  -0.2146577   0.1015362), wk =   0.0039062
        k(   57) = (   0.2495743  -0.1073288   0.1015362), wk =   0.0039062
        k(   58) = (   0.4991486   0.0000000   0.1353817), wk =   0.0019531
        k(   59) = (   0.6239357   0.1073288   0.1353817), wk =   0.0039062
        k(   60) = (   0.7487229   0.2146577   0.1353817), wk =   0.0039062
        k(   61) = (   0.8735100   0.3219865   0.1353817), wk =   0.0039062
        k(   62) = (   0.9982971   0.4293153   0.1353817), wk =   0.0039062
        k(   63) = (   1.1230843   0.5366442   0.1353817), wk =   0.0039062
        k(   64) = (   1.2478714   0.6439730   0.1353817), wk =   0.0039062
        k(   65) = (   1.3726586   0.7513018   0.1353817), wk =   0.0039062
        k(   66) = (  -0.4991486  -0.8586307   0.1353817), wk =   0.0039062
        k(   67) = (  -0.3743614  -0.7513018   0.1353817), wk =   0.0039062
        k(   68) = (  -0.2495743  -0.6439730   0.1353817), wk =   0.0039062
        k(   69) = (  -0.1247871  -0.5366442   0.1353817), wk =   0.0039062
        k(   70) = (   0.0000000  -0.4293153   0.1353817), wk =   0.0019531
        k(   71) = (   0.1247871  -0.3219865   0.1353817), wk =   0.0039062
        k(   72) = (   0.2495743  -0.2146577   0.1353817), wk =   0.0039062
        k(   73) = (   0.3743614  -0.1073288   0.1353817), wk =   0.0039062
        k(   74) = (   0.6239357   0.0000000   0.1692271), wk =   0.0019531
        k(   75) = (   0.7487229   0.1073288   0.1692271), wk =   0.0039062
        k(   76) = (   0.8735100   0.2146577   0.1692271), wk =   0.0039062
        k(   77) = (   0.9982971   0.3219865   0.1692271), wk =   0.0039062
        k(   78) = (   1.1230843   0.4293153   0.1692271), wk =   0.0039062
        k(   79) = (   1.2478714   0.5366442   0.1692271), wk =   0.0039062
        k(   80) = (   1.3726586   0.6439730   0.1692271), wk =   0.0039062
        k(   81) = (   1.4974457   0.7513018   0.1692271), wk =   0.0039062
        k(   82) = (  -0.3743614  -0.8586307   0.1692271), wk =   0.0039062
        k(   83) = (  -0.2495743  -0.7513018   0.1692271), wk =   0.0039062
        k(   84) = (  -0.1247871  -0.6439730   0.1692271), wk =   0.0039062
        k(   85) = (   0.0000000  -0.5366442   0.1692271), wk =   0.0019531
        k(   86) = (   0.1247871  -0.4293153   0.1692271), wk =   0.0039062
        k(   87) = (   0.2495743  -0.3219865   0.1692271), wk =   0.0039062
        k(   88) = (   0.3743614  -0.2146577   0.1692271), wk =   0.0039062
        k(   89) = (   0.4991486  -0.1073288   0.1692271), wk =   0.0039062
        k(   90) = (   0.7487229   0.0000000   0.2030725), wk =   0.0019531
        k(   91) = (   0.8735100   0.1073288   0.2030725), wk =   0.0039062
        k(   92) = (   0.9982971   0.2146577   0.2030725), wk =   0.0039062
        k(   93) = (   1.1230843   0.3219865   0.2030725), wk =   0.0039062
        k(   94) = (   1.2478714   0.4293153   0.2030725), wk =   0.0039062
        k(   95) = (   1.3726586   0.5366442   0.2030725), wk =   0.0039062
        k(   96) = (   1.4974457   0.6439730   0.2030725), wk =   0.0039062
        k(   97) = (   1.6222329   0.7513018   0.2030725), wk =   0.0039062
        k(   98) = (  -0.2495743  -0.8586307   0.2030725), wk =   0.0039062
        k(   99) = (  -0.1247871  -0.7513018   0.2030725), wk =   0.0039062
        k(  100) = (   0.0000000  -0.6439730   0.2030725), wk =   0.0019531
        k(  101) = (   0.1247871  -0.5366442   0.2030725), wk =   0.0039062
        k(  102) = (   0.2495743  -0.4293153   0.2030725), wk =   0.0039062
        k(  103) = (   0.3743614  -0.3219865   0.2030725), wk =   0.0039062
        k(  104) = (   0.4991486  -0.2146577   0.2030725), wk =   0.0039062
        k(  105) = (   0.6239357  -0.1073288   0.2030725), wk =   0.0039062
        k(  106) = (   0.8735100   0.0000000   0.2369179), wk =   0.0019531
        k(  107) = (   0.9982971   0.1073288   0.2369179), wk =   0.0039062
        k(  108) = (   1.1230843   0.2146577   0.2369179), wk =   0.0039062
        k(  109) = (   1.2478714   0.3219865   0.2369179), wk =   0.0039062
        k(  110) = (   1.3726586   0.4293153   0.2369179), wk =   0.0039062
        k(  111) = (   1.4974457   0.5366442   0.2369179), wk =   0.0039062
        k(  112) = (   1.6222329   0.6439730   0.2369179), wk =   0.0039062
        k(  113) = (   1.7470200   0.7513018   0.2369179), wk =   0.0039062
        k(  114) = (  -0.1247871  -0.8586307   0.2369179), wk =   0.0039062
        k(  115) = (   0.0000000  -0.7513018   0.2369179), wk =   0.0019531
        k(  116) = (   0.1247871  -0.6439730   0.2369179), wk =   0.0039062
        k(  117) = (   0.2495743  -0.5366442   0.2369179), wk =   0.0039062
        k(  118) = (   0.3743614  -0.4293153   0.2369179), wk =   0.0039062
        k(  119) = (   0.4991486  -0.3219865   0.2369179), wk =   0.0039062
        k(  120) = (   0.6239357  -0.2146577   0.2369179), wk =   0.0039062
        k(  121) = (   0.7487229  -0.1073288   0.2369179), wk =   0.0039062
        k(  122) = (  -0.9982971   0.0000000  -0.2707633), wk =   0.0009766
        k(  123) = (  -0.8735100   0.1073288  -0.2707633), wk =   0.0039062
        k(  124) = (  -0.7487229   0.2146577  -0.2707633), wk =   0.0039062
        k(  125) = (  -0.6239357   0.3219865  -0.2707633), wk =   0.0039062
        k(  126) = (  -0.4991486   0.4293153  -0.2707633), wk =   0.0039062
        k(  127) = (  -0.3743614   0.5366442  -0.2707633), wk =   0.0039062
        k(  128) = (  -0.2495743   0.6439730  -0.2707633), wk =   0.0039062
        k(  129) = (  -0.1247871   0.7513018  -0.2707633), wk =   0.0039062
        k(  130) = (  -1.9965943  -0.8586307  -0.2707633), wk =   0.0009766
        k(  131) = (   0.2495743   0.2146577   0.0676908), wk =   0.0039062
        k(  132) = (   0.3743614   0.3219865   0.0676908), wk =   0.0039062
        k(  133) = (   0.4991486   0.4293153   0.0676908), wk =   0.0039062
        k(  134) = (   0.6239357   0.5366442   0.0676908), wk =   0.0039062
        k(  135) = (   0.7487229   0.6439730   0.0676908), wk =   0.0039062
        k(  136) = (   0.8735100   0.7513018   0.0676908), wk =   0.0039062
        k(  137) = (   0.9982971   0.8586307   0.0676908), wk =   0.0019531
        k(  138) = (   0.0000000   0.0000000   0.0676908), wk =   0.0009766
        k(  139) = (   0.3743614   0.2146577   0.1015362), wk =   0.0039062
        k(  140) = (   0.4991486   0.3219865   0.1015362), wk =   0.0039062
        k(  141) = (   0.6239357   0.4293153   0.1015362), wk =   0.0039062
        k(  142) = (   0.7487229   0.5366442   0.1015362), wk =   0.0039062
        k(  143) = (   0.8735100   0.6439730   0.1015362), wk =   0.0039062
        k(  144) = (   0.9982971   0.7513018   0.1015362), wk =   0.0039062
        k(  145) = (   1.1230843   0.8586307   0.1015362), wk =   0.0039062
        k(  146) = (  -0.7487229  -0.7513018   0.1015362), wk =   0.0039062
        k(  147) = (  -0.6239357  -0.6439730   0.1015362), wk =   0.0039062
        k(  148) = (  -0.4991486  -0.5366442   0.1015362), wk =   0.0039062
        k(  149) = (  -0.3743614  -0.4293153   0.1015362), wk =   0.0039062
        k(  150) = (  -0.2495743  -0.3219865   0.1015362), wk =   0.0039062
        k(  151) = (   0.0000000  -0.1073288   0.1015362), wk =   0.0019531
        k(  152) = (   0.1247871   0.0000000   0.1015362), wk =   0.0019531
        k(  153) = (   0.4991486   0.2146577   0.1353817), wk =   0.0039062
        k(  154) = (   0.6239357   0.3219865   0.1353817), wk =   0.0039062
        k(  155) = (   0.7487229   0.4293153   0.1353817), wk =   0.0039062
        k(  156) = (   0.8735100   0.5366442   0.1353817), wk =   0.0039062
        k(  157) = (   0.9982971   0.6439730   0.1353817), wk =   0.0039062
        k(  158) = (   1.1230843   0.7513018   0.1353817), wk =   0.0039062
        k(  159) = (   1.2478714   0.8586307   0.1353817), wk =   0.0039062
        k(  160) = (  -0.6239357  -0.7513018   0.1353817), wk =   0.0039062
        k(  161) = (  -0.4991486  -0.6439730   0.1353817), wk =   0.0039062
        k(  162) = (  -0.3743614  -0.5366442   0.1353817), wk =   0.0039062
        k(  163) = (  -0.2495743  -0.4293153   0.1353817), wk =   0.0039062
        k(  164) = (   0.0000000  -0.2146577   0.1353817), wk =   0.0019531
        k(  165) = (   0.1247871  -0.1073288   0.1353817), wk =   0.0039062
        k(  166) = (   0.2495743   0.0000000   0.1353817), wk =   0.0019531
        k(  167) = (   0.6239357   0.2146577   0.1692271), wk =   0.0039062
        k(  168) = (   0.7487229   0.3219865   0.1692271), wk =   0.0039062
        k(  169) = (   0.8735100   0.4293153   0.1692271), wk =   0.0039062
        k(  170) = (   0.9982971   0.5366442   0.1692271), wk =   0.0039062
        k(  171) = (   1.1230843   0.6439730   0.1692271), wk =   0.0039062
        k(  172) = (   1.2478714   0.7513018   0.1692271), wk =   0.0039062
        k(  173) = (   1.3726586   0.8586307   0.1692271), wk =   0.0039062
        k(  174) = (  -0.4991486  -0.7513018   0.1692271), wk =   0.0039062
        k(  175) = (  -0.3743614  -0.6439730   0.1692271), wk =   0.0039062
        k(  176) = (  -0.2495743  -0.5366442   0.1692271), wk =   0.0039062
        k(  177) = (   0.0000000  -0.3219865   0.1692271), wk =   0.0019531
        k(  178) = (   0.1247871  -0.2146577   0.1692271), wk =   0.0039062
        k(  179) = (   0.2495743  -0.1073288   0.1692271), wk =   0.0039062
        k(  180) = (   0.3743614   0.0000000   0.1692271), wk =   0.0019531
        k(  181) = (   0.7487229   0.2146577   0.2030725), wk =   0.0039062
        k(  182) = (   0.8735100   0.3219865   0.2030725), wk =   0.0039062
        k(  183) = (   0.9982971   0.4293153   0.2030725), wk =   0.0039062
        k(  184) = (   1.1230843   0.5366442   0.2030725), wk =   0.0039062
        k(  185) = (   1.2478714   0.6439730   0.2030725), wk =   0.0039062
        k(  186) = (   1.3726586   0.7513018   0.2030725), wk =   0.0039062
        k(  187) = (   1.4974457   0.8586307   0.2030725), wk =   0.0039062
        k(  188) = (  -0.3743614  -0.7513018   0.2030725), wk =   0.0039062
        k(  189) = (  -0.2495743  -0.6439730   0.2030725), wk =   0.0039062
        k(  190) = (   0.0000000  -0.4293153   0.2030725), wk =   0.0019531
        k(  191) = (   0.1247871  -0.3219865   0.2030725), wk =   0.0039062
        k(  192) = (   0.2495743  -0.2146577   0.2030725), wk =   0.0039062
        k(  193) = (   0.3743614  -0.1073288   0.2030725), wk =   0.0039062
        k(  194) = (   0.4991486   0.0000000   0.2030725), wk =   0.0019531
        k(  195) = (   0.8735100   0.2146577   0.2369179), wk =   0.0039062
        k(  196) = (   0.9982971   0.3219865   0.2369179), wk =   0.0039062
        k(  197) = (   1.1230843   0.4293153   0.2369179), wk =   0.0039062
        k(  198) = (   1.2478714   0.5366442   0.2369179), wk =   0.0039062
        k(  199) = (   1.3726586   0.6439730   0.2369179), wk =   0.0039062
        k(  200) = (   1.4974457   0.7513018   0.2369179), wk =   0.0039062
        k(  201) = (   1.6222329   0.8586307   0.2369179), wk =   0.0039062
        k(  202) = (  -0.2495743  -0.7513018   0.2369179), wk =   0.0039062
        k(  203) = (   0.0000000  -0.5366442   0.2369179), wk =   0.0019531
        k(  204) = (   0.1247871  -0.4293153   0.2369179), wk =   0.0039062
        k(  205) = (   0.2495743  -0.3219865   0.2369179), wk =   0.0039062
        k(  206) = (   0.3743614  -0.2146577   0.2369179), wk =   0.0039062
        k(  207) = (   0.4991486  -0.1073288   0.2369179), wk =   0.0039062
        k(  208) = (   0.6239357   0.0000000   0.2369179), wk =   0.0019531
        k(  209) = (   0.9982971   0.2146577   0.2707633), wk =   0.0019531
        k(  210) = (   1.1230843   0.3219865   0.2707633), wk =   0.0039062
        k(  211) = (   1.2478714   0.4293153   0.2707633), wk =   0.0039062
        k(  212) = (   1.3726586   0.5366442   0.2707633), wk =   0.0039062
        k(  213) = (   1.4974457   0.6439730   0.2707633), wk =   0.0039062
        k(  214) = (   1.6222329   0.7513018   0.2707633), wk =   0.0039062
        k(  215) = (   1.7470200   0.8586307   0.2707633), wk =   0.0019531
        k(  216) = (   0.0000000  -0.6439730   0.2707633), wk =   0.0019531
        k(  217) = (   0.1247871  -0.5366442   0.2707633), wk =   0.0039062
        k(  218) = (   0.2495743  -0.4293153   0.2707633), wk =   0.0039062
        k(  219) = (   0.3743614  -0.3219865   0.2707633), wk =   0.0039062
        k(  220) = (   0.4991486  -0.2146577   0.2707633), wk =   0.0039062
        k(  221) = (   0.6239357  -0.1073288   0.2707633), wk =   0.0039062
        k(  222) = (   0.7487229   0.0000000   0.2707633), wk =   0.0019531
        k(  223) = (  -0.7487229   0.3219865  -0.2369179), wk =   0.0039062
        k(  224) = (  -0.6239357   0.4293153  -0.2369179), wk =   0.0039062
        k(  225) = (  -0.4991486   0.5366442  -0.2369179), wk =   0.0039062
        k(  226) = (  -0.3743614   0.6439730  -0.2369179), wk =   0.0039062
        k(  227) = (  -1.9965943  -0.7513018  -0.2369179), wk =   0.0019531
        k(  228) = (  -1.8718071  -0.6439730  -0.2369179), wk =   0.0039062
        k(  229) = (  -1.7470200  -0.5366442  -0.2369179), wk =   0.0039062
        k(  230) = (  -1.6222329  -0.4293153  -0.2369179), wk =   0.0039062
        k(  231) = (  -1.4974457  -0.3219865  -0.2369179), wk =   0.0039062
        k(  232) = (  -1.3726586  -0.2146577  -0.2369179), wk =   0.0039062
        k(  233) = (  -1.2478714  -0.1073288  -0.2369179), wk =   0.0039062
        k(  234) = (  -1.1230843   0.0000000  -0.2369179), wk =   0.0019531
        k(  235) = (  -0.6239357   0.3219865  -0.2030725), wk =   0.0039062
        k(  236) = (  -0.4991486   0.4293153  -0.2030725), wk =   0.0039062
        k(  237) = (  -0.3743614   0.5366442  -0.2030725), wk =   0.0039062
        k(  238) = (   0.0000000   0.8586307  -0.2030725), wk =   0.0019531
        k(  239) = (  -1.8718071  -0.7513018  -0.2030725), wk =   0.0039062
        k(  240) = (  -1.7470200  -0.6439730  -0.2030725), wk =   0.0039062
        k(  241) = (  -1.6222329  -0.5366442  -0.2030725), wk =   0.0039062
        k(  242) = (  -1.4974457  -0.4293153  -0.2030725), wk =   0.0039062
        k(  243) = (  -1.3726586  -0.3219865  -0.2030725), wk =   0.0039062
        k(  244) = (  -1.2478714  -0.2146577  -0.2030725), wk =   0.0039062
        k(  245) = (  -1.1230843  -0.1073288  -0.2030725), wk =   0.0039062
        k(  246) = (  -0.9982971   0.0000000  -0.2030725), wk =   0.0019531
        k(  247) = (  -0.4991486   0.3219865  -0.1692271), wk =   0.0039062
        k(  248) = (  -0.3743614   0.4293153  -0.1692271), wk =   0.0039062
        k(  249) = (   0.0000000   0.7513018  -0.1692271), wk =   0.0019531
        k(  250) = (   0.1247871   0.8586307  -0.1692271), wk =   0.0039062
        k(  251) = (  -1.7470200  -0.7513018  -0.1692271), wk =   0.0039062
        k(  252) = (  -1.6222329  -0.6439730  -0.1692271), wk =   0.0039062
        k(  253) = (  -1.4974457  -0.5366442  -0.1692271), wk =   0.0039062
        k(  254) = (  -1.3726586  -0.4293153  -0.1692271), wk =   0.0039062
        k(  255) = (  -1.2478714  -0.3219865  -0.1692271), wk =   0.0039062
        k(  256) = (  -1.1230843  -0.2146577  -0.1692271), wk =   0.0039062
        k(  257) = (  -0.9982971  -0.1073288  -0.1692271), wk =   0.0039062
        k(  258) = (  -0.8735100   0.0000000  -0.1692271), wk =   0.0019531
        k(  259) = (  -0.3743614   0.3219865  -0.1353817), wk =   0.0039062
        k(  260) = (   0.0000000   0.6439730  -0.1353817), wk =   0.0019531
        k(  261) = (   0.1247871   0.7513018  -0.1353817), wk =   0.0039062
        k(  262) = (   0.2495743   0.8586307  -0.1353817), wk =   0.0039062
        k(  263) = (  -1.6222329  -0.7513018  -0.1353817), wk =   0.0039062
        k(  264) = (  -1.4974457  -0.6439730  -0.1353817), wk =   0.0039062
        k(  265) = (  -1.3726586  -0.5366442  -0.1353817), wk =   0.0039062
        k(  266) = (  -1.2478714  -0.4293153  -0.1353817), wk =   0.0039062
        k(  267) = (  -1.1230843  -0.3219865  -0.1353817), wk =   0.0039062
        k(  268) = (  -0.9982971  -0.2146577  -0.1353817), wk =   0.0039062
        k(  269) = (  -0.8735100  -0.1073288  -0.1353817), wk =   0.0039062
        k(  270) = (  -0.7487229   0.0000000  -0.1353817), wk =   0.0019531
        k(  271) = (   0.0000000   0.5366442  -0.1015362), wk =   0.0019531
        k(  272) = (   0.1247871   0.6439730  -0.1015362), wk =   0.0039062
        k(  273) = (   0.2495743   0.7513018  -0.1015362), wk =   0.0039062
        k(  274) = (   0.3743614   0.8586307  -0.1015362), wk =   0.0039062
        k(  275) = (  -1.4974457  -0.7513018  -0.1015362), wk =   0.0039062
        k(  276) = (  -1.3726586  -0.6439730  -0.1015362), wk =   0.0039062
        k(  277) = (  -1.2478714  -0.5366442  -0.1015362), wk =   0.0039062
        k(  278) = (  -1.1230843  -0.4293153  -0.1015362), wk =   0.0039062
        k(  279) = (  -0.9982971  -0.3219865  -0.1015362), wk =   0.0039062
        k(  280) = (  -0.8735100  -0.2146577  -0.1015362), wk =   0.0039062
        k(  281) = (  -0.7487229  -0.1073288  -0.1015362), wk =   0.0039062
        k(  282) = (  -0.6239357   0.0000000  -0.1015362), wk =   0.0019531
        k(  283) = (   0.0000000   0.4293153  -0.0676908), wk =   0.0019531
        k(  284) = (   0.1247871   0.5366442  -0.0676908), wk =   0.0039062
        k(  285) = (   0.2495743   0.6439730  -0.0676908), wk =   0.0039062
        k(  286) = (   0.3743614   0.7513018  -0.0676908), wk =   0.0039062
        k(  287) = (   0.4991486   0.8586307  -0.0676908), wk =   0.0039062
        k(  288) = (  -1.3726586  -0.7513018  -0.0676908), wk =   0.0039062
        k(  289) = (  -1.2478714  -0.6439730  -0.0676908), wk =   0.0039062
        k(  290) = (  -1.1230843  -0.5366442  -0.0676908), wk =   0.0039062
        k(  291) = (  -0.9982971  -0.4293153  -0.0676908), wk =   0.0039062
        k(  292) = (  -0.8735100  -0.3219865  -0.0676908), wk =   0.0039062
        k(  293) = (  -0.7487229  -0.2146577  -0.0676908), wk =   0.0039062
        k(  294) = (  -0.6239357  -0.1073288  -0.0676908), wk =   0.0039062
        k(  295) = (  -0.4991486   0.0000000  -0.0676908), wk =   0.0019531
        k(  296) = (   0.0000000   0.3219865  -0.0338454), wk =   0.0019531
        k(  297) = (   0.1247871   0.4293153  -0.0338454), wk =   0.0039062
        k(  298) = (   0.2495743   0.5366442  -0.0338454), wk =   0.0039062
        k(  299) = (   0.3743614   0.6439730  -0.0338454), wk =   0.0039062
        k(  300) = (   0.4991486   0.7513018  -0.0338454), wk =   0.0039062
        k(  301) = (   0.6239357   0.8586307  -0.0338454), wk =   0.0039062
        k(  302) = (  -1.2478714  -0.7513018  -0.0338454), wk =   0.0039062
        k(  303) = (  -1.1230843  -0.6439730  -0.0338454), wk =   0.0039062
        k(  304) = (  -0.9982971  -0.5366442  -0.0338454), wk =   0.0039062
        k(  305) = (  -0.8735100  -0.4293153  -0.0338454), wk =   0.0039062
        k(  306) = (  -0.7487229  -0.3219865  -0.0338454), wk =   0.0039062
        k(  307) = (  -0.6239357  -0.2146577  -0.0338454), wk =   0.0039062
        k(  308) = (  -0.4991486  -0.1073288  -0.0338454), wk =   0.0039062
        k(  309) = (  -0.3743614   0.0000000  -0.0338454), wk =   0.0019531
        k(  310) = (   0.0000000   0.2146577   0.0000000), wk =   0.0009766
        k(  311) = (   0.1247871   0.3219865   0.0000000), wk =   0.0019531
        k(  312) = (   0.2495743   0.4293153   0.0000000), wk =   0.0019531
        k(  313) = (   0.3743614   0.5366442   0.0000000), wk =   0.0019531
        k(  314) = (   0.4991486   0.6439730   0.0000000), wk =   0.0019531
        k(  315) = (   0.6239357   0.7513018   0.0000000), wk =   0.0019531
        k(  316) = (   0.7487229   0.8586307   0.0000000), wk =   0.0019531
        k(  317) = (  -1.1230843  -0.7513018   0.0000000), wk =   0.0019531
        k(  318) = (  -0.9982971  -0.6439730   0.0000000), wk =   0.0019531
        k(  319) = (  -0.8735100  -0.5366442   0.0000000), wk =   0.0019531
        k(  320) = (  -0.7487229  -0.4293153   0.0000000), wk =   0.0019531
        k(  321) = (  -0.6239357  -0.3219865   0.0000000), wk =   0.0019531
        k(  322) = (  -0.4991486  -0.2146577   0.0000000), wk =   0.0019531
        k(  323) = (  -0.3743614  -0.1073288   0.0000000), wk =   0.0019531
        k(  324) = (  -0.2495743   0.0000000   0.0000000), wk =   0.0009766
        k(  325) = (   0.4991486   0.4293153   0.1353817), wk =   0.0039062
        k(  326) = (   0.6239357   0.5366442   0.1353817), wk =   0.0039062
        k(  327) = (   0.7487229   0.6439730   0.1353817), wk =   0.0039062
        k(  328) = (   0.8735100   0.7513018   0.1353817), wk =   0.0039062
        k(  329) = (   0.9982971   0.8586307   0.1353817), wk =   0.0019531
        k(  330) = (   0.0000000   0.0000000   0.1353817), wk =   0.0009766
        k(  331) = (   0.6239357   0.4293153   0.1692271), wk =   0.0039062
        k(  332) = (   0.7487229   0.5366442   0.1692271), wk =   0.0039062
        k(  333) = (   0.8735100   0.6439730   0.1692271), wk =   0.0039062
        k(  334) = (   0.9982971   0.7513018   0.1692271), wk =   0.0039062
        k(  335) = (   1.1230843   0.8586307   0.1692271), wk =   0.0039062
        k(  336) = (   1.2478714   0.9659595   0.1692271), wk =   0.0039062
        k(  337) = (  -0.6239357  -0.6439730   0.1692271), wk =   0.0039062
        k(  338) = (  -0.4991486  -0.5366442   0.1692271), wk =   0.0039062
        k(  339) = (   0.0000000  -0.1073288   0.1692271), wk =   0.0019531
        k(  340) = (   0.1247871   0.0000000   0.1692271), wk =   0.0019531
        k(  341) = (   0.7487229   0.4293153   0.2030725), wk =   0.0039062
        k(  342) = (   0.8735100   0.5366442   0.2030725), wk =   0.0039062
        k(  343) = (   0.9982971   0.6439730   0.2030725), wk =   0.0039062
        k(  344) = (   1.1230843   0.7513018   0.2030725), wk =   0.0039062
        k(  345) = (   1.2478714   0.8586307   0.2030725), wk =   0.0039062
        k(  346) = (   1.3726586   0.9659595   0.2030725), wk =   0.0039062
        k(  347) = (  -0.4991486  -0.6439730   0.2030725), wk =   0.0039062
        k(  348) = (   0.0000000  -0.2146577   0.2030725), wk =   0.0019531
        k(  349) = (   0.1247871  -0.1073288   0.2030725), wk =   0.0039062
        k(  350) = (   0.2495743   0.0000000   0.2030725), wk =   0.0019531
        k(  351) = (   0.8735100   0.4293153   0.2369179), wk =   0.0039062
        k(  352) = (   0.9982971   0.5366442   0.2369179), wk =   0.0039062
        k(  353) = (   1.1230843   0.6439730   0.2369179), wk =   0.0039062
        k(  354) = (   1.2478714   0.7513018   0.2369179), wk =   0.0039062
        k(  355) = (   1.3726586   0.8586307   0.2369179), wk =   0.0039062
        k(  356) = (   1.4974457   0.9659595   0.2369179), wk =   0.0039062
        k(  357) = (   0.0000000  -0.3219865   0.2369179), wk =   0.0019531
        k(  358) = (   0.1247871  -0.2146577   0.2369179), wk =   0.0039062
        k(  359) = (   0.2495743  -0.1073288   0.2369179), wk =   0.0039062
        k(  360) = (   0.3743614   0.0000000   0.2369179), wk =   0.0019531
        k(  361) = (   0.9982971   0.4293153   0.2707633), wk =   0.0019531
        k(  362) = (   1.1230843   0.5366442   0.2707633), wk =   0.0039062
        k(  363) = (   1.2478714   0.6439730   0.2707633), wk =   0.0039062
        k(  364) = (   1.3726586   0.7513018   0.2707633), wk =   0.0039062
        k(  365) = (   1.4974457   0.8586307   0.2707633), wk =   0.0019531
        k(  366) = (   0.0000000  -0.4293153   0.2707633), wk =   0.0019531
        k(  367) = (   0.1247871  -0.3219865   0.2707633), wk =   0.0039062
        k(  368) = (   0.2495743  -0.2146577   0.2707633), wk =   0.0039062
        k(  369) = (   0.3743614  -0.1073288   0.2707633), wk =   0.0039062
        k(  370) = (   0.4991486   0.0000000   0.2707633), wk =   0.0019531
        k(  371) = (   1.2478714   0.5366442   0.3046087), wk =   0.0039062
        k(  372) = (   1.3726586   0.6439730   0.3046087), wk =   0.0039062
        k(  373) = (   0.0000000  -0.5366442   0.3046087), wk =   0.0019531
        k(  374) = (   0.1247871  -0.4293153   0.3046087), wk =   0.0039062
        k(  375) = (   0.2495743  -0.3219865   0.3046087), wk =   0.0039062
        k(  376) = (   0.3743614  -0.2146577   0.3046087), wk =   0.0039062
        k(  377) = (   0.4991486  -0.1073288   0.3046087), wk =   0.0039062
        k(  378) = (   0.6239357   0.0000000   0.3046087), wk =   0.0019531
        k(  379) = (  -0.6239357   0.5366442  -0.2030725), wk =   0.0039062
        k(  380) = (  -1.9965943  -0.6439730  -0.2030725), wk =   0.0019531
        k(  381) = (  -1.8718071  -0.5366442  -0.2030725), wk =   0.0039062
        k(  382) = (  -1.7470200  -0.4293153  -0.2030725), wk =   0.0039062
        k(  383) = (  -1.6222329  -0.3219865  -0.2030725), wk =   0.0039062
        k(  384) = (  -1.4974457  -0.2146577  -0.2030725), wk =   0.0039062
        k(  385) = (  -1.3726586  -0.1073288  -0.2030725), wk =   0.0039062
        k(  386) = (  -1.2478714   0.0000000  -0.2030725), wk =   0.0019531
        k(  387) = (   0.0000000   0.9659595  -0.1692271), wk =   0.0019531
        k(  388) = (  -1.8718071  -0.6439730  -0.1692271), wk =   0.0039062
        k(  389) = (  -1.7470200  -0.5366442  -0.1692271), wk =   0.0039062
        k(  390) = (  -1.6222329  -0.4293153  -0.1692271), wk =   0.0039062
        k(  391) = (  -1.4974457  -0.3219865  -0.1692271), wk =   0.0039062
        k(  392) = (  -1.3726586  -0.2146577  -0.1692271), wk =   0.0039062
        k(  393) = (  -1.2478714  -0.1073288  -0.1692271), wk =   0.0039062
        k(  394) = (  -1.1230843   0.0000000  -0.1692271), wk =   0.0019531
        k(  395) = (   0.0000000   0.8586307  -0.1353817), wk =   0.0019531
        k(  396) = (   0.1247871   0.9659595  -0.1353817), wk =   0.0039062
        k(  397) = (  -1.7470200  -0.6439730  -0.1353817), wk =   0.0039062
        k(  398) = (  -1.6222329  -0.5366442  -0.1353817), wk =   0.0039062
        k(  399) = (  -1.4974457  -0.4293153  -0.1353817), wk =   0.0039062
        k(  400) = (  -1.3726586  -0.3219865  -0.1353817), wk =   0.0039062
        k(  401) = (  -1.2478714  -0.2146577  -0.1353817), wk =   0.0039062
        k(  402) = (  -1.1230843  -0.1073288  -0.1353817), wk =   0.0039062
        k(  403) = (  -0.9982971   0.0000000  -0.1353817), wk =   0.0019531
        k(  404) = (   0.0000000   0.7513018  -0.1015362), wk =   0.0019531
        k(  405) = (   0.1247871   0.8586307  -0.1015362), wk =   0.0039062
        k(  406) = (   0.2495743   0.9659595  -0.1015362), wk =   0.0039062
        k(  407) = (  -1.6222329  -0.6439730  -0.1015362), wk =   0.0039062
        k(  408) = (  -1.4974457  -0.5366442  -0.1015362), wk =   0.0039062
        k(  409) = (  -1.3726586  -0.4293153  -0.1015362), wk =   0.0039062
        k(  410) = (  -1.2478714  -0.3219865  -0.1015362), wk =   0.0039062
        k(  411) = (  -1.1230843  -0.2146577  -0.1015362), wk =   0.0039062
        k(  412) = (  -0.9982971  -0.1073288  -0.1015362), wk =   0.0039062
        k(  413) = (  -0.8735100   0.0000000  -0.1015362), wk =   0.0019531
        k(  414) = (   0.0000000   0.6439730  -0.0676908), wk =   0.0019531
        k(  415) = (   0.1247871   0.7513018  -0.0676908), wk =   0.0039062
        k(  416) = (   0.2495743   0.8586307  -0.0676908), wk =   0.0039062
        k(  417) = (   0.3743614   0.9659595  -0.0676908), wk =   0.0039062
        k(  418) = (  -1.4974457  -0.6439730  -0.0676908), wk =   0.0039062
        k(  419) = (  -1.3726586  -0.5366442  -0.0676908), wk =   0.0039062
        k(  420) = (  -1.2478714  -0.4293153  -0.0676908), wk =   0.0039062
        k(  421) = (  -1.1230843  -0.3219865  -0.0676908), wk =   0.0039062
        k(  422) = (  -0.9982971  -0.2146577  -0.0676908), wk =   0.0039062
        k(  423) = (  -0.8735100  -0.1073288  -0.0676908), wk =   0.0039062
        k(  424) = (  -0.7487229   0.0000000  -0.0676908), wk =   0.0019531
        k(  425) = (   0.0000000   0.5366442  -0.0338454), wk =   0.0019531
        k(  426) = (   0.1247871   0.6439730  -0.0338454), wk =   0.0039062
        k(  427) = (   0.2495743   0.7513018  -0.0338454), wk =   0.0039062
        k(  428) = (   0.3743614   0.8586307  -0.0338454), wk =   0.0039062
        k(  429) = (   0.4991486   0.9659595  -0.0338454), wk =   0.0039062
        k(  430) = (  -1.3726586  -0.6439730  -0.0338454), wk =   0.0039062
        k(  431) = (  -1.2478714  -0.5366442  -0.0338454), wk =   0.0039062
        k(  432) = (  -1.1230843  -0.4293153  -0.0338454), wk =   0.0039062
        k(  433) = (  -0.9982971  -0.3219865  -0.0338454), wk =   0.0039062
        k(  434) = (  -0.8735100  -0.2146577  -0.0338454), wk =   0.0039062
        k(  435) = (  -0.7487229  -0.1073288  -0.0338454), wk =   0.0039062
        k(  436) = (  -0.6239357   0.0000000  -0.0338454), wk =   0.0019531
        k(  437) = (   0.0000000   0.4293153   0.0000000), wk =   0.0009766
        k(  438) = (   0.1247871   0.5366442   0.0000000), wk =   0.0019531
        k(  439) = (   0.2495743   0.6439730   0.0000000), wk =   0.0019531
        k(  440) = (   0.3743614   0.7513018   0.0000000), wk =   0.0019531
        k(  441) = (   0.4991486   0.8586307   0.0000000), wk =   0.0019531
        k(  442) = (   0.6239357   0.9659595   0.0000000), wk =   0.0019531
        k(  443) = (  -1.2478714  -0.6439730   0.0000000), wk =   0.0019531
        k(  444) = (  -1.1230843  -0.5366442   0.0000000), wk =   0.0019531
        k(  445) = (  -0.9982971  -0.4293153   0.0000000), wk =   0.0019531
        k(  446) = (  -0.8735100  -0.3219865   0.0000000), wk =   0.0019531
        k(  447) = (  -0.7487229  -0.2146577   0.0000000), wk =   0.0019531
        k(  448) = (  -0.6239357  -0.1073288   0.0000000), wk =   0.0019531
        k(  449) = (  -0.4991486   0.0000000   0.0000000), wk =   0.0009766
        k(  450) = (   0.7487229   0.6439730   0.2030725), wk =   0.0039062
        k(  451) = (   0.8735100   0.7513018   0.2030725), wk =   0.0039062
        k(  452) = (   0.9982971   0.8586307   0.2030725), wk =   0.0019531
        k(  453) = (   0.0000000   0.0000000   0.2030725), wk =   0.0009766
        k(  454) = (   0.8735100   0.6439730   0.2369179), wk =   0.0039062
        k(  455) = (   0.9982971   0.7513018   0.2369179), wk =   0.0039062
        k(  456) = (   1.1230843   0.8586307   0.2369179), wk =   0.0039062
        k(  457) = (   1.2478714   0.9659595   0.2369179), wk =   0.0039062
        k(  458) = (   0.0000000  -0.1073288   0.2369179), wk =   0.0019531
        k(  459) = (   0.1247871   0.0000000   0.2369179), wk =   0.0019531
        k(  460) = (   0.9982971   0.6439730   0.2707633), wk =   0.0019531
        k(  461) = (   1.1230843   0.7513018   0.2707633), wk =   0.0039062
        k(  462) = (   1.2478714   0.8586307   0.2707633), wk =   0.0019531
        k(  463) = (   0.0000000  -0.2146577   0.2707633), wk =   0.0019531
        k(  464) = (   0.1247871  -0.1073288   0.2707633), wk =   0.0039062
        k(  465) = (   0.2495743   0.0000000   0.2707633), wk =   0.0019531
        k(  466) = (   0.0000000  -0.3219865   0.3046087), wk =   0.0019531
        k(  467) = (   0.1247871  -0.2146577   0.3046087), wk =   0.0039062
        k(  468) = (   0.2495743  -0.1073288   0.3046087), wk =   0.0039062
        k(  469) = (   0.3743614   0.0000000   0.3046087), wk =   0.0019531
        k(  470) = (   0.0000000  -0.4293153   0.3384542), wk =   0.0019531
        k(  471) = (   0.1247871  -0.3219865   0.3384542), wk =   0.0039062
        k(  472) = (   0.2495743  -0.2146577   0.3384542), wk =   0.0039062
        k(  473) = (   0.3743614  -0.1073288   0.3384542), wk =   0.0039062
        k(  474) = (   0.4991486   0.0000000   0.3384542), wk =   0.0019531
        k(  475) = (  -1.9965943  -0.5366442  -0.1692271), wk =   0.0019531
        k(  476) = (  -1.8718071  -0.4293153  -0.1692271), wk =   0.0039062
        k(  477) = (  -1.7470200  -0.3219865  -0.1692271), wk =   0.0039062
        k(  478) = (  -1.6222329  -0.2146577  -0.1692271), wk =   0.0039062
        k(  479) = (  -1.4974457  -0.1073288  -0.1692271), wk =   0.0039062
        k(  480) = (  -1.3726586   0.0000000  -0.1692271), wk =   0.0019531
        k(  481) = (   0.0000000   1.0732883  -0.1353817), wk =   0.0019531
        k(  482) = (  -1.8718071  -0.5366442  -0.1353817), wk =   0.0039062
        k(  483) = (  -1.7470200  -0.4293153  -0.1353817), wk =   0.0039062
        k(  484) = (  -1.6222329  -0.3219865  -0.1353817), wk =   0.0039062
        k(  485) = (  -1.4974457  -0.2146577  -0.1353817), wk =   0.0039062
        k(  486) = (  -1.3726586  -0.1073288  -0.1353817), wk =   0.0039062
        k(  487) = (  -1.2478714   0.0000000  -0.1353817), wk =   0.0019531
        k(  488) = (   0.0000000   0.9659595  -0.1015362), wk =   0.0019531
        k(  489) = (   0.1247871   1.0732883  -0.1015362), wk =   0.0039062
        k(  490) = (  -1.7470200  -0.5366442  -0.1015362), wk =   0.0039062
        k(  491) = (  -1.6222329  -0.4293153  -0.1015362), wk =   0.0039062
        k(  492) = (  -1.4974457  -0.3219865  -0.1015362), wk =   0.0039062
        k(  493) = (  -1.3726586  -0.2146577  -0.1015362), wk =   0.0039062
        k(  494) = (  -1.2478714  -0.1073288  -0.1015362), wk =   0.0039062
        k(  495) = (  -1.1230843   0.0000000  -0.1015362), wk =   0.0019531
        k(  496) = (   0.0000000   0.8586307  -0.0676908), wk =   0.0019531
        k(  497) = (   0.1247871   0.9659595  -0.0676908), wk =   0.0039062
        k(  498) = (   0.2495743   1.0732883  -0.0676908), wk =   0.0039062
        k(  499) = (  -1.6222329  -0.5366442  -0.0676908), wk =   0.0039062
        k(  500) = (  -1.4974457  -0.4293153  -0.0676908), wk =   0.0039062
        k(  501) = (  -1.3726586  -0.3219865  -0.0676908), wk =   0.0039062
        k(  502) = (  -1.2478714  -0.2146577  -0.0676908), wk =   0.0039062
        k(  503) = (  -1.1230843  -0.1073288  -0.0676908), wk =   0.0039062
        k(  504) = (  -0.9982971   0.0000000  -0.0676908), wk =   0.0019531
        k(  505) = (   0.0000000   0.7513018  -0.0338454), wk =   0.0019531
        k(  506) = (   0.1247871   0.8586307  -0.0338454), wk =   0.0039062
        k(  507) = (   0.2495743   0.9659595  -0.0338454), wk =   0.0039062
        k(  508) = (   0.3743614   1.0732883  -0.0338454), wk =   0.0039062
        k(  509) = (  -1.4974457  -0.5366442  -0.0338454), wk =   0.0039062
        k(  510) = (  -1.3726586  -0.4293153  -0.0338454), wk =   0.0039062
        k(  511) = (  -1.2478714  -0.3219865  -0.0338454), wk =   0.0039062
        k(  512) = (  -1.1230843  -0.2146577  -0.0338454), wk =   0.0039062
        k(  513) = (  -0.9982971  -0.1073288  -0.0338454), wk =   0.0039062
        k(  514) = (  -0.8735100   0.0000000  -0.0338454), wk =   0.0019531
        k(  515) = (   0.0000000   0.6439730   0.0000000), wk =   0.0009766
        k(  516) = (   0.1247871   0.7513018   0.0000000), wk =   0.0019531
        k(  517) = (   0.2495743   0.8586307   0.0000000), wk =   0.0019531
        k(  518) = (   0.3743614   0.9659595   0.0000000), wk =   0.0019531
        k(  519) = (   0.4991486   1.0732883   0.0000000), wk =   0.0019531
        k(  520) = (  -1.3726586  -0.5366442   0.0000000), wk =   0.0019531
        k(  521) = (  -1.2478714  -0.4293153   0.0000000), wk =   0.0019531
        k(  522) = (  -1.1230843  -0.3219865   0.0000000), wk =   0.0019531
        k(  523) = (  -0.9982971  -0.2146577   0.0000000), wk =   0.0019531
        k(  524) = (  -0.8735100  -0.1073288   0.0000000), wk =   0.0019531
        k(  525) = (  -0.7487229   0.0000000   0.0000000), wk =   0.0009766
        k(  526) = (   0.9982971   0.8586307   0.2707633), wk =   0.0009766
        k(  527) = (   0.0000000   0.0000000   0.2707633), wk =   0.0009766
        k(  528) = (   0.0000000  -0.1073288   0.3046087), wk =   0.0019531
        k(  529) = (   0.1247871   0.0000000   0.3046087), wk =   0.0019531
        k(  530) = (   0.0000000  -0.2146577   0.3384542), wk =   0.0019531
        k(  531) = (   0.1247871  -0.1073288   0.3384542), wk =   0.0039062
        k(  532) = (   0.2495743   0.0000000   0.3384542), wk =   0.0019531
        k(  533) = (   0.0000000  -0.3219865   0.3722996), wk =   0.0019531
        k(  534) = (   0.1247871  -0.2146577   0.3722996), wk =   0.0039062
        k(  535) = (   0.2495743  -0.1073288   0.3722996), wk =   0.0039062
        k(  536) = (   0.3743614   0.0000000   0.3722996), wk =   0.0019531
        k(  537) = (  -1.9965943  -0.4293153  -0.1353817), wk =   0.0019531
        k(  538) = (  -1.8718071  -0.3219865  -0.1353817), wk =   0.0039062
        k(  539) = (  -1.7470200  -0.2146577  -0.1353817), wk =   0.0039062
        k(  540) = (  -1.6222329  -0.1073288  -0.1353817), wk =   0.0039062
        k(  541) = (  -1.4974457   0.0000000  -0.1353817), wk =   0.0019531
        k(  542) = (   0.0000000   1.1806172  -0.1015362), wk =   0.0019531
        k(  543) = (  -1.8718071  -0.4293153  -0.1015362), wk =   0.0039062
        k(  544) = (  -1.7470200  -0.3219865  -0.1015362), wk =   0.0039062
        k(  545) = (  -1.6222329  -0.2146577  -0.1015362), wk =   0.0039062
        k(  546) = (  -1.4974457  -0.1073288  -0.1015362), wk =   0.0039062
        k(  547) = (  -1.3726586   0.0000000  -0.1015362), wk =   0.0019531
        k(  548) = (   0.0000000   1.0732883  -0.0676908), wk =   0.0019531
        k(  549) = (   0.1247871   1.1806172  -0.0676908), wk =   0.0039062
        k(  550) = (  -1.7470200  -0.4293153  -0.0676908), wk =   0.0039062
        k(  551) = (  -1.6222329  -0.3219865  -0.0676908), wk =   0.0039062
        k(  552) = (  -1.4974457  -0.2146577  -0.0676908), wk =   0.0039062
        k(  553) = (  -1.3726586  -0.1073288  -0.0676908), wk =   0.0039062
        k(  554) = (  -1.2478714   0.0000000  -0.0676908), wk =   0.0019531
        k(  555) = (   0.0000000   0.9659595  -0.0338454), wk =   0.0019531
        k(  556) = (   0.1247871   1.0732883  -0.0338454), wk =   0.0039062
        k(  557) = (   0.2495743   1.1806172  -0.0338454), wk =   0.0039062
        k(  558) = (  -1.6222329  -0.4293153  -0.0338454), wk =   0.0039062
        k(  559) = (  -1.4974457  -0.3219865  -0.0338454), wk =   0.0039062
        k(  560) = (  -1.3726586  -0.2146577  -0.0338454), wk =   0.0039062
        k(  561) = (  -1.2478714  -0.1073288  -0.0338454), wk =   0.0039062
        k(  562) = (  -1.1230843   0.0000000  -0.0338454), wk =   0.0019531
        k(  563) = (   0.0000000   0.8586307   0.0000000), wk =   0.0009766
        k(  564) = (   0.1247871   0.9659595   0.0000000), wk =   0.0019531
        k(  565) = (   0.2495743   1.0732883   0.0000000), wk =   0.0019531
        k(  566) = (   0.3743614   1.1806172   0.0000000), wk =   0.0019531
        k(  567) = (  -1.4974457  -0.4293153   0.0000000), wk =   0.0019531
        k(  568) = (  -1.3726586  -0.3219865   0.0000000), wk =   0.0019531
        k(  569) = (  -1.2478714  -0.2146577   0.0000000), wk =   0.0019531
        k(  570) = (  -1.1230843  -0.1073288   0.0000000), wk =   0.0019531
        k(  571) = (  -0.9982971   0.0000000   0.0000000), wk =   0.0009766
        k(  572) = (   0.0000000   0.0000000   0.3384542), wk =   0.0009766
        k(  573) = (   0.0000000  -0.1073288   0.3722996), wk =   0.0019531
        k(  574) = (   0.1247871   0.0000000   0.3722996), wk =   0.0019531
        k(  575) = (   0.0000000  -0.2146577   0.4061450), wk =   0.0019531
        k(  576) = (   0.1247871  -0.1073288   0.4061450), wk =   0.0039062
        k(  577) = (   0.2495743   0.0000000   0.4061450), wk =   0.0019531
        k(  578) = (  -1.9965943  -0.3219865  -0.1015362), wk =   0.0019531
        k(  579) = (  -1.8718071  -0.2146577  -0.1015362), wk =   0.0039062
        k(  580) = (  -1.7470200  -0.1073288  -0.1015362), wk =   0.0039062
        k(  581) = (  -1.6222329   0.0000000  -0.1015362), wk =   0.0019531
        k(  582) = (   0.0000000   1.2879460  -0.0676908), wk =   0.0019531
        k(  583) = (  -1.8718071  -0.3219865  -0.0676908), wk =   0.0039062
        k(  584) = (  -1.7470200  -0.2146577  -0.0676908), wk =   0.0039062
        k(  585) = (  -1.6222329  -0.1073288  -0.0676908), wk =   0.0039062
        k(  586) = (  -1.4974457   0.0000000  -0.0676908), wk =   0.0019531
        k(  587) = (   0.0000000   1.1806172  -0.0338454), wk =   0.0019531
        k(  588) = (   0.1247871   1.2879460  -0.0338454), wk =   0.0039062
        k(  589) = (  -1.7470200  -0.3219865  -0.0338454), wk =   0.0039062
        k(  590) = (  -1.6222329  -0.2146577  -0.0338454), wk =   0.0039062
        k(  591) = (  -1.4974457  -0.1073288  -0.0338454), wk =   0.0039062
        k(  592) = (  -1.3726586   0.0000000  -0.0338454), wk =   0.0019531
        k(  593) = (   0.0000000   1.0732883   0.0000000), wk =   0.0009766
        k(  594) = (   0.1247871   1.1806172   0.0000000), wk =   0.0019531
        k(  595) = (   0.2495743   1.2879460   0.0000000), wk =   0.0019531
        k(  596) = (  -1.6222329  -0.3219865   0.0000000), wk =   0.0019531
        k(  597) = (  -1.4974457  -0.2146577   0.0000000), wk =   0.0019531
        k(  598) = (  -1.3726586  -0.1073288   0.0000000), wk =   0.0019531
        k(  599) = (  -1.2478714   0.0000000   0.0000000), wk =   0.0009766
        k(  600) = (   0.0000000   0.0000000   0.4061450), wk =   0.0009766
        k(  601) = (   0.0000000  -0.1073288   0.4399904), wk =   0.0019531
        k(  602) = (   0.1247871   0.0000000   0.4399904), wk =   0.0019531
        k(  603) = (  -1.9965943  -0.2146577  -0.0676908), wk =   0.0019531
        k(  604) = (  -1.8718071  -0.1073288  -0.0676908), wk =   0.0039062
        k(  605) = (  -1.7470200   0.0000000  -0.0676908), wk =   0.0019531
        k(  606) = (   0.0000000   1.3952748  -0.0338454), wk =   0.0019531
        k(  607) = (  -1.8718071  -0.2146577  -0.0338454), wk =   0.0039062
        k(  608) = (  -1.7470200  -0.1073288  -0.0338454), wk =   0.0039062
        k(  609) = (  -1.6222329   0.0000000  -0.0338454), wk =   0.0019531
        k(  610) = (   0.0000000   1.2879460   0.0000000), wk =   0.0009766
        k(  611) = (   0.1247871   1.3952748   0.0000000), wk =   0.0019531
        k(  612) = (  -1.7470200  -0.2146577   0.0000000), wk =   0.0019531
        k(  613) = (  -1.6222329  -0.1073288   0.0000000), wk =   0.0019531
        k(  614) = (  -1.4974457   0.0000000   0.0000000), wk =   0.0009766
        k(  615) = (   0.0000000   0.0000000   0.4738358), wk =   0.0009766
        k(  616) = (  -1.9965943  -0.1073288  -0.0338454), wk =   0.0019531
        k(  617) = (  -1.8718071   0.0000000  -0.0338454), wk =   0.0019531
        k(  618) = (   0.0000000   1.5026037   0.0000000), wk =   0.0009766
        k(  619) = (  -1.8718071  -0.1073288   0.0000000), wk =   0.0019531
        k(  620) = (  -1.7470200   0.0000000   0.0000000), wk =   0.0009766
        k(  621) = (  -1.9965943  -1.7172613  -0.5415266), wk =   0.0004883

                       cryst. coord.
        k(    1) = (   0.0000000   0.0000000   0.0000000), wk =   0.0004883
        k(    2) = (   0.0000000   0.0000000   0.0625000), wk =   0.0019531
        k(    3) = (   0.0000000   0.0000000   0.1250000), wk =   0.0019531
        k(    4) = (  -0.0000000   0.0000000   0.1875000), wk =   0.0019531
        k(    5) = (   0.0000000   0.0000000   0.2500000), wk =   0.0019531
        k(    6) = (  -0.0000000   0.0000000   0.3125000), wk =   0.0019531
        k(    7) = (  -0.0000000   0.0000000   0.3750000), wk =   0.0019531
        k(    8) = (   0.0000000   0.0000000   0.4375000), wk =   0.0019531
        k(    9) = (   0.0000000   0.0000000  -0.5000000), wk =   0.0009766
        k(   10) = (   0.0000000   0.0625000   0.0000000), wk =   0.0019531
        k(   11) = (   0.0000000   0.0625000   0.0625000), wk =   0.0039062
        k(   12) = (   0.0000000   0.0625000   0.1250000), wk =   0.0039062
        k(   13) = (  -0.0000000   0.0625000   0.1875000), wk =   0.0039062
        k(   14) = (  -0.0000000   0.0625000   0.2500000), wk =   0.0039062
        k(   15) = (  -0.0000000   0.0625000   0.3125000), wk =   0.0039062
        k(   16) = (  -0.0000000   0.0625000   0.3750000), wk =   0.0039062
        k(   17) = (   0.0000000   0.0625000   0.4375000), wk =   0.0039062
        k(   18) = (   0.0000000   0.0625000  -0.5000000), wk =   0.0039062
        k(   19) = (   0.0000000   0.0625000  -0.4375000), wk =   0.0039062
        k(   20) = (   0.0000000   0.0625000  -0.3750000), wk =   0.0039062
        k(   21) = (   0.0000000   0.0625000  -0.3125000), wk =   0.0039062
        k(   22) = (   0.0000000   0.0625000  -0.2500000), wk =   0.0039062
        k(   23) = (   0.0000000   0.0625000  -0.1875000), wk =   0.0039062
        k(   24) = (   0.0000000   0.0625000  -0.1250000), wk =   0.0039062
        k(   25) = (   0.0000000   0.0625000  -0.0625000), wk =   0.0019531
        k(   26) = (   0.0000000   0.1250000   0.0000000), wk =   0.0019531
        k(   27) = (   0.0000000   0.1250000   0.0625000), wk =   0.0039062
        k(   28) = (   0.0000000   0.1250000   0.1250000), wk =   0.0039062
        k(   29) = (  -0.0000000   0.1250000   0.1875000), wk =   0.0039062
        k(   30) = (   0.0000000   0.1250000   0.2500000), wk =   0.0039062
        k(   31) = (  -0.0000000   0.1250000   0.3125000), wk =   0.0039062
        k(   32) = (  -0.0000000   0.1250000   0.3750000), wk =   0.0039062
        k(   33) = (   0.0000000   0.1250000   0.4375000), wk =   0.0039062
        k(   34) = (   0.0000000   0.1250000  -0.5000000), wk =   0.0039062
        k(   35) = (   0.0000000   0.1250000  -0.4375000), wk =   0.0039062
        k(   36) = (   0.0000000   0.1250000  -0.3750000), wk =   0.0039062
        k(   37) = (   0.0000000   0.1250000  -0.3125000), wk =   0.0039062
        k(   38) = (   0.0000000   0.1250000  -0.2500000), wk =   0.0039062
        k(   39) = (   0.0000000   0.1250000  -0.1875000), wk =   0.0039062
        k(   40) = (   0.0000000   0.1250000  -0.1250000), wk =   0.0019531
        k(   41) = (   0.0000000   0.1250000  -0.0625000), wk =   0.0039062
        k(   42) = (   0.0000000   0.1875000   0.0000000), wk =   0.0019531
        k(   43) = (   0.0000000   0.1875000   0.0625000), wk =   0.0039062
        k(   44) = (  -0.0000000   0.1875000   0.1250000), wk =   0.0039062
        k(   45) = (  -0.0000000   0.1875000   0.1875000), wk =   0.0039062
        k(   46) = (   0.0000000   0.1875000   0.2500000), wk =   0.0039062
        k(   47) = (   0.0000000   0.1875000   0.3125000), wk =   0.0039062
        k(   48) = (  -0.0000000   0.1875000   0.3750000), wk =   0.0039062
        k(   49) = (  -0.0000000   0.1875000   0.4375000), wk =   0.0039062
        k(   50) = (   0.0000000   0.1875000  -0.5000000), wk =   0.0039062
        k(   51) = (   0.0000000   0.1875000  -0.4375000), wk =   0.0039062
        k(   52) = (   0.0000000   0.1875000  -0.3750000), wk =   0.0039062
        k(   53) = (   0.0000000   0.1875000  -0.3125000), wk =   0.0039062
        k(   54) = (   0.0000000   0.1875000  -0.2500000), wk =   0.0039062
        k(   55) = (   0.0000000   0.1875000  -0.1875000), wk =   0.0019531
        k(   56) = (   0.0000000   0.1875000  -0.1250000), wk =   0.0039062
        k(   57) = (   0.0000000   0.1875000  -0.0625000), wk =   0.0039062
        k(   58) = (   0.0000000   0.2500000   0.0000000), wk =   0.0019531
        k(   59) = (  -0.0000000   0.2500000   0.0625000), wk =   0.0039062
        k(   60) = (   0.0000000   0.2500000   0.1250000), wk =   0.0039062
        k(   61) = (   0.0000000   0.2500000   0.1875000), wk =   0.0039062
        k(   62) = (   0.0000000   0.2500000   0.2500000), wk =   0.0039062
        k(   63) = (   0.0000000   0.2500000   0.3125000), wk =   0.0039062
        k(   64) = (  -0.0000000   0.2500000   0.3750000), wk =   0.0039062
        k(   65) = (   0.0000000   0.2500000   0.4375000), wk =   0.0039062
        k(   66) = (   0.0000000   0.2500000  -0.5000000), wk =   0.0039062
        k(   67) = (   0.0000000   0.2500000  -0.4375000), wk =   0.0039062
        k(   68) = (   0.0000000   0.2500000  -0.3750000), wk =   0.0039062
        k(   69) = (   0.0000000   0.2500000  -0.3125000), wk =   0.0039062
        k(   70) = (   0.0000000   0.2500000  -0.2500000), wk =   0.0019531
        k(   71) = (   0.0000000   0.2500000  -0.1875000), wk =   0.0039062
        k(   72) = (   0.0000000   0.2500000  -0.1250000), wk =   0.0039062
        k(   73) = (   0.0000000   0.2500000  -0.0625000), wk =   0.0039062
        k(   74) = (  -0.0000000   0.3125000   0.0000000), wk =   0.0019531
        k(   75) = (  -0.0000000   0.3125000   0.0625000), wk =   0.0039062
        k(   76) = (  -0.0000000   0.3125000   0.1250000), wk =   0.0039062
        k(   77) = (   0.0000000   0.3125000   0.1875000), wk =   0.0039062
        k(   78) = (   0.0000000   0.3125000   0.2500000), wk =   0.0039062
        k(   79) = (  -0.0000000   0.3125000   0.3125000), wk =   0.0039062
        k(   80) = (  -0.0000000   0.3125000   0.3750000), wk =   0.0039062
        k(   81) = (   0.0000000   0.3125000   0.4375000), wk =   0.0039062
        k(   82) = (   0.0000000   0.3125000  -0.5000000), wk =   0.0039062
        k(   83) = (   0.0000000   0.3125000  -0.4375000), wk =   0.0039062
        k(   84) = (   0.0000000   0.3125000  -0.3750000), wk =   0.0039062
        k(   85) = (   0.0000000   0.3125000  -0.3125000), wk =   0.0019531
        k(   86) = (   0.0000000   0.3125000  -0.2500000), wk =   0.0039062
        k(   87) = (   0.0000000   0.3125000  -0.1875000), wk =   0.0039062
        k(   88) = (   0.0000000   0.3125000  -0.1250000), wk =   0.0039062
        k(   89) = (   0.0000000   0.3125000  -0.0625000), wk =   0.0039062
        k(   90) = (   0.0000000   0.3750000   0.0000000), wk =   0.0019531
        k(   91) = (   0.0000000   0.3750000   0.0625000), wk =   0.0039062
        k(   92) = (   0.0000000   0.3750000   0.1250000), wk =   0.0039062
        k(   93) = (   0.0000000   0.3750000   0.1875000), wk =   0.0039062
        k(   94) = (  -0.0000000   0.3750000   0.2500000), wk =   0.0039062
        k(   95) = (   0.0000000   0.3750000   0.3125000), wk =   0.0039062
        k(   96) = (  -0.0000000   0.3750000   0.3750000), wk =   0.0039062
        k(   97) = (  -0.0000000   0.3750000   0.4375000), wk =   0.0039062
        k(   98) = (   0.0000000   0.3750000  -0.5000000), wk =   0.0039062
        k(   99) = (   0.0000000   0.3750000  -0.4375000), wk =   0.0039062
        k(  100) = (   0.0000000   0.3750000  -0.3750000), wk =   0.0019531
        k(  101) = (   0.0000000   0.3750000  -0.3125000), wk =   0.0039062
        k(  102) = (   0.0000000   0.3750000  -0.2500000), wk =   0.0039062
        k(  103) = (   0.0000000   0.3750000  -0.1875000), wk =   0.0039062
        k(  104) = (   0.0000000   0.3750000  -0.1250000), wk =   0.0039062
        k(  105) = (   0.0000000   0.3750000  -0.0625000), wk =   0.0039062
        k(  106) = (   0.0000000   0.4375000   0.0000000), wk =   0.0019531
        k(  107) = (   0.0000000   0.4375000   0.0625000), wk =   0.0039062
        k(  108) = (   0.0000000   0.4375000   0.1250000), wk =   0.0039062
        k(  109) = (  -0.0000000   0.4375000   0.1875000), wk =   0.0039062
        k(  110) = (   0.0000000   0.4375000   0.2500000), wk =   0.0039062
        k(  111) = (   0.0000000   0.4375000   0.3125000), wk =   0.0039062
        k(  112) = (  -0.0000000   0.4375000   0.3750000), wk =   0.0039062
        k(  113) = (   0.0000000   0.4375000   0.4375000), wk =   0.0039062
        k(  114) = (   0.0000000   0.4375000  -0.5000000), wk =   0.0039062
        k(  115) = (   0.0000000   0.4375000  -0.4375000), wk =   0.0019531
        k(  116) = (   0.0000000   0.4375000  -0.3750000), wk =   0.0039062
        k(  117) = (   0.0000000   0.4375000  -0.3125000), wk =   0.0039062
        k(  118) = (   0.0000000   0.4375000  -0.2500000), wk =   0.0039062
        k(  119) = (   0.0000000   0.4375000  -0.1875000), wk =   0.0039062
        k(  120) = (  -0.0000000   0.4375000  -0.1250000), wk =   0.0039062
        k(  121) = (   0.0000000   0.4375000  -0.0625000), wk =   0.0039062
        k(  122) = (   0.0000000  -0.5000000   0.0000000), wk =   0.0009766
        k(  123) = (   0.0000000  -0.5000000   0.0625000), wk =   0.0039062
        k(  124) = (   0.0000000  -0.5000000   0.1250000), wk =   0.0039062
        k(  125) = (   0.0000000  -0.5000000   0.1875000), wk =   0.0039062
        k(  126) = (   0.0000000  -0.5000000   0.2500000), wk =   0.0039062
        k(  127) = (   0.0000000  -0.5000000   0.3125000), wk =   0.0039062
        k(  128) = (   0.0000000  -0.5000000   0.3750000), wk =   0.0039062
        k(  129) = (   0.0000000  -0.5000000   0.4375000), wk =   0.0039062
        k(  130) = (   0.0000000  -0.5000000  -0.5000000), wk =   0.0009766
        k(  131) = (   0.0625000   0.0625000   0.0625000), wk =   0.0039062
        k(  132) = (   0.0625000   0.0625000   0.1250000), wk =   0.0039062
        k(  133) = (   0.0625000   0.0625000   0.1875000), wk =   0.0039062
        k(  134) = (   0.0625000   0.0625000   0.2500000), wk =   0.0039062
        k(  135) = (   0.0625000   0.0625000   0.3125000), wk =   0.0039062
        k(  136) = (   0.0625000   0.0625000   0.3750000), wk =   0.0039062
        k(  137) = (   0.0625000   0.0625000   0.4375000), wk =   0.0019531
        k(  138) = (   0.0625000   0.0625000  -0.0625000), wk =   0.0009766
        k(  139) = (   0.0625000   0.1250000   0.0625000), wk =   0.0039062
        k(  140) = (   0.0625000   0.1250000   0.1250000), wk =   0.0039062
        k(  141) = (   0.0625000   0.1250000   0.1875000), wk =   0.0039062
        k(  142) = (   0.0625000   0.1250000   0.2500000), wk =   0.0039062
        k(  143) = (   0.0625000   0.1250000   0.3125000), wk =   0.0039062
        k(  144) = (   0.0625000   0.1250000   0.3750000), wk =   0.0039062
        k(  145) = (   0.0625000   0.1250000   0.4375000), wk =   0.0039062
        k(  146) = (   0.0625000   0.1250000  -0.5000000), wk =   0.0039062
        k(  147) = (   0.0625000   0.1250000  -0.4375000), wk =   0.0039062
        k(  148) = (   0.0625000   0.1250000  -0.3750000), wk =   0.0039062
        k(  149) = (   0.0625000   0.1250000  -0.3125000), wk =   0.0039062
        k(  150) = (   0.0625000   0.1250000  -0.2500000), wk =   0.0039062
        k(  151) = (   0.0625000   0.1250000  -0.1250000), wk =   0.0019531
        k(  152) = (   0.0625000   0.1250000  -0.0625000), wk =   0.0019531
        k(  153) = (   0.0625000   0.1875000   0.0625000), wk =   0.0039062
        k(  154) = (   0.0625000   0.1875000   0.1250000), wk =   0.0039062
        k(  155) = (   0.0625000   0.1875000   0.1875000), wk =   0.0039062
        k(  156) = (   0.0625000   0.1875000   0.2500000), wk =   0.0039062
        k(  157) = (   0.0625000   0.1875000   0.3125000), wk =   0.0039062
        k(  158) = (   0.0625000   0.1875000   0.3750000), wk =   0.0039062
        k(  159) = (   0.0625000   0.1875000   0.4375000), wk =   0.0039062
        k(  160) = (   0.0625000   0.1875000  -0.5000000), wk =   0.0039062
        k(  161) = (   0.0625000   0.1875000  -0.4375000), wk =   0.0039062
        k(  162) = (   0.0625000   0.1875000  -0.3750000), wk =   0.0039062
        k(  163) = (   0.0625000   0.1875000  -0.3125000), wk =   0.0039062
        k(  164) = (   0.0625000   0.1875000  -0.1875000), wk =   0.0019531
        k(  165) = (   0.0625000   0.1875000  -0.1250000), wk =   0.0039062
        k(  166) = (   0.0625000   0.1875000  -0.0625000), wk =   0.0019531
        k(  167) = (   0.0625000   0.2500000   0.0625000), wk =   0.0039062
        k(  168) = (   0.0625000   0.2500000   0.1250000), wk =   0.0039062
        k(  169) = (   0.0625000   0.2500000   0.1875000), wk =   0.0039062
        k(  170) = (   0.0625000   0.2500000   0.2500000), wk =   0.0039062
        k(  171) = (   0.0625000   0.2500000   0.3125000), wk =   0.0039062
        k(  172) = (   0.0625000   0.2500000   0.3750000), wk =   0.0039062
        k(  173) = (   0.0625000   0.2500000   0.4375000), wk =   0.0039062
        k(  174) = (   0.0625000   0.2500000  -0.5000000), wk =   0.0039062
        k(  175) = (   0.0625000   0.2500000  -0.4375000), wk =   0.0039062
        k(  176) = (   0.0625000   0.2500000  -0.3750000), wk =   0.0039062
        k(  177) = (   0.0625000   0.2500000  -0.2500000), wk =   0.0019531
        k(  178) = (   0.0625000   0.2500000  -0.1875000), wk =   0.0039062
        k(  179) = (   0.0625000   0.2500000  -0.1250000), wk =   0.0039062
        k(  180) = (   0.0625000   0.2500000  -0.0625000), wk =   0.0019531
        k(  181) = (   0.0625000   0.3125000   0.0625000), wk =   0.0039062
        k(  182) = (   0.0625000   0.3125000   0.1250000), wk =   0.0039062
        k(  183) = (   0.0625000   0.3125000   0.1875000), wk =   0.0039062
        k(  184) = (   0.0625000   0.3125000   0.2500000), wk =   0.0039062
        k(  185) = (   0.0625000   0.3125000   0.3125000), wk =   0.0039062
        k(  186) = (   0.0625000   0.3125000   0.3750000), wk =   0.0039062
        k(  187) = (   0.0625000   0.3125000   0.4375000), wk =   0.0039062
        k(  188) = (   0.0625000   0.3125000  -0.5000000), wk =   0.0039062
        k(  189) = (   0.0625000   0.3125000  -0.4375000), wk =   0.0039062
        k(  190) = (   0.0625000   0.3125000  -0.3125000), wk =   0.0019531
        k(  191) = (   0.0625000   0.3125000  -0.2500000), wk =   0.0039062
        k(  192) = (   0.0625000   0.3125000  -0.1875000), wk =   0.0039062
        k(  193) = (   0.0625000   0.3125000  -0.1250000), wk =   0.0039062
        k(  194) = (   0.0625000   0.3125000  -0.0625000), wk =   0.0019531
        k(  195) = (   0.0625000   0.3750000   0.0625000), wk =   0.0039062
        k(  196) = (   0.0625000   0.3750000   0.1250000), wk =   0.0039062
        k(  197) = (   0.0625000   0.3750000   0.1875000), wk =   0.0039062
        k(  198) = (   0.0625000   0.3750000   0.2500000), wk =   0.0039062
        k(  199) = (   0.0625000   0.3750000   0.3125000), wk =   0.0039062
        k(  200) = (   0.0625000   0.3750000   0.3750000), wk =   0.0039062
        k(  201) = (   0.0625000   0.3750000   0.4375000), wk =   0.0039062
        k(  202) = (   0.0625000   0.3750000  -0.5000000), wk =   0.0039062
        k(  203) = (   0.0625000   0.3750000  -0.3750000), wk =   0.0019531
        k(  204) = (   0.0625000   0.3750000  -0.3125000), wk =   0.0039062
        k(  205) = (   0.0625000   0.3750000  -0.2500000), wk =   0.0039062
        k(  206) = (   0.0625000   0.3750000  -0.1875000), wk =   0.0039062
        k(  207) = (   0.0625000   0.3750000  -0.1250000), wk =   0.0039062
        k(  208) = (   0.0625000   0.3750000  -0.0625000), wk =   0.0019531
        k(  209) = (   0.0625000   0.4375000   0.0625000), wk =   0.0019531
        k(  210) = (   0.0625000   0.4375000   0.1250000), wk =   0.0039062
        k(  211) = (   0.0625000   0.4375000   0.1875000), wk =   0.0039062
        k(  212) = (   0.0625000   0.4375000   0.2500000), wk =   0.0039062
        k(  213) = (   0.0625000   0.4375000   0.3125000), wk =   0.0039062
        k(  214) = (   0.0625000   0.4375000   0.3750000), wk =   0.0039062
        k(  215) = (   0.0625000   0.4375000   0.4375000), wk =   0.0019531
        k(  216) = (   0.0625000   0.4375000  -0.4375000), wk =   0.0019531
        k(  217) = (   0.0625000   0.4375000  -0.3750000), wk =   0.0039062
        k(  218) = (   0.0625000   0.4375000  -0.3125000), wk =   0.0039062
        k(  219) = (   0.0625000   0.4375000  -0.2500000), wk =   0.0039062
        k(  220) = (   0.0625000   0.4375000  -0.1875000), wk =   0.0039062
        k(  221) = (   0.0625000   0.4375000  -0.1250000), wk =   0.0039062
        k(  222) = (   0.0625000   0.4375000  -0.0625000), wk =   0.0019531
        k(  223) = (   0.0625000  -0.5000000   0.1250000), wk =   0.0039062
        k(  224) = (   0.0625000  -0.5000000   0.1875000), wk =   0.0039062
        k(  225) = (   0.0625000  -0.5000000   0.2500000), wk =   0.0039062
        k(  226) = (   0.0625000  -0.5000000   0.3125000), wk =   0.0039062
        k(  227) = (   0.0625000  -0.5000000  -0.5000000), wk =   0.0019531
        k(  228) = (   0.0625000  -0.5000000  -0.4375000), wk =   0.0039062
        k(  229) = (   0.0625000  -0.5000000  -0.3750000), wk =   0.0039062
        k(  230) = (   0.0625000  -0.5000000  -0.3125000), wk =   0.0039062
        k(  231) = (   0.0625000  -0.5000000  -0.2500000), wk =   0.0039062
        k(  232) = (   0.0625000  -0.5000000  -0.1875000), wk =   0.0039062
        k(  233) = (   0.0625000  -0.5000000  -0.1250000), wk =   0.0039062
        k(  234) = (   0.0625000  -0.5000000  -0.0625000), wk =   0.0019531
        k(  235) = (   0.0625000  -0.4375000   0.1250000), wk =   0.0039062
        k(  236) = (   0.0625000  -0.4375000   0.1875000), wk =   0.0039062
        k(  237) = (   0.0625000  -0.4375000   0.2500000), wk =   0.0039062
        k(  238) = (   0.0625000  -0.4375000   0.4375000), wk =   0.0019531
        k(  239) = (   0.0625000  -0.4375000  -0.5000000), wk =   0.0039062
        k(  240) = (   0.0625000  -0.4375000  -0.4375000), wk =   0.0039062
        k(  241) = (   0.0625000  -0.4375000  -0.3750000), wk =   0.0039062
        k(  242) = (   0.0625000  -0.4375000  -0.3125000), wk =   0.0039062
        k(  243) = (   0.0625000  -0.4375000  -0.2500000), wk =   0.0039062
        k(  244) = (   0.0625000  -0.4375000  -0.1875000), wk =   0.0039062
        k(  245) = (   0.0625000  -0.4375000  -0.1250000), wk =   0.0039062
        k(  246) = (   0.0625000  -0.4375000  -0.0625000), wk =   0.0019531
        k(  247) = (   0.0625000  -0.3750000   0.1250000), wk =   0.0039062
        k(  248) = (   0.0625000  -0.3750000   0.1875000), wk =   0.0039062
        k(  249) = (   0.0625000  -0.3750000   0.3750000), wk =   0.0019531
        k(  250) = (   0.0625000  -0.3750000   0.4375000), wk =   0.0039062
        k(  251) = (   0.0625000  -0.3750000  -0.5000000), wk =   0.0039062
        k(  252) = (   0.0625000  -0.3750000  -0.4375000), wk =   0.0039062
        k(  253) = (   0.0625000  -0.3750000  -0.3750000), wk =   0.0039062
        k(  254) = (   0.0625000  -0.3750000  -0.3125000), wk =   0.0039062
        k(  255) = (   0.0625000  -0.3750000  -0.2500000), wk =   0.0039062
        k(  256) = (   0.0625000  -0.3750000  -0.1875000), wk =   0.0039062
        k(  257) = (   0.0625000  -0.3750000  -0.1250000), wk =   0.0039062
        k(  258) = (   0.0625000  -0.3750000  -0.0625000), wk =   0.0019531
        k(  259) = (   0.0625000  -0.3125000   0.1250000), wk =   0.0039062
        k(  260) = (   0.0625000  -0.3125000   0.3125000), wk =   0.0019531
        k(  261) = (   0.0625000  -0.3125000   0.3750000), wk =   0.0039062
        k(  262) = (   0.0625000  -0.3125000   0.4375000), wk =   0.0039062
        k(  263) = (   0.0625000  -0.3125000  -0.5000000), wk =   0.0039062
        k(  264) = (   0.0625000  -0.3125000  -0.4375000), wk =   0.0039062
        k(  265) = (   0.0625000  -0.3125000  -0.3750000), wk =   0.0039062
        k(  266) = (   0.0625000  -0.3125000  -0.3125000), wk =   0.0039062
        k(  267) = (   0.0625000  -0.3125000  -0.2500000), wk =   0.0039062
        k(  268) = (   0.0625000  -0.3125000  -0.1875000), wk =   0.0039062
        k(  269) = (   0.0625000  -0.3125000  -0.1250000), wk =   0.0039062
        k(  270) = (   0.0625000  -0.3125000  -0.0625000), wk =   0.0019531
        k(  271) = (   0.0625000  -0.2500000   0.2500000), wk =   0.0019531
        k(  272) = (   0.0625000  -0.2500000   0.3125000), wk =   0.0039062
        k(  273) = (   0.0625000  -0.2500000   0.3750000), wk =   0.0039062
        k(  274) = (   0.0625000  -0.2500000   0.4375000), wk =   0.0039062
        k(  275) = (   0.0625000  -0.2500000  -0.5000000), wk =   0.0039062
        k(  276) = (   0.0625000  -0.2500000  -0.4375000), wk =   0.0039062
        k(  277) = (   0.0625000  -0.2500000  -0.3750000), wk =   0.0039062
        k(  278) = (   0.0625000  -0.2500000  -0.3125000), wk =   0.0039062
        k(  279) = (   0.0625000  -0.2500000  -0.2500000), wk =   0.0039062
        k(  280) = (   0.0625000  -0.2500000  -0.1875000), wk =   0.0039062
        k(  281) = (   0.0625000  -0.2500000  -0.1250000), wk =   0.0039062
        k(  282) = (   0.0625000  -0.2500000  -0.0625000), wk =   0.0019531
        k(  283) = (   0.0625000  -0.1875000   0.1875000), wk =   0.0019531
        k(  284) = (   0.0625000  -0.1875000   0.2500000), wk =   0.0039062
        k(  285) = (   0.0625000  -0.1875000   0.3125000), wk =   0.0039062
        k(  286) = (   0.0625000  -0.1875000   0.3750000), wk =   0.0039062
        k(  287) = (   0.0625000  -0.1875000   0.4375000), wk =   0.0039062
        k(  288) = (   0.0625000  -0.1875000  -0.5000000), wk =   0.0039062
        k(  289) = (   0.0625000  -0.1875000  -0.4375000), wk =   0.0039062
        k(  290) = (   0.0625000  -0.1875000  -0.3750000), wk =   0.0039062
        k(  291) = (   0.0625000  -0.1875000  -0.3125000), wk =   0.0039062
        k(  292) = (   0.0625000  -0.1875000  -0.2500000), wk =   0.0039062
        k(  293) = (   0.0625000  -0.1875000  -0.1875000), wk =   0.0039062
        k(  294) = (   0.0625000  -0.1875000  -0.1250000), wk =   0.0039062
        k(  295) = (   0.0625000  -0.1875000  -0.0625000), wk =   0.0019531
        k(  296) = (   0.0625000  -0.1250000   0.1250000), wk =   0.0019531
        k(  297) = (   0.0625000  -0.1250000   0.1875000), wk =   0.0039062
        k(  298) = (   0.0625000  -0.1250000   0.2500000), wk =   0.0039062
        k(  299) = (   0.0625000  -0.1250000   0.3125000), wk =   0.0039062
        k(  300) = (   0.0625000  -0.1250000   0.3750000), wk =   0.0039062
        k(  301) = (   0.0625000  -0.1250000   0.4375000), wk =   0.0039062
        k(  302) = (   0.0625000  -0.1250000  -0.5000000), wk =   0.0039062
        k(  303) = (   0.0625000  -0.1250000  -0.4375000), wk =   0.0039062
        k(  304) = (   0.0625000  -0.1250000  -0.3750000), wk =   0.0039062
        k(  305) = (   0.0625000  -0.1250000  -0.3125000), wk =   0.0039062
        k(  306) = (   0.0625000  -0.1250000  -0.2500000), wk =   0.0039062
        k(  307) = (   0.0625000  -0.1250000  -0.1875000), wk =   0.0039062
        k(  308) = (   0.0625000  -0.1250000  -0.1250000), wk =   0.0039062
[...]

   -49.8594 -26.1046 -25.7943 -25.7230 -12.3553  -9.2881  -9.0720   1.3174
     2.2299   2.6603   2.6946   2.9225   3.3049   3.6103   3.8311   4.0289
     5.5661   7.3114   7.5789   8.9724   9.9968

     occupation numbers 
     1.0000   1.0000   1.0000   1.0000   1.0000   1.0000   1.0000   1.0000
     1.0000   1.0000   1.0000   1.0000   1.0000   1.0000   1.0000   1.0000
     1.0000  -0.0000  -0.0000  -0.0000  -0.0000

          k = 0.1248 0.0000 0.4400 ( 12133 PWs)   bands (ev):

   -49.8589 -26.0967 -25.7931 -25.7316 -12.3966  -9.2816  -9.0619   1.3426
     2.1186   2.6727   2.7856   3.2093   3.3554   3.4647   3.8316   3.9790
     5.7207   7.1591   7.4971   8.8981   9.9067

     occupation numbers 
     1.0000   1.0000   1.0000   1.0000   1.0000   1.0000   1.0000   1.0000
     1.0000   1.0000   1.0000   1.0000   1.0000   1.0000   1.0000   1.0000
     1.0000  -0.0000  -0.0000  -0.0000  -0.0000

          k =-1.9966-0.2147-0.0677 ( 12164 PWs)   bands (ev):

   -49.8590 -26.1250 -25.7936 -25.7224 -12.2228  -9.2444  -9.0987   1.3551
     2.1563   2.3881   2.4856   2.6742   3.2121   3.3829   3.9242   4.0838
     5.5800   7.6196   7.7517   8.9822  10.2939

     occupation numbers 
     1.0000   1.0000   1.0000   1.0000   1.0000   1.0000   1.0000   1.0000
     1.0000   1.0000   1.0000   1.0000   1.0000   1.0000   1.0000   1.0000
     1.0000  -0.0000  -0.0000  -0.0000  -0.0000

          k =-1.8718-0.1073-0.0677 ( 12141 PWs)   bands (ev):

   -49.8588 -26.1039 -25.7929 -25.7313 -12.3509  -9.2510  -9.0877   1.4080
     2.0488   2.6308   2.7009   3.0402   3.1853   3.6339   3.8281   3.9183
     5.7262   7.2741   7.5589   8.9135  10.0395

     occupation numbers 
     1.0000   1.0000   1.0000   1.0000   1.0000   1.0000   1.0000   1.0000
     1.0000   1.0000   1.0000   1.0000   1.0000   1.0000   1.0000   1.0000
     1.0000  -0.0000  -0.0000  -0.0000  -0.0000

          k =-1.7470 0.0000-0.0677 ( 12142 PWs)   bands (ev):

   -49.8574 -26.0949 -25.7890 -25.7552 -12.3840  -9.2294  -9.0491   1.4503
     1.8184   2.6754   2.8115   2.8660   3.4419   3.6467   3.7901   3.8303
     6.0794   7.0601   7.4176   8.7565   9.9525

     occupation numbers 
     1.0000   1.0000   1.0000   1.0000   1.0000   1.0000   1.0000   1.0000
     1.0000   1.0000   1.0000   1.0000   1.0000   1.0000   1.0000   1.0000
     1.0000  -0.0000  -0.0000  -0.0000  -0.0000

          k = 0.0000 1.3953-0.0338 ( 12164 PWs)   bands (ev):

   -49.8584 -26.1552 -25.7924 -25.7214 -12.0173  -9.1925  -9.1233   1.3089
     1.8414   2.0051   2.2306   2.6825   3.0594   3.1456   3.8434   4.2783
     5.5999   8.0375   8.0447   8.9801  10.5987

     occupation numbers 
     1.0000   1.0000   1.0000   1.0000   1.0000   1.0000   1.0000   1.0000
     1.0000   1.0000   1.0000   1.0000   1.0000   1.0000   1.0000   1.0000
     1.0000  -0.0000  -0.0000  -0.0000  -0.0000

          k =-1.8718-0.2147-0.0338 ( 12153 PWs)   bands (ev):

   -49.8584 -26.1243 -25.7921 -25.7307 -12.2184  -9.2113  -9.1096   1.4230
     2.0195   2.3823   2.3919   2.8627   3.0873   3.4044   3.7931   4.1014
     5.7386   7.5829   7.7306   8.9220  10.3309

     occupation numbers 
     1.0000   1.0000   1.0000   1.0000   1.0000   1.0000   1.0000   1.0000
     1.0000   1.0000   1.0000   1.0000   1.0000   1.0000   1.0000   1.0000
     1.0000  -0.0000  -0.0000  -0.0000  -0.0000

          k =-1.7470-0.1073-0.0338 ( 12137 PWs)   bands (ev):

   -49.8572 -26.1021 -25.7887 -25.7549 -12.3384  -9.2088  -9.0640   1.5156
     1.7450   2.6244   2.7069   2.8462   3.2437   3.6100   3.7845   3.8987
     6.0852   7.1747   7.4798   8.7662  10.0755

     occupation numbers 
     1.0000   1.0000   1.0000   1.0000   1.0000   1.0000   1.0000   1.0000
     1.0000   1.0000   1.0000   1.0000   1.0000   1.0000   1.0000   1.0000
     1.0000  -0.0000  -0.0000  -0.0000  -0.0000

          k =-1.6222 0.0000-0.0338 ( 12136 PWs)   bands (ev):

   -49.8550 -26.0921 -25.7903 -25.7827 -12.3653  -9.1834  -8.9945   1.4114
     1.6397   2.4061   2.6835   2.8553   3.5568   3.7097   3.7447   3.8302
     6.5119   6.9320   7.2809   8.6545   9.9438

     occupation numbers 
     1.0000   1.0000   1.0000   1.0000   1.0000   1.0000   1.0000   1.0000
     1.0000   1.0000   1.0000   1.0000   1.0000   1.0000   1.0000   1.0000
     1.0000  -0.0000  -0.0000  -0.0000  -0.0000

          k = 0.0000 1.2879 0.0000 ( 12185 PWs)   bands (ev):

   -49.8578 -26.1905 -25.7911 -25.7203 -11.7625  -9.1513  -9.1313   0.9814
     1.4282   1.6339   2.2747   2.6842   2.8708   2.9791   3.8130   4.3615
     5.6209   8.4149   8.5136   8.9664  10.8092

     occupation numbers 
     1.0000   1.0000   1.0000   1.0000   1.0000   1.0000   1.0000   1.0000
     1.0000   1.0000   1.0000   1.0000   1.0000   1.0000   1.0000   1.0000
     1.0000  -0.0000  -0.0000  -0.0000  -0.0000

          k = 0.1248 1.3953 0.0000 ( 12172 PWs)   bands (ev):

   -49.8579 -26.1545 -25.7910 -25.7297 -12.0131  -9.1683  -9.1246   1.3440
     1.8601   1.9957   2.0643   2.8306   2.9055   3.2360   3.6833   4.2826
     5.7552   8.0095   8.0168   8.9228  10.6340

     occupation numbers 
     1.0000   1.0000   1.0000   1.0000   1.0000   1.0000   1.0000   1.0000
     1.0000   1.0000   1.0000   1.0000   1.0000   1.0000   1.0000   1.0000
     1.0000  -0.0000  -0.0000  -0.0000  -0.0000

          k =-1.7470-0.2147 0.0000 ( 12152 PWs)   bands (ev):

   -49.8569 -26.1224 -25.7880 -25.7543 -12.2061  -9.1833  -9.0711   1.5104
     1.7254   2.3920   2.4033   2.7812   3.0851   3.3543   3.6486   4.1413
     6.0938   7.4848   7.6613   8.7800  10.3674

     occupation numbers 
     1.0000   1.0000   1.0000   1.0000   1.0000   1.0000   1.0000   1.0000
     1.0000   1.0000   1.0000   1.0000   1.0000   1.0000   1.0000   1.0000
     1.0000  -0.0000  -0.0000  -0.0000  -0.0000

          k =-1.6222-0.1073 0.0000 ( 12143 PWs)   bands (ev):

   -49.8549 -26.0993 -25.7900 -25.7825 -12.3197  -9.1744  -8.9972   1.4349
     1.6099   2.3891   2.6179   2.7714   3.4017   3.5235   3.7431   3.9901
     6.5154   7.0457   7.3512   8.6612  10.0643

     occupation numbers 
     1.0000   1.0000   1.0000   1.0000   1.0000   1.0000   1.0000   1.0000
     1.0000   1.0000   1.0000   1.0000   1.0000   1.0000   1.0000   1.0000
     1.0000  -0.0000  -0.0000  -0.0000  -0.0000

          k =-1.4974 0.0000 0.0000 ( 12179 PWs)   bands (ev):

   -49.8522 -26.0888 -25.8314 -25.7754 -12.3433  -9.1436  -8.9130   1.2119
     1.5067   2.1213   2.6281   2.9168   3.6636   3.6862   3.6913   3.9002
     6.8122   6.9790   7.1038   8.6905   9.8760

     occupation numbers 
     1.0000   1.0000   1.0000   1.0000   1.0000   1.0000   1.0000   1.0000
     1.0000   1.0000   1.0000   1.0000   1.0000   1.0000   1.0000   1.0000
    -0.0198  -0.0000  -0.0000  -0.0000  -0.0000

          k = 0.0000 0.0000 0.4738 ( 12120 PWs)   bands (ev):

   -49.8595 -26.0974 -25.7946 -25.7233 -12.4009  -9.2673  -9.1014   1.3935
     2.1733   2.6716   2.7732   3.3214   3.3484   3.3603   3.8079   4.0640
     5.5617   7.1964   7.5350   8.9903   9.9016

     occupation numbers 
     1.0000   1.0000   1.0000   1.0000   1.0000   1.0000   1.0000   1.0000
     1.0000   1.0000   1.0000   1.0000   1.0000   1.0000   1.0000   1.0000
     1.0000  -0.0000  -0.0000  -0.0000  -0.0000

          k =-1.9966-0.1073-0.0338 ( 12148 PWs)   bands (ev):

   -49.8594 -26.1046 -25.7943 -25.7230 -12.3552  -9.2383  -9.1248   1.4333
     2.1299   2.6800   2.6830   2.9096   3.2909   3.6427   3.7766   4.0122
     5.5668   7.3114   7.5923   8.9981  10.0322

     occupation numbers 
     1.0000   1.0000   1.0000   1.0000   1.0000   1.0000   1.0000   1.0000
     1.0000   1.0000   1.0000   1.0000   1.0000   1.0000   1.0000   1.0000
     1.0000  -0.0000  -0.0000  -0.0000  -0.0000

          k =-1.8718 0.0000-0.0338 ( 12126 PWs)   bands (ev):

   -49.8589 -26.0967 -25.7931 -25.7316 -12.3965  -9.2371  -9.1093   1.4713
     1.9923   2.6941   2.7813   3.1910   3.3989   3.4425   3.7848   3.9643
     5.7233   7.1587   7.5102   8.9227   9.9294

     occupation numbers 
     1.0000   1.0000   1.0000   1.0000   1.0000   1.0000   1.0000   1.0000
     1.0000   1.0000   1.0000   1.0000   1.0000   1.0000   1.0000   1.0000
     1.0000  -0.0000  -0.0000  -0.0000  -0.0000

          k = 0.0000 1.5026 0.0000 ( 12172 PWs)   bands (ev):

   -49.8590 -26.1250 -25.7936 -25.7224 -12.2227  -9.2070  -9.1375   1.4103
     2.1397   2.3739   2.4577   2.6837   3.2071   3.3731   3.9144   4.0836
     5.5809   7.6196   7.7570   8.9946  10.3148

     occupation numbers 
     1.0000   1.0000   1.0000   1.0000   1.0000   1.0000   1.0000   1.0000
     1.0000   1.0000   1.0000   1.0000   1.0000   1.0000   1.0000   1.0000
     1.0000  -0.0000  -0.0000  -0.0000  -0.0000

          k =-1.8718-0.1073 0.0000 ( 12141 PWs)   bands (ev):

   -49.8588 -26.1039 -25.7929 -25.7313 -12.3508  -9.2216  -9.1185   1.4803
     1.9801   2.6477   2.6900   3.0457   3.1702   3.6480   3.8029   3.9103
     5.7277   7.2739   7.5649   8.9257  10.0521

     occupation numbers 
     1.0000   1.0000   1.0000   1.0000   1.0000   1.0000   1.0000   1.0000
     1.0000   1.0000   1.0000   1.0000   1.0000   1.0000   1.0000   1.0000
     1.0000  -0.0000  -0.0000  -0.0000  -0.0000

          k =-1.7470 0.0000 0.0000 ( 12151 PWs)   bands (ev):

   -49.8574 -26.0949 -25.7890 -25.7552 -12.3840  -9.2100  -9.0696   1.5646
     1.7011   2.7030   2.8088   2.8406   3.4679   3.6504   3.7642   3.8169
     6.0838   7.0591   7.4223   8.7636   9.9540

     occupation numbers 
     1.0000   1.0000   1.0000   1.0000   1.0000   1.0000   1.0000   1.0000
     1.0000   1.0000   1.0000   1.0000   1.0000   1.0000   1.0000   1.0000
     1.0000  -0.0000  -0.0000  -0.0000  -0.0000

          k =-1.9966-1.7173-0.5415 ( 12132 PWs)   bands (ev):

   -49.8595 -26.0974 -25.7946 -25.7233 -12.4008  -9.2351  -9.1351   1.4638
     2.1037   2.6821   2.7713   3.3130   3.3357   3.3836   3.7822   4.0561
     5.5617   7.1965   7.5425   9.0037   9.9180

     occupation numbers 
     1.0000   1.0000   1.0000   1.0000   1.0000   1.0000   1.0000   1.0000
     1.0000   1.0000   1.0000   1.0000   1.0000   1.0000   1.0000   1.0000
     1.0000  -0.0000  -0.0000  -0.0000  -0.0000

     the Fermi energy is     6.7733 ev

!    total energy              =    -534.96738206 Ry

     total all-electron energy =     -9636.857625 Ry
     estimated scf accuracy    <          1.3E-12 Ry
     smearing contrib. (-TS)   =      -0.00001354 Ry
     internal energy E=F+TS    =    -534.96736852 Ry

     The total energy is F=E-TS. E is the sum of the following terms:
     one-electron contribution =     -93.94359968 Ry
     hartree contribution      =      61.21104058 Ry
     xc contribution           =     -39.53546823 Ry
     ewald contribution        =    -135.48921389 Ry
     one-center paw contrib.   =    -327.21012730 Ry
      -> PAW hartree energy AE =      29.09962219 Ry
      -> PAW hartree energy PS =     -29.06955479 Ry
      -> PAW xc energy AE      =     -17.03920321 Ry
      -> PAW xc energy PS      =       7.41506664 Ry
      -> total E_H with PAW    =      61.24110798 Ry
      -> total E_XC with PAW   =     -49.15960480 Ry

     convergence has been achieved in  14 iterations

     Forces acting on atoms (cartesian axes, Ry/au):

     atom    1 type  1   force =     0.00000000    0.00000000    0.00000000
     atom    2 type  2   force =     0.00000000    0.00000000    0.03648438
     atom    3 type  2   force =     0.00000000    0.00000000   -0.03648438
     atom    4 type  3   force =     0.00000000    0.00000000    0.00000000
     The non-local contrib.  to forces
     atom    1 type  1   force =     0.00000000    0.00000000    0.00000000
     atom    2 type  2   force =     0.00000000    0.00000000    0.06511958
     atom    3 type  2   force =     0.00000000    0.00000000   -0.06511958
     atom    4 type  3   force =    -0.00000000   -0.00000000    0.00000000
     The ionic contribution  to forces
     atom    1 type  1   force =    -0.00000000   -0.00000000    0.00000000
     atom    2 type  2   force =     0.00000001    0.00000000  -10.07462875
     atom    3 type  2   force =    -0.00000001   -0.00000000   10.07462875
     atom    4 type  3   force =    -0.00000000   -0.00000000    0.00000000
     The local contribution  to forces
     atom    1 type  1   force =     0.00000000    0.00000000    0.00000000
     atom    2 type  2   force =     0.00000002   -0.00000003   10.04448951
     atom    3 type  2   force =    -0.00000002    0.00000003  -10.04448951
     atom    4 type  3   force =     0.00000000    0.00000000    0.00000000
     The core correction contribution to forces
     atom    1 type  1   force =     0.00000000    0.00000000    0.00000000
     atom    2 type  2   force =    -0.00000000    0.00000000    0.00150581
     atom    3 type  2   force =     0.00000000   -0.00000000   -0.00150581
     atom    4 type  3   force =     0.00000000    0.00000000    0.00000000
     The Hubbard contrib.    to forces
     atom    1 type  1   force =     0.00000000    0.00000000    0.00000000
     atom    2 type  2   force =     0.00000000    0.00000000    0.00000000
     atom    3 type  2   force =     0.00000000    0.00000000    0.00000000
     atom    4 type  3   force =     0.00000000    0.00000000    0.00000000
     The SCF correction term to forces
     atom    1 type  1   force =    -0.00000000   -0.00000000    0.00000000
     atom    2 type  2   force =     0.00000000   -0.00000000   -0.00000175
     atom    3 type  2   force =    -0.00000000    0.00000000    0.00000175
     atom    4 type  3   force =    -0.00000000   -0.00000000    0.00000000

     Total force =     0.051597     Total SCF correction =     0.000002


     Computing stress (Cartesian axis) and pressure

          total   stress  (Ry/bohr**3)                   (kbar)     P=      -39.38
  -0.00027751   0.00000000   0.00000000          -40.82        0.00        0.00
   0.00000000  -0.00025579   0.00000000            0.00      -37.63        0.00
   0.00000000   0.00000000  -0.00026984            0.00        0.00      -39.69

     kinetic stress (kbar)  14754.83      0.00      0.00
                                0.00  14817.30      0.00
                                0.00      0.00  14777.35

     local   stress (kbar) -18895.24     -0.00      0.00
                               -0.00 -24202.12      0.00
                                0.00      0.00   4095.10

     nonloc. stress (kbar)   8010.41     -0.00      0.00
                                0.00   7930.75     -0.00
                               -0.00     -0.00   8005.96

     hartree stress (kbar)   8374.66     -0.00     -0.00
                               -0.00  10108.53      0.00
                               -0.00      0.00  -2049.64

     exc-cor stress (kbar)  -1130.98     -0.00     -0.00
                               -0.00  -1121.53     -0.00
                               -0.00     -0.00  -1130.43

     corecor stress (kbar)  -2029.36     -0.00      0.00
                               -0.00  -2029.11      0.00
                                0.00      0.00  -2029.33

     ewald   stress (kbar)  -9125.13      0.00     -0.00
                                0.00  -5541.44     -0.00
                               -0.00     -0.00 -21708.70

     hubbard stress (kbar)      0.00      0.00      0.00
                                0.00      0.00      0.00
                                0.00      0.00      0.00

     DFT-D   stress (kbar)      0.00      0.00      0.00
                                0.00      0.00      0.00
                                0.00      0.00      0.00

     XDM     stress (kbar)      0.00      0.00      0.00
                                0.00      0.00      0.00
                                0.00      0.00      0.00

     dft-nl  stress (kbar)      0.00      0.00      0.00
                                0.00      0.00      0.00
                                0.00      0.00      0.00

     TS-vdW  stress (kbar)      0.00      0.00      0.00
                                0.00      0.00      0.00
                                0.00      0.00      0.00



     Writing output data file /zfs_data/gutierre/Scratch/Cl2NbO/smearing/16x16x16/0.003/tmp/Cl2NbO.save/
 
     init_run     :     12.72s CPU     13.10s WALL (       1 calls)
     electrons    :    417.90s CPU    427.80s WALL (       1 calls)
     forces       :      1.44s CPU      1.45s WALL (       1 calls)
     stress       :      4.04s CPU      4.06s WALL (       1 calls)

     Called by init_run:
     wfcinit      :     11.51s CPU     11.83s WALL (       1 calls)
     wfcinit:atom :      0.09s CPU      0.09s WALL (     621 calls)
     wfcinit:wfcr :     11.06s CPU     11.37s WALL (     621 calls)
     potinit      :      0.37s CPU      0.39s WALL (       1 calls)
     hinit0       :      0.48s CPU      0.49s WALL (       1 calls)

     Called by electrons:
     c_bands      :    342.52s CPU    350.55s WALL (      14 calls)
     sum_band     :     71.91s CPU     73.70s WALL (      14 calls)
     v_of_rho     :      1.35s CPU      1.38s WALL (      15 calls)
     v_h          :      0.11s CPU      0.11s WALL (      15 calls)
     v_xc         :      1.40s CPU      1.44s WALL (      17 calls)
     newd         :      1.16s CPU      1.18s WALL (      15 calls)
     PAW_pot      :      0.78s CPU      0.80s WALL (      15 calls)
     mix_rho      :      0.20s CPU      0.20s WALL (      14 calls)

     Called by c_bands:
     init_us_2    :      4.74s CPU      5.01s WALL (   19251 calls)
     cegterg      :    332.55s CPU    339.95s WALL (    8694 calls)

     Called by sum_band:
     sum_band:wei :      0.24s CPU      0.25s WALL (      14 calls)
     sum_band:loo :     70.37s CPU     72.08s WALL (      14 calls)
     sum_band:buf :      0.72s CPU      0.76s WALL (    8694 calls)
     sum_band:ini :      2.25s CPU      2.35s WALL (    8694 calls)
     sum_band:cal :      2.30s CPU      2.35s WALL (    8694 calls)
     sum_band:bec :      0.25s CPU      0.26s WALL (    8694 calls)
     addusdens    :      1.15s CPU      1.21s WALL (      14 calls)
     addusd:skk   :      0.01s CPU      0.01s WALL (      42 calls)
     addusd:dgemm :      0.32s CPU      0.38s WALL (      42 calls)
     addusd:qvan2 :      0.76s CPU      0.76s WALL (      42 calls)

     Called by *egterg:
     cdiaghg      :     17.39s CPU     17.83s WALL (   30799 calls)
     cegterg:over :      6.35s CPU      6.51s WALL (   22105 calls)
     cegterg:upda :      1.91s CPU      1.95s WALL (   22105 calls)
     cegterg:last :      3.07s CPU      3.11s WALL (   16784 calls)
     h_psi        :    306.21s CPU    313.14s WALL (   31420 calls)
     s_psi        :      2.09s CPU      2.12s WALL (   31420 calls)
     g_psi        :      0.40s CPU      0.41s WALL (   22105 calls)

     Called by h_psi:
     h_psi:calbec :      7.22s CPU      7.37s WALL (   31420 calls)
     vloc_psi     :    294.53s CPU    301.20s WALL (   31420 calls)
     add_vuspsi   :      3.33s CPU      3.41s WALL (   31420 calls)

     General routines
     calbec       :      9.75s CPU      9.97s WALL (   43219 calls)
     fft          :      1.16s CPU      1.17s WALL (     218 calls)
     ffts         :      0.02s CPU      0.02s WALL (      29 calls)
     fftw         :    322.45s CPU    330.20s WALL ( 1099272 calls)
     interpolate  :      0.11s CPU      0.11s WALL (      15 calls)
 
     Parallel routines
     fft_scatt_xy :     42.36s CPU     43.00s WALL ( 1099519 calls)
     fft_scatt_yz :    139.85s CPU    143.16s WALL ( 1099519 calls)

     PAW routines
     PAW_pot      :      0.78s CPU      0.80s WALL (      15 calls)
     PAW_symme    :      0.03s CPU      0.03s WALL (      29 calls)
 
     PWSCF        :   7m19.98s CPU   7m36.10s WALL

 
   This run was terminated on:  17:54: 8  18May2022            

=------------------------------------------------------------------------------=
   JOB DONE.
=------------------------------------------------------------------------------=
