MPI startup(): Warning: I_MPI_PMI_LIBRARY will be ignored since the hydra process manager was found
MPI startup(): Warning: I_MPI_PMI_LIBRARY will be ignored since the hydra process manager was found
MPI startup(): Warning: I_MPI_PMI_LIBRARY will be ignored since the hydra process manager was found
MPI startup(): Warning: I_MPI_PMI_LIBRARY will be ignored since the hydra process manager was found
MPI startup(): Warning: I_MPI_PMI_LIBRARY will be ignored since the hydra process manager was found
MPI startup(): Warning: I_MPI_PMI_LIBRARY will be ignored since the hydra process manager was found
MPI startup(): Warning: I_MPI_PMI_LIBRARY will be ignored since the hydra process manager was found
MPI startup(): Warning: I_MPI_PMI_LIBRARY will be ignored since the hydra process manager was found
MPI startup(): Warning: I_MPI_PMI_LIBRARY will be ignored since the hydra process manager was found
MPI startup(): Warning: I_MPI_PMI_LIBRARY will be ignored since the hydra process manager was found
MPI startup(): Warning: I_MPI_PMI_LIBRARY will be ignored since the hydra process manager was found
MPI startup(): Warning: I_MPI_PMI_LIBRARY will be ignored since the hydra process manager was found
MPI startup(): Warning: I_MPI_PMI_LIBRARY will be ignored since the hydra process manager was found
MPI startup(): Warning: I_MPI_PMI_LIBRARY will be ignored since the hydra process manager was found
MPI startup(): Warning: I_MPI_PMI_LIBRARY will be ignored since the hydra process manager was found
MPI startup(): Warning: I_MPI_PMI_LIBRARY will be ignored since the hydra process manager was found
MPI startup(): Warning: I_MPI_PMI_LIBRARY will be ignored since the hydra process manager was found
MPI startup(): Warning: I_MPI_PMI_LIBRARY will be ignored since the hydra process manager was found
MPI startup(): Warning: I_MPI_PMI_LIBRARY will be ignored since the hydra process manager was found
MPI startup(): Warning: I_MPI_PMI_LIBRARY will be ignored since the hydra process manager was found
MPI startup(): Warning: I_MPI_PMI_LIBRARY will be ignored since the hydra process manager was found
MPI startup(): Warning: I_MPI_PMI_LIBRARY will be ignored since the hydra process manager was found
MPI startup(): Warning: I_MPI_PMI_LIBRARY will be ignored since the hydra process manager was found
MPI startup(): Warning: I_MPI_PMI_LIBRARY will be ignored since the hydra process manager was found

     Program PWSCF v.6.7MaX starts on  1Aug2021 at 12:40:47 

     This program is part of the open-source Quantum ESPRESSO suite
     for quantum simulation of materials; please cite
         "P. Giannozzi et al., J. Phys.:Condens. Matter 21 395502 (2009);
         "P. Giannozzi et al., J. Phys.:Condens. Matter 29 465901 (2017);
          URL http://www.quantum-espresso.org", 
     in publications or presentations arising from this work. More details at
     http://www.quantum-espresso.org/quote

     Parallel version (MPI), running on    24 processors

     MPI processes distributed on     1 nodes
     R & G space division:  proc/nbgrp/npool/nimage =      24
     Waiting for input...
     Reading input from standard input

     Current dimensions of program PWSCF are:
     Max number of different atomic species (ntypx) = 10
     Max number of k-points (npk) =  40000
     Max angular momentum in pseudopotentials (lmaxx) =  3
     file Cr.rel-pbe-spn-kjpaw_psl.1.0.0.UPF: wavefunction(s)  3S 3P 3P 3D 3D renormalized
     file Si.rel-pbe-n-kjpaw_psl.1.0.0.UPF: wavefunction(s)  3S 3P 3P renormalized

     Subspace diagonalization in iterative solution of the eigenvalue problem:
     a serial algorithm will be used

     Message from routine setup:
     using ibrav=0 with symmetry is DISCOURAGED, use correct ibrav instead
 
     Parallelization info
     --------------------
     sticks:   dense  smooth     PW     G-vecs:    dense   smooth      PW
     Min         228      91     25                12702     3210     487
     Max         229      93     26                12704     3214     492
     Sum        5473    2201    621               304867    77053   11753
 


     bravais-lattice index     =            0
     lattice parameter (alat)  =       8.7475  a.u.
     unit-cell volume          =     669.3575 (a.u.)^3
     number of atoms/cell      =            8
     number of atomic types    =            2
     number of electrons       =        72.00
     number of Kohn-Sham states=           86
     kinetic-energy cutoff     =      90.0000  Ry
     charge density cutoff     =     900.0000  Ry
     scf convergence threshold =      1.0E-06
     mixing beta               =       0.7000
     number of iterations used =            8  plain     mixing
     Exchange-correlation= SLA  PW   PBX  PBC
                           (   1   4   3   4   0   0   0)
     Non magnetic calculation with spin-orbit


     celldm(1)=   8.747542  celldm(2)=   0.000000  celldm(3)=   0.000000
     celldm(4)=   0.000000  celldm(5)=   0.000000  celldm(6)=   0.000000

     crystal axes: (cart. coord. in units of alat)
               a(1) = (   1.000000   0.000000   0.000000 )  
               a(2) = (   0.000000   1.000000   0.000000 )  
               a(3) = (   0.000000   0.000000   1.000000 )  

     reciprocal axes: (cart. coord. in units 2 pi/alat)
               b(1) = (  1.000000  0.000000  0.000000 )  
               b(2) = (  0.000000  1.000000  0.000000 )  
               b(3) = (  0.000000  0.000000  1.000000 )  


     PseudoPot. # 1 for Cr read from file:
     ../../../../pseudo/Cr.rel-pbe-spn-kjpaw_psl.1.0.0.UPF
     MD5 check sum: 1e24e2b5251376a8b945118fca0c7981
     Pseudo is Projector augmented-wave + core cor, Zval = 14.0
     Generated using &quot;atomic&quot; code by A. Dal Corso  v.6.3
     Shape of augmentation charge: PSQ
     Using radial grid of 1183 points, 10 beta functions with: 
                l(1) =   0
                l(2) =   0
                l(3) =   1
                l(4) =   1
                l(5) =   1
                l(6) =   1
                l(7) =   2
                l(8) =   2
                l(9) =   2
               l(10) =   2
     Q(r) pseudized with 0 coefficients 


     PseudoPot. # 2 for Si read from file:
     ../../../../pseudo/Si.rel-pbe-n-kjpaw_psl.1.0.0.UPF
     MD5 check sum: d74f6caf6830ea4c2076867160cab1b0
     Pseudo is Projector augmented-wave + core cor, Zval =  4.0
     Generated using &quot;atomic&quot; code by A. Dal Corso  v.6.3
     Shape of augmentation charge: PSQ
     Using radial grid of 1141 points, 10 beta functions with: 
                l(1) =   0
                l(2) =   0
                l(3) =   1
                l(4) =   1
                l(5) =   1
                l(6) =   1
                l(7) =   2
                l(8) =   2
                l(9) =   2
               l(10) =   2
     Q(r) pseudized with 0 coefficients 


     atomic species   valence    mass     pseudopotential
        Cr            14.00    51.99600     Cr( 1.00)
        Si             4.00    28.08500     Si( 1.00)

     12 Sym. Ops. (no inversion) found ( 9 have fractional translation)


                                    s                        frac. trans.

      isym =  1     identity                                     

 cryst.   s( 1) = (     1          0          0      )
                  (     0          1          0      )
                  (     0          0          1      )

 cart.    s( 1) = (  1.0000000  0.0000000  0.0000000 )
                  (  0.0000000  1.0000000  0.0000000 )
                  (  0.0000000  0.0000000  1.0000000 )


      isym =  2     180 deg rotation - cart. axis [0,0,1]        

 cryst.   s( 2) = (    -1          0          0      )    f =(  0.5000000 )
                  (     0         -1          0      )       (  0.0000000 )
                  (     0          0          1      )       ( -0.5000000 )

 cart.    s( 2) = ( -1.0000000  0.0000000  0.0000000 )    f =(  0.5000000 )
                  (  0.0000000 -1.0000000  0.0000000 )       (  0.0000000 )
                  (  0.0000000  0.0000000  1.0000000 )       ( -0.5000000 )


      isym =  3     180 deg rotation - cart. axis [0,1,0]        

 cryst.   s( 3) = (    -1          0          0      )    f =(  0.0000000 )
                  (     0          1          0      )       ( -0.5000000 )
                  (     0          0         -1      )       (  0.5000000 )

 cart.    s( 3) = ( -1.0000000  0.0000000  0.0000000 )    f =(  0.0000000 )
                  (  0.0000000  1.0000000  0.0000000 )       ( -0.5000000 )
                  (  0.0000000  0.0000000 -1.0000000 )       (  0.5000000 )


      isym =  4     180 deg rotation - cart. axis [1,0,0]        

 cryst.   s( 4) = (     1          0          0      )    f =(  0.5000000 )
                  (     0         -1          0      )       (  0.5000000 )
                  (     0          0         -1      )       (  0.0000000 )

 cart.    s( 4) = (  1.0000000  0.0000000  0.0000000 )    f =(  0.5000000 )
                  (  0.0000000 -1.0000000  0.0000000 )       (  0.5000000 )
                  (  0.0000000  0.0000000 -1.0000000 )       (  0.0000000 )


      isym =  5     120 deg rotation - cart. axis [-1,-1,-1]     

 cryst.   s( 5) = (     0          0          1      )
                  (     1          0          0      )
                  (     0          1          0      )

 cart.    s( 5) = (  0.0000000  1.0000000  0.0000000 )
                  (  0.0000000  0.0000000  1.0000000 )
                  (  1.0000000  0.0000000  0.0000000 )


      isym =  6     120 deg rotation - cart. axis [-1,1,1]       

 cryst.   s( 6) = (     0          0         -1      )    f =(  0.0000000 )
                  (    -1          0          0      )       ( -0.5000000 )
                  (     0          1          0      )       (  0.5000000 )

 cart.    s( 6) = (  0.0000000 -1.0000000  0.0000000 )    f =(  0.0000000 )
                  (  0.0000000  0.0000000  1.0000000 )       ( -0.5000000 )
                  ( -1.0000000  0.0000000  0.0000000 )       (  0.5000000 )


      isym =  7     120 deg rotation - cart. axis [1,1,-1]       

 cryst.   s( 7) = (     0          0         -1      )    f =(  0.5000000 )
                  (     1          0          0      )       (  0.5000000 )
                  (     0         -1          0      )       (  0.0000000 )

 cart.    s( 7) = (  0.0000000  1.0000000  0.0000000 )    f =(  0.5000000 )
                  (  0.0000000  0.0000000 -1.0000000 )       (  0.5000000 )
                  ( -1.0000000  0.0000000  0.0000000 )       (  0.0000000 )


      isym =  8     120 deg rotation - cart. axis [1,-1,1]       

 cryst.   s( 8) = (     0          0          1      )    f =(  0.5000000 )
                  (    -1          0          0      )       (  0.0000000 )
                  (     0         -1          0      )       ( -0.5000000 )

 cart.    s( 8) = (  0.0000000 -1.0000000  0.0000000 )    f =(  0.5000000 )
                  (  0.0000000  0.0000000 -1.0000000 )       (  0.0000000 )
                  (  1.0000000  0.0000000  0.0000000 )       ( -0.5000000 )


      isym =  9     120 deg rotation - cart. axis [1,1,1]        

 cryst.   s( 9) = (     0          1          0      )
                  (     0          0          1      )
                  (     1          0          0      )

 cart.    s( 9) = (  0.0000000  0.0000000  1.0000000 )
                  (  1.0000000  0.0000000  0.0000000 )
                  (  0.0000000  1.0000000  0.0000000 )


      isym = 10     120 deg rotation - cart. axis [-1,1,-1]      

 cryst.   s(10) = (     0         -1          0      )    f =(  0.5000000 )
                  (     0          0         -1      )       (  0.5000000 )
                  (     1          0          0      )       (  0.0000000 )

 cart.    s(10) = (  0.0000000  0.0000000  1.0000000 )    f =(  0.5000000 )
                  ( -1.0000000  0.0000000  0.0000000 )       (  0.5000000 )
                  (  0.0000000 -1.0000000  0.0000000 )       (  0.0000000 )


      isym = 11     120 deg rotation - cart. axis [1,-1,-1]      

 cryst.   s(11) = (     0         -1          0      )    f =(  0.5000000 )
                  (     0          0          1      )       (  0.0000000 )
                  (    -1          0          0      )       ( -0.5000000 )

 cart.    s(11) = (  0.0000000  0.0000000 -1.0000000 )    f =(  0.5000000 )
                  ( -1.0000000  0.0000000  0.0000000 )       (  0.0000000 )
                  (  0.0000000  1.0000000  0.0000000 )       ( -0.5000000 )


      isym = 12     120 deg rotation - cart. axis [-1,-1,1]      

 cryst.   s(12) = (     0          1          0      )    f =(  0.0000000 )
                  (     0          0         -1      )       ( -0.5000000 )
                  (    -1          0          0      )       (  0.5000000 )

 cart.    s(12) = (  0.0000000  0.0000000 -1.0000000 )    f =(  0.0000000 )
                  (  1.0000000  0.0000000  0.0000000 )       ( -0.5000000 )
                  (  0.0000000 -1.0000000  0.0000000 )       (  0.5000000 )


   Cartesian axes

     site n.     atom                  positions (alat units)
         1           Cr  tau(   1) = (   0.8640000   0.3640000   0.1360000  )
         2           Cr  tau(   2) = (   0.3640000   0.1360000   0.8640000  )
         3           Cr  tau(   3) = (   0.1360000   0.8640000   0.3640000  )
         4           Cr  tau(   4) = (   0.6360000   0.6360000   0.6360000  )
         5           Si  tau(   5) = (   0.1540000   0.6540000   0.8460000  )
         6           Si  tau(   6) = (   0.6540000   0.8460000   0.1540000  )
         7           Si  tau(   7) = (   0.8460000   0.1540000   0.6540000  )
         8           Si  tau(   8) = (   0.3460000   0.3460000   0.3460000  )

   Crystallographic axes

     site n.     atom                  positions (cryst. coord.)
         1           Cr  tau(   1) = (  0.8640000  0.3640000  0.1360000  )
         2           Cr  tau(   2) = (  0.3640000  0.1360000  0.8640000  )
         3           Cr  tau(   3) = (  0.1360000  0.8640000  0.3640000  )
         4           Cr  tau(   4) = (  0.6360000  0.6360000  0.6360000  )
         5           Si  tau(   5) = (  0.1540000  0.6540000  0.8460000  )
         6           Si  tau(   6) = (  0.6540000  0.8460000  0.1540000  )
         7           Si  tau(   7) = (  0.8460000  0.1540000  0.6540000  )
         8           Si  tau(   8) = (  0.3460000  0.3460000  0.3460000  )

     number of k points=   119  Methfessel-Paxton smearing, width (Ry)=  0.0200
                       cart. coord. in units 2pi/alat
        k(    1) = (   0.0000000   0.0000000   0.0000000), wk =   0.0005787
        k(    2) = (   0.0000000   0.0000000   0.0833333), wk =   0.0034722
        k(    3) = (   0.0000000   0.0000000   0.1666667), wk =   0.0034722
        k(    4) = (   0.0000000   0.0000000   0.2500000), wk =   0.0034722
        k(    5) = (   0.0000000   0.0000000   0.3333333), wk =   0.0034722
        k(    6) = (   0.0000000   0.0000000   0.4166667), wk =   0.0034722
        k(    7) = (   0.0000000   0.0000000  -0.5000000), wk =   0.0017361
        k(    8) = (   0.0000000   0.0833333   0.0833333), wk =   0.0069444
        k(    9) = (   0.0000000   0.0833333   0.1666667), wk =   0.0069444
        k(   10) = (   0.0000000   0.0833333   0.2500000), wk =   0.0069444
        k(   11) = (   0.0000000   0.0833333   0.3333333), wk =   0.0069444
        k(   12) = (   0.0000000   0.0833333   0.4166667), wk =   0.0069444
        k(   13) = (   0.0000000   0.0833333  -0.5000000), wk =   0.0034722
        k(   14) = (   0.0000000   0.1666667   0.1666667), wk =   0.0069444
        k(   15) = (   0.0000000   0.1666667   0.2500000), wk =   0.0069444
        k(   16) = (   0.0000000   0.1666667   0.3333333), wk =   0.0069444
        k(   17) = (   0.0000000   0.1666667   0.4166667), wk =   0.0069444
        k(   18) = (   0.0000000   0.1666667  -0.5000000), wk =   0.0034722
        k(   19) = (   0.0000000   0.2500000   0.2500000), wk =   0.0069444
        k(   20) = (   0.0000000   0.2500000   0.3333333), wk =   0.0069444
        k(   21) = (   0.0000000   0.2500000   0.4166667), wk =   0.0069444
        k(   22) = (   0.0000000   0.2500000  -0.5000000), wk =   0.0034722
        k(   23) = (   0.0000000   0.3333333   0.3333333), wk =   0.0069444
        k(   24) = (   0.0000000   0.3333333   0.4166667), wk =   0.0069444
        k(   25) = (   0.0000000   0.3333333  -0.5000000), wk =   0.0034722
        k(   26) = (   0.0000000   0.4166667   0.4166667), wk =   0.0069444
        k(   27) = (   0.0000000   0.4166667  -0.5000000), wk =   0.0034722
        k(   28) = (   0.0000000  -0.5000000  -0.5000000), wk =   0.0017361
        k(   29) = (   0.0833333   0.0833333   0.0833333), wk =   0.0046296
        k(   30) = (   0.0833333   0.0833333   0.1666667), wk =   0.0138889
        k(   31) = (   0.0833333   0.0833333   0.2500000), wk =   0.0138889
        k(   32) = (   0.0833333   0.0833333   0.3333333), wk =   0.0138889
        k(   33) = (   0.0833333   0.0833333   0.4166667), wk =   0.0138889
        k(   34) = (   0.0833333   0.0833333  -0.5000000), wk =   0.0069444
        k(   35) = (   0.0833333   0.1666667   0.1666667), wk =   0.0138889
        k(   36) = (   0.0833333   0.1666667   0.2500000), wk =   0.0138889
        k(   37) = (   0.0833333   0.1666667   0.3333333), wk =   0.0138889
        k(   38) = (   0.0833333   0.1666667   0.4166667), wk =   0.0138889
        k(   39) = (   0.0833333   0.1666667  -0.5000000), wk =   0.0069444
        k(   40) = (   0.0833333   0.2500000   0.2500000), wk =   0.0138889
        k(   41) = (   0.0833333   0.2500000   0.3333333), wk =   0.0138889
        k(   42) = (   0.0833333   0.2500000   0.4166667), wk =   0.0138889
        k(   43) = (   0.0833333   0.2500000  -0.5000000), wk =   0.0069444
        k(   44) = (   0.0833333   0.3333333   0.3333333), wk =   0.0138889
        k(   45) = (   0.0833333   0.3333333   0.4166667), wk =   0.0138889
        k(   46) = (   0.0833333   0.3333333  -0.5000000), wk =   0.0069444
        k(   47) = (   0.0833333   0.4166667   0.4166667), wk =   0.0138889
        k(   48) = (   0.0833333   0.4166667  -0.5000000), wk =   0.0069444
        k(   49) = (   0.0833333  -0.5000000  -0.5000000), wk =   0.0034722
        k(   50) = (   0.1666667   0.1666667   0.1666667), wk =   0.0046296
        k(   51) = (   0.1666667   0.1666667   0.2500000), wk =   0.0138889
        k(   52) = (   0.1666667   0.1666667   0.3333333), wk =   0.0138889
        k(   53) = (   0.1666667   0.1666667   0.4166667), wk =   0.0138889
        k(   54) = (   0.1666667   0.1666667  -0.5000000), wk =   0.0069444
        k(   55) = (   0.1666667   0.2500000   0.2500000), wk =   0.0138889
        k(   56) = (   0.1666667   0.2500000   0.3333333), wk =   0.0138889
        k(   57) = (   0.1666667   0.2500000   0.4166667), wk =   0.0138889
        k(   58) = (   0.1666667   0.2500000  -0.5000000), wk =   0.0069444
        k(   59) = (   0.1666667   0.3333333   0.3333333), wk =   0.0138889
        k(   60) = (   0.1666667   0.3333333   0.4166667), wk =   0.0138889
        k(   61) = (   0.1666667   0.3333333  -0.5000000), wk =   0.0069444
        k(   62) = (   0.1666667   0.4166667   0.4166667), wk =   0.0138889
        k(   63) = (   0.1666667   0.4166667  -0.5000000), wk =   0.0069444
        k(   64) = (   0.1666667  -0.5000000  -0.5000000), wk =   0.0034722
        k(   65) = (   0.2500000   0.2500000   0.2500000), wk =   0.0046296
        k(   66) = (   0.2500000   0.2500000   0.3333333), wk =   0.0138889
        k(   67) = (   0.2500000   0.2500000   0.4166667), wk =   0.0138889
        k(   68) = (   0.2500000   0.2500000  -0.5000000), wk =   0.0069444
        k(   69) = (   0.2500000   0.3333333   0.3333333), wk =   0.0138889
        k(   70) = (   0.2500000   0.3333333   0.4166667), wk =   0.0138889
        k(   71) = (   0.2500000   0.3333333  -0.5000000), wk =   0.0069444
        k(   72) = (   0.2500000   0.4166667   0.4166667), wk =   0.0138889
        k(   73) = (   0.2500000   0.4166667  -0.5000000), wk =   0.0069444
        k(   74) = (   0.2500000  -0.5000000  -0.5000000), wk =   0.0034722
        k(   75) = (   0.3333333   0.3333333   0.3333333), wk =   0.0046296
        k(   76) = (   0.3333333   0.3333333   0.4166667), wk =   0.0138889
        k(   77) = (   0.3333333   0.3333333  -0.5000000), wk =   0.0069444
        k(   78) = (   0.3333333   0.4166667   0.4166667), wk =   0.0138889
        k(   79) = (   0.3333333   0.4166667  -0.5000000), wk =   0.0069444
        k(   80) = (   0.3333333  -0.5000000  -0.5000000), wk =   0.0034722
        k(   81) = (   0.4166667   0.4166667   0.4166667), wk =   0.0046296
        k(   82) = (   0.4166667   0.4166667  -0.5000000), wk =   0.0069444
        k(   83) = (   0.4166667  -0.5000000  -0.5000000), wk =   0.0034722
        k(   84) = (  -0.5000000  -0.5000000  -0.5000000), wk =   0.0005787
        k(   85) = (   0.0000000   0.1666667   0.0833333), wk =   0.0069444
        k(   86) = (   0.0000000   0.2500000   0.0833333), wk =   0.0069444
        k(   87) = (   0.0000000   0.3333333   0.0833333), wk =   0.0069444
        k(   88) = (   0.0000000   0.4166667   0.0833333), wk =   0.0069444
        k(   89) = (   0.0000000  -0.5000000   0.0833333), wk =   0.0034722
        k(   90) = (   0.0000000   0.2500000   0.1666667), wk =   0.0069444
        k(   91) = (   0.0000000   0.3333333   0.1666667), wk =   0.0069444
        k(   92) = (   0.0000000   0.4166667   0.1666667), wk =   0.0069444
        k(   93) = (   0.0000000  -0.5000000   0.1666667), wk =   0.0034722
        k(   94) = (   0.0000000   0.3333333   0.2500000), wk =   0.0069444
        k(   95) = (   0.0000000   0.4166667   0.2500000), wk =   0.0069444
        k(   96) = (   0.0000000  -0.5000000   0.2500000), wk =   0.0034722
        k(   97) = (   0.0000000   0.4166667   0.3333333), wk =   0.0069444
        k(   98) = (   0.0000000  -0.5000000   0.3333333), wk =   0.0034722
        k(   99) = (   0.0000000  -0.5000000   0.4166667), wk =   0.0034722
        k(  100) = (  -0.0833333   0.2500000   0.1666667), wk =   0.0138889
        k(  101) = (  -0.0833333   0.3333333   0.1666667), wk =   0.0138889
        k(  102) = (  -0.0833333   0.4166667   0.1666667), wk =   0.0138889
        k(  103) = (  -0.0833333  -0.5000000   0.1666667), wk =   0.0069444
        k(  104) = (  -0.0833333   0.3333333   0.2500000), wk =   0.0138889
        k(  105) = (  -0.0833333   0.4166667   0.2500000), wk =   0.0138889
        k(  106) = (  -0.0833333  -0.5000000   0.2500000), wk =   0.0069444
        k(  107) = (  -0.0833333   0.4166667   0.3333333), wk =   0.0138889
        k(  108) = (  -0.0833333  -0.5000000   0.3333333), wk =   0.0069444
        k(  109) = (  -0.0833333  -0.5000000   0.4166667), wk =   0.0069444
        k(  110) = (  -0.1666667   0.3333333   0.2500000), wk =   0.0138889
        k(  111) = (  -0.1666667   0.4166667   0.2500000), wk =   0.0138889
        k(  112) = (  -0.1666667  -0.5000000   0.2500000), wk =   0.0069444
        k(  113) = (  -0.1666667   0.4166667   0.3333333), wk =   0.0138889
        k(  114) = (  -0.1666667  -0.5000000   0.3333333), wk =   0.0069444
        k(  115) = (  -0.1666667  -0.5000000   0.4166667), wk =   0.0069444
        k(  116) = (  -0.2500000   0.4166667   0.3333333), wk =   0.0138889
        k(  117) = (  -0.2500000  -0.5000000   0.3333333), wk =   0.0069444
        k(  118) = (  -0.2500000  -0.5000000   0.4166667), wk =   0.0069444
        k(  119) = (  -0.3333333  -0.5000000   0.4166667), wk =   0.0069444

                       cryst. coord.
        k(    1) = (   0.0000000   0.0000000   0.0000000), wk =   0.0005787
        k(    2) = (   0.0000000   0.0000000   0.0833333), wk =   0.0034722
        k(    3) = (   0.0000000   0.0000000   0.1666667), wk =   0.0034722
        k(    4) = (   0.0000000   0.0000000   0.2500000), wk =   0.0034722
        k(    5) = (   0.0000000   0.0000000   0.3333333), wk =   0.0034722
        k(    6) = (   0.0000000   0.0000000   0.4166667), wk =   0.0034722
        k(    7) = (   0.0000000   0.0000000  -0.5000000), wk =   0.0017361
        k(    8) = (   0.0000000   0.0833333   0.0833333), wk =   0.0069444
        k(    9) = (   0.0000000   0.0833333   0.1666667), wk =   0.0069444
        k(   10) = (   0.0000000   0.0833333   0.2500000), wk =   0.0069444
        k(   11) = (   0.0000000   0.0833333   0.3333333), wk =   0.0069444
        k(   12) = (   0.0000000   0.0833333   0.4166667), wk =   0.0069444
        k(   13) = (   0.0000000   0.0833333  -0.5000000), wk =   0.0034722
        k(   14) = (   0.0000000   0.1666667   0.1666667), wk =   0.0069444
        k(   15) = (   0.0000000   0.1666667   0.2500000), wk =   0.0069444
        k(   16) = (   0.0000000   0.1666667   0.3333333), wk =   0.0069444
        k(   17) = (   0.0000000   0.1666667   0.4166667), wk =   0.0069444
        k(   18) = (   0.0000000   0.1666667  -0.5000000), wk =   0.0034722
        k(   19) = (   0.0000000   0.2500000   0.2500000), wk =   0.0069444
        k(   20) = (   0.0000000   0.2500000   0.3333333), wk =   0.0069444
        k(   21) = (   0.0000000   0.2500000   0.4166667), wk =   0.0069444
        k(   22) = (   0.0000000   0.2500000  -0.5000000), wk =   0.0034722
        k(   23) = (   0.0000000   0.3333333   0.3333333), wk =   0.0069444
        k(   24) = (   0.0000000   0.3333333   0.4166667), wk =   0.0069444
        k(   25) = (   0.0000000   0.3333333  -0.5000000), wk =   0.0034722
        k(   26) = (   0.0000000   0.4166667   0.4166667), wk =   0.0069444
        k(   27) = (   0.0000000   0.4166667  -0.5000000), wk =   0.0034722
        k(   28) = (   0.0000000  -0.5000000  -0.5000000), wk =   0.0017361
        k(   29) = (   0.0833333   0.0833333   0.0833333), wk =   0.0046296
        k(   30) = (   0.0833333   0.0833333   0.1666667), wk =   0.0138889
        k(   31) = (   0.0833333   0.0833333   0.2500000), wk =   0.0138889
        k(   32) = (   0.0833333   0.0833333   0.3333333), wk =   0.0138889
        k(   33) = (   0.0833333   0.0833333   0.4166667), wk =   0.0138889
        k(   34) = (   0.0833333   0.0833333  -0.5000000), wk =   0.0069444
        k(   35) = (   0.0833333   0.1666667   0.1666667), wk =   0.0138889
        k(   36) = (   0.0833333   0.1666667   0.2500000), wk =   0.0138889
        k(   37) = (   0.0833333   0.1666667   0.3333333), wk =   0.0138889
        k(   38) = (   0.0833333   0.1666667   0.4166667), wk =   0.0138889
        k(   39) = (   0.0833333   0.1666667  -0.5000000), wk =   0.0069444
        k(   40) = (   0.0833333   0.2500000   0.2500000), wk =   0.0138889
        k(   41) = (   0.0833333   0.2500000   0.3333333), wk =   0.0138889
        k(   42) = (   0.0833333   0.2500000   0.4166667), wk =   0.0138889
        k(   43) = (   0.0833333   0.2500000  -0.5000000), wk =   0.0069444
        k(   44) = (   0.0833333   0.3333333   0.3333333), wk =   0.0138889
        k(   45) = (   0.0833333   0.3333333   0.4166667), wk =   0.0138889
        k(   46) = (   0.0833333   0.3333333  -0.5000000), wk =   0.0069444
        k(   47) = (   0.0833333   0.4166667   0.4166667), wk =   0.0138889
        k(   48) = (   0.0833333   0.4166667  -0.5000000), wk =   0.0069444
        k(   49) = (   0.0833333  -0.5000000  -0.5000000), wk =   0.0034722
        k(   50) = (   0.1666667   0.1666667   0.1666667), wk =   0.0046296
        k(   51) = (   0.1666667   0.1666667   0.2500000), wk =   0.0138889
        k(   52) = (   0.1666667   0.1666667   0.3333333), wk =   0.0138889
        k(   53) = (   0.1666667   0.1666667   0.4166667), wk =   0.0138889
        k(   54) = (   0.1666667   0.1666667  -0.5000000), wk =   0.0069444
        k(   55) = (   0.1666667   0.2500000   0.2500000), wk =   0.0138889
        k(   56) = (   0.1666667   0.2500000   0.3333333), wk =   0.0138889
        k(   57) = (   0.1666667   0.2500000   0.4166667), wk =   0.0138889
        k(   58) = (   0.1666667   0.2500000  -0.5000000), wk =   0.0069444
        k(   59) = (   0.1666667   0.3333333   0.3333333), wk =   0.0138889
        k(   60) = (   0.1666667   0.3333333   0.4166667), wk =   0.0138889
        k(   61) = (   0.1666667   0.3333333  -0.5000000), wk =   0.0069444
        k(   62) = (   0.1666667   0.4166667   0.4166667), wk =   0.0138889
        k(   63) = (   0.1666667   0.4166667  -0.5000000), wk =   0.0069444
        k(   64) = (   0.1666667  -0.5000000  -0.5000000), wk =   0.0034722
        k(   65) = (   0.2500000   0.2500000   0.2500000), wk =   0.0046296
        k(   66) = (   0.2500000   0.2500000   0.3333333), wk =   0.0138889
        k(   67) = (   0.2500000   0.2500000   0.4166667), wk =   0.0138889
        k(   68) = (   0.2500000   0.2500000  -0.5000000), wk =   0.0069444
        k(   69) = (   0.2500000   0.3333333   0.3333333), wk =   0.0138889
        k(   70) = (   0.2500000   0.3333333   0.4166667), wk =   0.0138889
        k(   71) = (   0.2500000   0.3333333  -0.5000000), wk =   0.0069444
        k(   72) = (   0.2500000   0.4166667   0.4166667), wk =   0.0138889
        k(   73) = (   0.2500000   0.4166667  -0.5000000), wk =   0.0069444
        k(   74) = (   0.2500000  -0.5000000  -0.5000000), wk =   0.0034722
        k(   75) = (   0.3333333   0.3333333   0.3333333), wk =   0.0046296
        k(   76) = (   0.3333333   0.3333333   0.4166667), wk =   0.0138889
        k(   77) = (   0.3333333   0.3333333  -0.5000000), wk =   0.0069444
        k(   78) = (   0.3333333   0.4166667   0.4166667), wk =   0.0138889
        k(   79) = (   0.3333333   0.4166667  -0.5000000), wk =   0.0069444
        k(   80) = (   0.3333333  -0.5000000  -0.5000000), wk =   0.0034722
        k(   81) = (   0.4166667   0.4166667   0.4166667), wk =   0.0046296
        k(   82) = (   0.4166667   0.4166667  -0.5000000), wk =   0.0069444
        k(   83) = (   0.4166667  -0.5000000  -0.5000000), wk =   0.0034722
        k(   84) = (  -0.5000000  -0.5000000  -0.5000000), wk =   0.0005787
        k(   85) = (   0.0000000   0.1666667   0.0833333), wk =   0.0069444
        k(   86) = (   0.0000000   0.2500000   0.0833333), wk =   0.0069444
        k(   87) = (   0.0000000   0.3333333   0.0833333), wk =   0.0069444
        k(   88) = (   0.0000000   0.4166667   0.0833333), wk =   0.0069444
        k(   89) = (   0.0000000  -0.5000000   0.0833333), wk =   0.0034722
        k(   90) = (   0.0000000   0.2500000   0.1666667), wk =   0.0069444
        k(   91) = (   0.0000000   0.3333333   0.1666667), wk =   0.0069444
        k(   92) = (   0.0000000   0.4166667   0.1666667), wk =   0.0069444
        k(   93) = (   0.0000000  -0.5000000   0.1666667), wk =   0.0034722
        k(   94) = (   0.0000000   0.3333333   0.2500000), wk =   0.0069444
        k(   95) = (   0.0000000   0.4166667   0.2500000), wk =   0.0069444
        k(   96) = (   0.0000000  -0.5000000   0.2500000), wk =   0.0034722
        k(   97) = (   0.0000000   0.4166667   0.3333333), wk =   0.0069444
        k(   98) = (   0.0000000  -0.5000000   0.3333333), wk =   0.0034722
        k(   99) = (   0.0000000  -0.5000000   0.4166667), wk =   0.0034722
        k(  100) = (  -0.0833333   0.2500000   0.1666667), wk =   0.0138889
        k(  101) = (  -0.0833333   0.3333333   0.1666667), wk =   0.0138889
        k(  102) = (  -0.0833333   0.4166667   0.1666667), wk =   0.0138889
        k(  103) = (  -0.0833333  -0.5000000   0.1666667), wk =   0.0069444
        k(  104) = (  -0.0833333   0.3333333   0.2500000), wk =   0.0138889
        k(  105) = (  -0.0833333   0.4166667   0.2500000), wk =   0.0138889
        k(  106) = (  -0.0833333  -0.5000000   0.2500000), wk =   0.0069444
        k(  107) = (  -0.0833333   0.4166667   0.3333333), wk =   0.0138889
        k(  108) = (  -0.0833333  -0.5000000   0.3333333), wk =   0.0069444
        k(  109) = (  -0.0833333  -0.5000000   0.4166667), wk =   0.0069444
        k(  110) = (  -0.1666667   0.3333333   0.2500000), wk =   0.0138889
        k(  111) = (  -0.1666667   0.4166667   0.2500000), wk =   0.0138889
        k(  112) = (  -0.1666667  -0.5000000   0.2500000), wk =   0.0069444
        k(  113) = (  -0.1666667   0.4166667   0.3333333), wk =   0.0138889
        k(  114) = (  -0.1666667  -0.5000000   0.3333333), wk =   0.0069444
        k(  115) = (  -0.1666667  -0.5000000   0.4166667), wk =   0.0069444
        k(  116) = (  -0.2500000   0.4166667   0.3333333), wk =   0.0138889
        k(  117) = (  -0.2500000  -0.5000000   0.3333333), wk =   0.0069444
        k(  118) = (  -0.2500000  -0.5000000   0.4166667), wk =   0.0069444
        k(  119) = (  -0.3333333  -0.5000000   0.4166667), wk =   0.0069444

     Dense  grid:   304867 G-vectors     FFT dimensions: (  90,  90,  90)

     Smooth grid:    77053 G-vectors     FFT dimensions: (  54,  54,  54)

     Dynamical RAM for                 wfc:       1.06 MB

     Dynamical RAM for     wfc (w. buffer):     126.61 MB

     Dynamical RAM for           str. fact:       0.39 MB

     Dynamical RAM for           local pot:       0.00 MB

     Dynamical RAM for          nlocal pot:       1.67 MB

     Dynamical RAM for                qrad:      12.61 MB

     Dynamical RAM for          rho,v,vnew:       5.29 MB

     Dynamical RAM for               rhoin:       1.76 MB

     Dynamical RAM for            rho*nmix:      12.41 MB

     Dynamical RAM for           G-vectors:       0.75 MB

     Dynamical RAM for          h,s,v(r/c):       1.35 MB

     Dynamical RAM for          <psi|beta>:       0.71 MB

     Dynamical RAM for                 psi:       2.11 MB

     Dynamical RAM for                hpsi:       2.11 MB

     Dynamical RAM for                spsi:       2.11 MB

     Dynamical RAM for      wfcinit/wfcrot:       2.35 MB

     Dynamical RAM for           addusdens:     119.02 MB

     Dynamical RAM for          addusforce:     120.34 MB

     Dynamical RAM for         addusstress:     121.74 MB

     Estimated static dynamical RAM per process >     164.04 MB

     Estimated max dynamical RAM per process >     285.78 MB

     Estimated total dynamical RAM >       6.70 GB

     Initial potential from superposition of free atoms

     starting charge   71.99469, renormalised to   72.00000
     Starting wfcs are  112 randomized atomic wfcs
     Checking if some PAW data can be deallocated... 
       PAW data deallocated on   12 nodes for type:  1
       PAW data deallocated on   12 nodes for type:  2

     total cpu time spent up to now is       21.9 secs

     Self-consistent Calculation

     iteration #  1     ecut=    90.00 Ry     beta= 0.70
     Davidson diagonalization with overlap
     ethr =  1.00E-02,  avg # of iterations =  2.0

     Threshold (ethr) on eigenvalues was too large:
     Diagonalizing with lowered threshold

     Davidson diagonalization with overlap
     ethr =  2.09E-04,  avg # of iterations =  4.3

     total cpu time spent up to now is      139.2 secs

     total energy              =   -1180.30997524 Ry
     estimated scf accuracy    <       0.18900205 Ry

     iteration #  2     ecut=    90.00 Ry     beta= 0.70
     Davidson diagonalization with overlap
     ethr =  2.63E-04,  avg # of iterations =  3.2

     total cpu time spent up to now is      198.6 secs

     total energy              =   -1180.31484516 Ry
     estimated scf accuracy    <       0.08128227 Ry

     iteration #  3     ecut=    90.00 Ry     beta= 0.70
     Davidson diagonalization with overlap
     ethr =  1.13E-04,  avg # of iterations =  5.0

     total cpu time spent up to now is      271.2 secs

     total energy              =   -1180.32618278 Ry
     estimated scf accuracy    <       0.16213722 Ry

     iteration #  4     ecut=    90.00 Ry     beta= 0.70
     Davidson diagonalization with overlap
     ethr =  1.13E-04,  avg # of iterations =  4.1

     total cpu time spent up to now is      329.7 secs

     total energy              =   -1180.34999865 Ry
     estimated scf accuracy    <       0.00031389 Ry

     iteration #  5     ecut=    90.00 Ry     beta= 0.70
     Davidson diagonalization with overlap
     ethr =  4.36E-07,  avg # of iterations =  8.0

     total cpu time spent up to now is      420.5 secs

     total energy              =   -1180.35061635 Ry
     estimated scf accuracy    <       0.00032825 Ry

     iteration #  6     ecut=    90.00 Ry     beta= 0.70
     Davidson diagonalization with overlap
     ethr =  4.36E-07,  avg # of iterations =  2.8

     total cpu time spent up to now is      471.4 secs

     total energy              =   -1180.35066750 Ry
     estimated scf accuracy    <       0.00000496 Ry

     iteration #  7     ecut=    90.00 Ry     beta= 0.70
     Davidson diagonalization with overlap
     ethr =  6.89E-09,  avg # of iterations =  6.2

     total cpu time spent up to now is      549.8 secs

     total energy              =   -1180.35067087 Ry
     estimated scf accuracy    <       0.00003783 Ry

     iteration #  8     ecut=    90.00 Ry     beta= 0.70
     Davidson diagonalization with overlap
     ethr =  6.89E-09,  avg # of iterations =  5.1

     total cpu time spent up to now is      625.2 secs

     End of self-consistent calculation

          k = 0.0000 0.0000 0.0000 (  9771 PWs)   bands (ev):

   -56.5148 -56.5148 -56.4801 -56.4801 -56.4801 -56.4801 -56.4801 -56.4801
   -28.5802 -28.5802 -28.5727 -28.5727 -28.5727 -28.5727 -28.4834 -28.4834
   -27.6146 -27.6146 -27.6146 -27.6146 -27.5379 -27.5379 -27.5379 -27.5379
   -27.5331 -27.5331 -27.4507 -27.4507 -27.4504 -27.4504 -27.4504 -27.4504
     2.6984   2.6984   7.4567   7.4567   7.4567   7.4567   7.4659   7.4659
    10.5370  10.5370  10.5449  10.5449  10.5449  10.5449  11.9113  11.9113
    11.9113  11.9113  11.9224  11.9224  12.6024  12.6024  12.7721  12.7721
    12.7721  12.7721  13.1441  13.1441  13.1441  13.1441  13.1452  13.1452
    13.6721  13.6721  13.6721  13.6721  13.6759  13.6759  15.5521  15.5521
    15.5834  15.5834  15.5834  15.5834  15.7668  15.7668  15.7668  15.7668
    16.6655  16.6655  16.6958  16.6958  16.6958  16.6958

     occupation numbers 
     1.0000   1.0000   1.0000   1.0000   1.0000   1.0000   1.0000   1.0000
     1.0000   1.0000   1.0000   1.0000   1.0000   1.0000   1.0000   1.0000
     1.0000   1.0000   1.0000   1.0000   1.0000   1.0000   1.0000   1.0000
     1.0000   1.0000   1.0000   1.0000   1.0000   1.0000   1.0000   1.0000
     1.0000   1.0000   1.0000   1.0000   1.0000   1.0000   1.0000   1.0000
     1.0000   1.0000   1.0000   1.0000   1.0000   1.0000   1.0000   1.0000
     1.0000   1.0000   1.0000   1.0000   1.0000   1.0000   1.0000   1.0000
     1.0000   1.0000   1.0000   1.0000   1.0000   1.0000   1.0000   1.0000
     1.0000   1.0000   1.0000   1.0000   1.0000   1.0000  -0.0040  -0.0040
    -0.0026  -0.0026  -0.0026  -0.0026  -0.0001  -0.0001  -0.0001  -0.0001
    -0.0000  -0.0000  -0.0000  -0.0000  -0.0000  -0.0000

          k = 0.0000 0.0000 0.0833 (  9699 PWs)   bands (ev):

   -56.5144 -56.5144 -56.4827 -56.4827 -56.4800 -56.4800 -56.4782 -56.4782
   -28.5845 -28.5775 -28.5768 -28.5747 -28.5690 -28.5664 -28.4846 -28.4846
   -27.6239 -27.6192 -27.6087 -27.6041 -27.5439 -27.5420 -27.5387 -27.5339
   -27.5328 -27.5252 -27.4558 -27.4540 -27.4527 -27.4493 -27.4486 -27.4460
     2.7467   2.7467   7.0337   7.0378   7.4856   7.4865   7.8139   7.8219
    10.2172  10.2228  10.5747  10.5757  10.8835  10.8870  11.4917  11.4938
    11.7817  11.7847  12.3538  12.3678  12.5850  12.5876  12.7663  12.7741
    12.8424  12.8426  13.1213  13.1228  13.1622  13.1628  13.1863  13.1868
    13.5511  13.5564  13.6656  13.6663  13.8261  13.8270  15.4681  15.4907
    15.4962  15.4997  15.6798  15.6990  15.7470  15.7557  15.7592  15.7705
    16.5414  16.5604  16.6628  16.6643  16.8148  16.8349

     occupation numbers 
     1.0000   1.0000   1.0000   1.0000   1.0000   1.0000   1.0000   1.0000
     1.0000   1.0000   1.0000   1.0000   1.0000   1.0000   1.0000   1.0000
     1.0000   1.0000   1.0000   1.0000   1.0000   1.0000   1.0000   1.0000
     1.0000   1.0000   1.0000   1.0000   1.0000   1.0000   1.0000   1.0000
     1.0000   1.0000   1.0000   1.0000   1.0000   1.0000   1.0000   1.0000
     1.0000   1.0000   1.0000   1.0000   1.0000   1.0000   1.0000   1.0000
     1.0000   1.0000   1.0000   1.0000   1.0000   1.0000   1.0000   1.0000
     1.0000   1.0000   1.0000   1.0000   1.0000   1.0000   1.0000   1.0000
     1.0000   1.0000   1.0000   1.0000   1.0000   1.0000  -0.0113  -0.0088
    -0.0082  -0.0079  -0.0005  -0.0004  -0.0002  -0.0001  -0.0001  -0.0001
    -0.0000  -0.0000  -0.0000  -0.0000  -0.0000  -0.0000

          k = 0.0000 0.0000 0.1667 (  9663 PWs)   bands (ev):

   -56.5131 -56.5131 -56.4858 -56.4858 -56.4796 -56.4796 -56.4768 -56.4768
   -28.5879 -28.5809 -28.5769 -28.5763 -28.5621 -28.5589 -28.4884 -28.4883
   -27.6313 -27.6233 -27.6014 -27.5937 -27.5504 -27.5447 -27.5406 -27.5316
   -27.5290 -27.5161 -27.4611 -27.4591 -27.4559 -27.4491 -27.4480 -27.4428
     2.8905   2.8905   6.5399   6.5424   7.5629   7.5648   8.1195   8.1289
     9.9480   9.9522  10.6626  10.6652  11.0718  11.0747  11.2872  11.2879
    11.5001  11.5049  12.4492  12.4595  12.7393  12.7616  12.8027  12.8093
    13.0113  13.0147  13.1083  13.1108  13.1975  13.1995  13.2282  13.2285
    13.5319  13.5420  13.6326  13.6351  13.9638  13.9643  15.2940  15.3149
    15.4176  15.4251  15.6935  15.7031  15.7487  15.7671  15.7925  15.8181
    16.4071  16.4226  16.5953  16.6028  16.9907  17.0112

     occupation numbers 
     1.0000   1.0000   1.0000   1.0000   1.0000   1.0000   1.0000   1.0000
     1.0000   1.0000   1.0000   1.0000   1.0000   1.0000   1.0000   1.0000
     1.0000   1.0000   1.0000   1.0000   1.0000   1.0000   1.0000   1.0000
     1.0000   1.0000   1.0000   1.0000   1.0000   1.0000   1.0000   1.0000
     1.0000   1.0000   1.0000   1.0000   1.0000   1.0000   1.0000   1.0000
     1.0000   1.0000   1.0000   1.0000   1.0000   1.0000   1.0000   1.0000
     1.0000   1.0000   1.0000   1.0000   1.0000   1.0000   1.0000   1.0000
     1.0000   1.0000   1.0000   1.0000   1.0000   1.0000   1.0000   1.0000
     1.0000   1.0000   1.0000   1.0000   1.0000   1.0000  -0.0354  -0.0341
    -0.0185  -0.0173  -0.0004  -0.0004  -0.0001  -0.0001  -0.0001  -0.0000
    -0.0000  -0.0000  -0.0000  -0.0000  -0.0000  -0.0000

          k = 0.0000 0.0000 0.2500 (  9618 PWs)   bands (ev):

   -56.5109 -56.5109 -56.4893 -56.4893 -56.4789 -56.4789 -56.4761 -56.4761
   -28.5899 -28.5830 -28.5796 -28.5772 -28.5533 -28.5503 -28.4944 -28.4942
   -27.6364 -27.6272 -27.5925 -27.5852 -27.5569 -27.5452 -27.5374 -27.5328
   -27.5272 -27.5064 -27.4686 -27.4624 -27.4602 -27.4500 -27.4477 -27.4411
     3.1270   3.1270   5.9917   5.9931   7.6894   7.6924   8.3701   8.3801
     9.7440   9.7453  10.7560  10.7612  10.8656  10.8744  11.1950  11.2024
    11.5684  11.5691  12.2654  12.2803  12.8661  12.8728  12.9123  12.9342
    13.1213  13.1252  13.1296  13.1348  13.2517  13.2523  13.2823  13.2863
    13.5442  13.5475  13.6980  13.7056  14.0467  14.0472  15.0731  15.1018
    15.3808  15.3814  15.6179  15.6331  15.7404  15.7646  15.8519  15.8758
    16.2855  16.3002  16.4935  16.5050  17.1872  17.2077

     occupation numbers 
     1.0000   1.0000   1.0000   1.0000   1.0000   1.0000   1.0000   1.0000
     1.0000   1.0000   1.0000   1.0000   1.0000   1.0000   1.0000   1.0000
     1.0000   1.0000   1.0000   1.0000   1.0000   1.0000   1.0000   1.0000
     1.0000   1.0000   1.0000   1.0000   1.0000   1.0000   1.0000   1.0000
     1.0000   1.0000   1.0000   1.0000   1.0000   1.0000   1.0000   1.0000
     1.0000   1.0000   1.0000   1.0000   1.0000   1.0000   1.0000   1.0000
     1.0000   1.0000   1.0000   1.0000   1.0000   1.0000   1.0000   1.0000
     1.0000   1.0000   1.0000   1.0000   1.0000   1.0000   1.0000   1.0000
     1.0000   1.0000   1.0000   1.0000   1.0000   1.0000   0.1671   0.1081
    -0.0246  -0.0245  -0.0015  -0.0012  -0.0002  -0.0001  -0.0000  -0.0000
    -0.0000  -0.0000  -0.0000  -0.0000  -0.0000  -0.0000

          k = 0.0000 0.0000 0.3333 (  9606 PWs)   bands (ev):

   -56.5081 -56.5081 -56.4931 -56.4931 -56.4782 -56.4782 -56.4759 -56.4759
   -28.5904 -28.5837 -28.5826 -28.5788 -28.5433 -28.5408 -28.5023 -28.5018
   -27.6391 -27.6312 -27.5830 -27.5785 -27.5629 -27.5433 -27.5381 -27.5290
   -27.5277 -27.4968 -27.4787 -27.4654 -27.4626 -27.4518 -27.4471 -27.4410
     3.4509   3.4510   5.4200   5.4207   7.8600   7.8641   8.5098   8.5194
     9.6514   9.6529  10.6589  10.6612  10.7714  10.7838  11.0445  11.0474
    11.8627  11.8647  12.1343  12.1501  12.8385  12.8546  12.9331  12.9425
    13.1147  13.1206  13.1703  13.1755  13.2586  13.2615  13.3943  13.3966
    13.4520  13.4541  13.9161  13.9199  14.1177  14.1245  14.8896  14.9237
    15.3585  15.3669  15.5365  15.5548  15.7447  15.7730  15.8548  15.8789
    16.1948  16.2107  16.3707  16.3843  17.3061  17.3222

     occupation numbers 
     1.0000   1.0000   1.0000   1.0000   1.0000   1.0000   1.0000   1.0000
     1.0000   1.0000   1.0000   1.0000   1.0000   1.0000   1.0000   1.0000
     1.0000   1.0000   1.0000   1.0000   1.0000   1.0000   1.0000   1.0000
     1.0000   1.0000   1.0000   1.0000   1.0000   1.0000   1.0000   1.0000
     1.0000   1.0000   1.0000   1.0000   1.0000   1.0000   1.0000   1.0000
     1.0000   1.0000   1.0000   1.0000   1.0000   1.0000   1.0000   1.0000
     1.0000   1.0000   1.0000   1.0000   1.0000   1.0000   1.0000   1.0000
     1.0000   1.0000   1.0000   1.0000   1.0000   1.0000   1.0000   1.0000
     1.0000   1.0000   1.0000   1.0000   1.0001   1.0001   0.6957   0.5950
    -0.0283  -0.0269  -0.0050  -0.0039  -0.0002  -0.0001  -0.0000  -0.0000
    -0.0000  -0.0000  -0.0000  -0.0000  -0.0000  -0.0000

          k = 0.0000 0.0000 0.4167 (  9666 PWs)   bands (ev):

   -56.5048 -56.5048 -56.4971 -56.4971 -56.4773 -56.4773 -56.4761 -56.4761
   -28.5898 -28.5855 -28.5834 -28.5807 -28.5327 -28.5307 -28.5117 -28.5108
   -27.6395 -27.6350 -27.5769 -27.5695 -27.5678 -27.5469 -27.5395 -27.5305
   -27.5171 -27.4907 -27.4876 -27.4718 -27.4605 -27.4544 -27.4457 -27.4421
     3.8550   3.8550   4.8567   4.8571   8.0648   8.0700   8.4633   8.4714
     9.7540   9.7577  10.3455  10.3479  10.7983  10.8115  11.0008  11.0066
    12.1359  12.1378  12.1478  12.1610  12.6968  12.7120  12.8887  12.9005
    13.0767  13.0812  13.1938  13.1962  13.2276  13.2315  13.2809  13.2843
    13.6257  13.6273  13.9013  13.9054  14.3431  14.3623  14.7371  14.7713
    15.3651  15.3794  15.4618  15.4809  15.7695  15.7996  15.8363  15.8631
    16.1485  16.1638  16.2502  16.2640  17.4014  17.4066

     occupation numbers 
     1.0000   1.0000   1.0000   1.0000   1.0000   1.0000   1.0000   1.0000
     1.0000   1.0000   1.0000   1.0000   1.0000   1.0000   1.0000   1.0000
     1.0000   1.0000   1.0000   1.0000   1.0000   1.0000   1.0000   1.0000
     1.0000   1.0000   1.0000   1.0000   1.0000   1.0000   1.0000   1.0000
     1.0000   1.0000   1.0000   1.0000   1.0000   1.0000   1.0000   1.0000
     1.0000   1.0000   1.0000   1.0000   1.0000   1.0000   1.0000   1.0000
     1.0000   1.0000   1.0000   1.0000   1.0000   1.0000   1.0000   1.0000
     1.0000   1.0000   1.0000   1.0000   1.0000   1.0000   1.0000   1.0000
     1.0000   1.0000   1.0000   1.0000   1.0033   1.0043   0.9898   0.9502
    -0.0273  -0.0248  -0.0121  -0.0098  -0.0001  -0.0001  -0.0000  -0.0000
    -0.0000  -0.0000  -0.0000  -0.0000  -0.0000  -0.0000

          k = 0.0000 0.0000-0.5000 (  9658 PWs)   bands (ev):

   -56.5010 -56.5010 -56.5010 -56.5010 -56.4766 -56.4766 -56.4766 -56.4766
   -28.5880 -28.5880 -28.5823 -28.5823 -28.5220 -28.5220 -28.5206 -28.5206
   -27.6379 -27.6379 -27.5727 -27.5727 -27.5577 -27.5577 -27.5349 -27.5349
   -27.5038 -27.5038 -27.4792 -27.4792 -27.4575 -27.4575 -27.4439 -27.4439
     4.3284   4.3284   4.3286   4.3286   8.2825   8.2825   8.2889   8.2889
    10.0167  10.0167  10.0207  10.0207  10.8980  10.8980  10.9092  10.9092
    12.2473  12.2473  12.2539  12.2539  12.6856  12.6856  12.6980  12.6980
    13.1422  13.1422  13.1427  13.1427  13.2376  13.2376  13.2413  13.2413
    13.7828  13.7828  13.7859  13.7859  14.5653  14.5653  14.5939  14.5939
    15.4020  15.4020  15.4198  15.4198  15.8066  15.8066  15.8363  15.8363
    16.1660  16.1660  16.1797  16.1797  17.5424  17.5434

     occupation numbers 
     1.0000   1.0000   1.0000   1.0000   1.0000   1.0000   1.0000   1.0000
     1.0000   1.0000   1.0000   1.0000   1.0000   1.0000   1.0000   1.0000
     1.0000   1.0000   1.0000   1.0000   1.0000   1.0000   1.0000   1.0000
     1.0000   1.0000   1.0000   1.0000   1.0000   1.0000   1.0000   1.0000
     1.0000   1.0000   1.0000   1.0000   1.0000   1.0000   1.0000   1.0000
     1.0000   1.0000   1.0000   1.0000   1.0000   1.0000   1.0000   1.0000
     1.0000   1.0000   1.0000   1.0000   1.0000   1.0000   1.0000   1.0000
     1.0000   1.0000   1.0000   1.0000   1.0000   1.0000   1.0000   1.0000
     1.0000   1.0000   1.0000   1.0000   1.0306   1.0306   1.0341   1.0341
    -0.0210  -0.0210  -0.0181  -0.0181  -0.0000  -0.0000  -0.0000  -0.0000
    -0.0000  -0.0000  -0.0000  -0.0000  -0.0000  -0.0000

          k = 0.0000 0.0833 0.0833 (  9665 PWs)   bands (ev):

   -56.5139 -56.5139 -56.4837 -56.4837 -56.4801 -56.4801 -56.4775 -56.4775
   -28.5861 -28.5797 -28.5758 -28.5741 -28.5674 -28.5639 -28.4859 -28.4859
   -27.6258 -27.6228 -27.6041 -27.6009 -27.5465 -27.5424 -27.5403 -27.5365
   -27.5283 -27.5212 -27.4579 -27.4575 -27.4536 -27.4493 -27.4471 -27.4445
     2.7948   2.7948   6.9083   6.9137   7.3947   7.3978   7.9860   7.9922
    10.1066  10.1122  10.6056  10.6087  10.9967  11.0020  11.2452  11.2467
    11.8528  11.8541  12.3852  12.4011  12.6042  12.6087  12.8117  12.8209
    12.8787  12.8837  13.1335  13.1359  13.1594  13.1627  13.2152  13.2174
    13.5054  13.5100  13.6666  13.6739  13.8932  13.8962  15.4195  15.4298
    15.4860  15.4878  15.6668  15.6804  15.7463  15.7540  15.7665  15.7773
    16.4764  16.4954  16.6695  16.6739  16.8507  16.8756

     occupation numbers 
     1.0000   1.0000   1.0000   1.0000   1.0000   1.0000   1.0000   1.0000
     1.0000   1.0000   1.0000   1.0000   1.0000   1.0000   1.0000   1.0000
     1.0000   1.0000   1.0000   1.0000   1.0000   1.0000   1.0000   1.0000
     1.0000   1.0000   1.0000   1.0000   1.0000   1.0000   1.0000   1.0000
     1.0000   1.0000   1.0000   1.0000   1.0000   1.0000   1.0000   1.0000
     1.0000   1.0000   1.0000   1.0000   1.0000   1.0000   1.0000   1.0000
     1.0000   1.0000   1.0000   1.0000   1.0000   1.0000   1.0000   1.0000
     1.0000   1.0000   1.0000   1.0000   1.0000   1.0000   1.0000   1.0000
     1.0000   1.0000   1.0000   1.0000   1.0000   1.0000  -0.0182  -0.0166
    -0.0093  -0.0091  -0.0007  -0.0005  -0.0002  -0.0001  -0.0001  -0.0001
    -0.0000  -0.0000  -0.0000  -0.0000  -0.0000  -0.0000

          k = 0.0000 0.0833 0.1667 (  9653 PWs)   bands (ev):

   -56.5126 -56.5126 -56.4862 -56.4862 -56.4799 -56.4799 -56.4765 -56.4765
   -28.5886 -28.5822 -28.5756 -28.5754 -28.5615 -28.5579 -28.4896 -28.4895
   -27.6313 -27.6253 -27.5983 -27.5924 -27.5509 -27.5454 -27.5419 -27.5353
   -27.5248 -27.5133 -27.4640 -27.4616 -27.4558 -27.4505 -27.4457 -27.4415
     2.9382   2.9382   6.5235   6.5271   7.4122   7.4146   8.2328   8.2394
     9.9139   9.9181  10.6961  10.6971  10.8377  10.8406  11.3144  11.3163
    11.6687  11.6728  12.4472  12.4524  12.6186  12.6250  12.9294  12.9369
    13.0460  13.0519  13.1340  13.1344  13.1837  13.1861  13.2632  13.2656
    13.4819  13.4869  13.6763  13.6870  13.9998  14.0052  15.2967  15.3178
    15.3792  15.3934  15.6442  15.6584  15.7252  15.7388  15.8084  15.8298
    16.3627  16.3806  16.6147  16.6244  16.9878  17.0147

     occupation numbers 
     1.0000   1.0000   1.0000   1.0000   1.0000   1.0000   1.0000   1.0000
     1.0000   1.0000   1.0000   1.0000   1.0000   1.0000   1.0000   1.0000
     1.0000   1.0000   1.0000   1.0000   1.0000   1.0000   1.0000   1.0000
     1.0000   1.0000   1.0000   1.0000   1.0000   1.0000   1.0000   1.0000
     1.0000   1.0000   1.0000   1.0000   1.0000   1.0000   1.0000   1.0000
     1.0000   1.0000   1.0000   1.0000   1.0000   1.0000   1.0000   1.0000
     1.0000   1.0000   1.0000   1.0000   1.0000   1.0000   1.0000   1.0000
     1.0000   1.0000   1.0000   1.0000   1.0000   1.0000   1.0000   1.0000
     1.0000   1.0000   1.0000   1.0000   1.0000   1.0000  -0.0353  -0.0339
    -0.0249  -0.0225  -0.0010  -0.0008  -0.0002  -0.0002  -0.0000  -0.0000
    -0.0000  -0.0000  -0.0000  -0.0000  -0.0000  -0.0000

          k = 0.0000 0.0833 0.2500 (  9646 PWs)   bands (ev):

   -56.5106 -56.5106 -56.4894 -56.4894 -56.4793 -56.4793 -56.4760 -56.4760
   -28.5900 -28.5838 -28.5782 -28.5764 -28.5531 -28.5500 -28.4955 -28.4953
   -27.6358 -27.6278 -27.5907 -27.5843 -27.5567 -27.5461 -27.5395 -27.5354
   -27.5238 -27.5042 -27.4721 -27.4646 -27.4591 -27.4527 -27.4446 -27.4397
     3.1738   3.1739   6.0094   6.0113   7.5329   7.5347   8.4344   8.4414
     9.7448   9.7462  10.5614  10.5649  10.8459  10.8487  11.3936  11.4018
    11.5686  11.5704  12.2883  12.3012  12.7221  12.7236  13.0171  13.0315
    13.0889  13.0926  13.1771  13.1829  13.2495  13.2500  13.3335  13.3365
    13.5260  13.5313  13.7541  13.7673  14.0713  14.0767  15.0810  15.1090
    15.3427  15.3531  15.5668  15.5824  15.7131  15.7348  15.8501  15.8744
    16.2534  16.2690  16.5136  16.5261  17.1636  17.1912

     occupation numbers 
     1.0000   1.0000   1.0000   1.0000   1.0000   1.0000   1.0000   1.0000
     1.0000   1.0000   1.0000   1.0000   1.0000   1.0000   1.0000   1.0000
     1.0000   1.0000   1.0000   1.0000   1.0000   1.0000   1.0000   1.0000
     1.0000   1.0000   1.0000   1.0000   1.0000   1.0000   1.0000   1.0000
     1.0000   1.0000   1.0000   1.0000   1.0000   1.0000   1.0000   1.0000
     1.0000   1.0000   1.0000   1.0000   1.0000   1.0000   1.0000   1.0000
     1.0000   1.0000   1.0000   1.0000   1.0000   1.0000   1.0000   1.0000
     1.0000   1.0000   1.0000   1.0000   1.0000   1.0000   1.0000   1.0000
     1.0000   1.0000   1.0000   1.0000   1.0000   1.0000   0.1497   0.0950
    -0.0308  -0.0292  -0.0033  -0.0026  -0.0003  -0.0002  -0.0000  -0.0000
    -0.0000  -0.0000  -0.0000  -0.0000  -0.0000  -0.0000

          k = 0.0000 0.0833 0.3333 (  9649 PWs)   bands (ev):

   -56.5078 -56.5078 -56.4931 -56.4931 -56.4785 -56.4785 -56.4759 -56.4759
   -28.5903 -28.5844 -28.5810 -28.5781 -28.5435 -28.5410 -28.5033 -28.5029
   -27.6381 -27.6309 -27.5824 -27.5777 -27.5626 -27.5445 -27.5399 -27.5312
   -27.5251 -27.4950 -27.4820 -27.4662 -27.4625 -27.4551 -27.4437 -27.4392
     3.4966   3.4967   5.4512   5.4523   7.7139   7.7161   8.5120   8.5183
     9.6727   9.6748  10.3910  10.3953  10.9572  10.9601  11.1466  11.1591
    11.8088  11.8125  12.1756  12.1890  12.7438  12.7483  12.9872  12.9941
    13.0262  13.0311  13.2308  13.2357  13.2978  13.2995  13.4277  13.4331
    13.4957  13.5060  13.9335  13.9418  14.1518  14.1600  14.8956  14.9290
    15.3239  15.3362  15.4806  15.4963  15.7147  15.7404  15.8540  15.8797
    16.1744  16.1872  16.3939  16.4076  17.2783  17.3016

     occupation numbers 
     1.0000   1.0000   1.0000   1.0000   1.0000   1.0000   1.0000   1.0000
     1.0000   1.0000   1.0000   1.0000   1.0000   1.0000   1.0000   1.0000
     1.0000   1.0000   1.0000   1.0000   1.0000   1.0000   1.0000   1.0000
     1.0000   1.0000   1.0000   1.0000   1.0000   1.0000   1.0000   1.0000
     1.0000   1.0000   1.0000   1.0000   1.0000   1.0000   1.0000   1.0000
     1.0000   1.0000   1.0000   1.0000   1.0000   1.0000   1.0000   1.0000
     1.0000   1.0000   1.0000   1.0000   1.0000   1.0000   1.0000   1.0000
     1.0000   1.0000   1.0000   1.0000   1.0000   1.0000   1.0000   1.0000
     1.0000   1.0000   1.0000   1.0000   1.0001   1.0001   0.6784   0.5788
    -0.0332  -0.0317  -0.0099  -0.0082  -0.0003  -0.0002  -0.0000  -0.0000
    -0.0000  -0.0000  -0.0000  -0.0000  -0.0000  -0.0000

          k = 0.0000 0.0833 0.4167 (  9647 PWs)   bands (ev):

   -56.5045 -56.5045 -56.4970 -56.4970 -56.4776 -56.4776 -56.4762 -56.4762
   -28.5893 -28.5852 -28.5826 -28.5800 -28.5332 -28.5313 -28.5126 -28.5117
   -27.6383 -27.6342 -27.5767 -27.5687 -27.5678 -27.5484 -27.5395 -27.5300
   -27.5189 -27.4941 -27.4855 -27.4708 -27.4623 -27.4575 -27.4426 -27.4398
     3.8990   3.8992   4.8946   4.8952   7.9377   7.9407   8.4043   8.4094
     9.7770   9.7806  10.2242  10.2281  10.9619  10.9676  11.0303  11.0356
    12.0233  12.0294  12.2040  12.2114  12.6469  12.6515  12.8369  12.8446
    13.0729  13.0769  13.2604  13.2633  13.2914  13.2943  13.3206  13.3232
    13.6490  13.6522  13.9198  13.9244  14.3699  14.3907  14.7445  14.7785
    15.3276  15.3427  15.4077  15.4235  15.7410  15.7683  15.8311  15.8588
    16.1460  16.1557  16.2754  16.2880  17.3829  17.3968

     occupation numbers 
     1.0000   1.0000   1.0000   1.0000   1.0000   1.0000   1.0000   1.0000
     1.0000   1.0000   1.0000   1.0000   1.0000   1.0000   1.0000   1.0000
     1.0000   1.0000   1.0000   1.0000   1.0000   1.0000   1.0000   1.0000
     1.0000   1.0000   1.0000   1.0000   1.0000   1.0000   1.0000   1.0000
     1.0000   1.0000   1.0000   1.0000   1.0000   1.0000   1.0000   1.0000
     1.0000   1.0000   1.0000   1.0000   1.0000   1.0000   1.0000   1.0000
     1.0000   1.0000   1.0000   1.0000   1.0000   1.0000   1.0000   1.0000
     1.0000   1.0000   1.0000   1.0000   1.0000   1.0000   1.0000   1.0000
     1.0000   1.0000   1.0000   1.0000   1.0048   1.0063   0.9824   0.9399
    -0.0328  -0.0308  -0.0201  -0.0175  -0.0002  -0.0001  -0.0000  -0.0000
    -0.0000  -0.0000  -0.0000  -0.0000  -0.0000  -0.0000

          k = 0.0000 0.0833-0.5000 (  9688 PWs)   bands (ev):

   -56.5008 -56.5008 -56.5008 -56.5008 -56.4768 -56.4768 -56.4768 -56.4768
   -28.5874 -28.5874 -28.5817 -28.5817 -28.5229 -28.5229 -28.5211 -28.5211
   -27.6369 -27.6369 -27.5724 -27.5724 -27.5582 -27.5582 -27.5347 -27.5347
   -27.5065 -27.5065 -27.4777 -27.4777 -27.4601 -27.4601 -27.4411 -27.4411
     4.3700   4.3700   4.3704   4.3704   8.1813   8.1813   8.1881   8.1881
     9.9982   9.9982  10.0026  10.0026  10.9693  10.9693  10.9826  10.9826
    12.1975  12.1975  12.2035  12.2035  12.6449  12.6449  12.6606  12.6606
    13.1826  13.1826  13.1869  13.1869  13.2836  13.2836  13.2856  13.2856
    13.8039  13.8039  13.8073  13.8073  14.5807  14.5807  14.6102  14.6102
    15.3556  15.3556  15.3724  15.3724  15.7869  15.7869  15.8166  15.8166
    16.1820  16.1820  16.1941  16.1941  17.5403  17.5451

     occupation numbers 
     1.0000   1.0000   1.0000   1.0000   1.0000   1.0000   1.0000   1.0000
     1.0000   1.0000   1.0000   1.0000   1.0000   1.0000   1.0000   1.0000
     1.0000   1.0000   1.0000   1.0000   1.0000   1.0000   1.0000   1.0000
     1.0000   1.0000   1.0000   1.0000   1.0000   1.0000   1.0000   1.0000
     1.0000   1.0000   1.0000   1.0000   1.0000   1.0000   1.0000   1.0000
     1.0000   1.0000   1.0000   1.0000   1.0000   1.0000   1.0000   1.0000
     1.0000   1.0000   1.0000   1.0000   1.0000   1.0000   1.0000   1.0000
     1.0000   1.0000   1.0000   1.0000   1.0000   1.0000   1.0000   1.0000
     1.0000   1.0000   1.0000   1.0000   1.0327   1.0327   1.0352   1.0352
    -0.0288  -0.0288  -0.0260  -0.0260  -0.0001  -0.0001  -0.0000  -0.0000
    -0.0000  -0.0000  -0.0000  -0.0000  -0.0000  -0.0000

          k = 0.0000 0.1667 0.1667 (  9657 PWs)   bands (ev):

   -56.5114 -56.5114 -56.4876 -56.4876 -56.4802 -56.4802 -56.4760 -56.4760
   -28.5897 -28.5838 -28.5746 -28.5745 -28.5584 -28.5546 -28.4932 -28.4930
   -27.6321 -27.6280 -27.5922 -27.5883 -27.5517 -27.5484 -27.5439 -27.5372
   -27.5209 -27.5069 -27.4700 -27.4662 -27.4589 -27.4502 -27.4433 -27.4391
     3.0801   3.0802   6.3972   6.4015   7.2076   7.2119   8.4067   8.4121
     9.8324   9.8358  10.5100  10.5124  10.7869  10.7882  11.3570  11.3600
    11.7799  11.7802  12.4119  12.4176  12.5877  12.5954  12.9949  12.9962
    13.0907  13.0990  13.1721  13.1729  13.2437  13.2504  13.3360  13.3410
    13.4674  13.4752  13.7326  13.7467  14.0755  14.0829  15.2520  15.2737
    15.3015  15.3208  15.5360  15.5480  15.6959  15.7169  15.8144  15.8389
    16.2773  16.2943  16.6070  16.6167  17.0329  17.0674

     occupation numbers 
     1.0000   1.0000   1.0000   1.0000   1.0000   1.0000   1.0000   1.0000
     1.0000   1.0000   1.0000   1.0000   1.0000   1.0000   1.0000   1.0000
     1.0000   1.0000   1.0000   1.0000   1.0000   1.0000   1.0000   1.0000
     1.0000   1.0000   1.0000   1.0000   1.0000   1.0000   1.0000   1.0000
     1.0000   1.0000   1.0000   1.0000   1.0000   1.0000   1.0000   1.0000
     1.0000   1.0000   1.0000   1.0000   1.0000   1.0000   1.0000   1.0000
     1.0000   1.0000   1.0000   1.0000   1.0000   1.0000   1.0000   1.0000
     1.0000   1.0000   1.0000   1.0000   1.0000   1.0000   1.0000   1.0000
     1.0000   1.0000   1.0000   1.0000   1.0000   1.0000  -0.0323  -0.0350
    -0.0351  -0.0335  -0.0050  -0.0043  -0.0004  -0.0003  -0.0000  -0.0000
    -0.0000  -0.0000  -0.0000  -0.0000  -0.0000  -0.0000

          k = 0.0000 0.1667 0.2500 (  9644 PWs)   bands (ev):

   -56.5094 -56.5094 -56.4901 -56.4901 -56.4799 -56.4799 -56.4759 -56.4759
   -28.5901 -28.5845 -28.5759 -28.5748 -28.5522 -28.5489 -28.4988 -28.4987
   -27.6341 -27.6290 -27.5864 -27.5822 -27.5559 -27.5494 -27.5427 -27.5375
   -27.5200 -27.4995 -27.4784 -27.4694 -27.4626 -27.4510 -27.4415 -27.4370
     3.3134   3.3135   6.0383   6.0413   7.2038   7.2075   8.5047   8.5090
     9.7417   9.7436  10.2893  10.2935  10.8768  10.8779  11.4819  11.4826
    11.6890  11.6902  12.3246  12.3301  12.5672  12.5726  12.9882  12.9955
    13.1254  13.1386  13.2058  13.2112  13.3298  13.3310  13.4429  13.4507
    13.5209  13.5282  13.8637  13.8792  14.1363  14.1438  15.0964  15.1217
    15.2392  15.2582  15.4388  15.4519  15.6665  15.6895  15.8206  15.8475
    16.1947  16.2087  16.5335  16.5451  17.1530  17.1917

     occupation numbers 
     1.0000   1.0000   1.0000   1.0000   1.0000   1.0000   1.0000   1.0000
     1.0000   1.0000   1.0000   1.0000   1.0000   1.0000   1.0000   1.0000
     1.0000   1.0000   1.0000   1.0000   1.0000   1.0000   1.0000   1.0000
     1.0000   1.0000   1.0000   1.0000   1.0000   1.0000   1.0000   1.0000
     1.0000   1.0000   1.0000   1.0000   1.0000   1.0000   1.0000   1.0000
     1.0000   1.0000   1.0000   1.0000   1.0000   1.0000   1.0000   1.0000
     1.0000   1.0000   1.0000   1.0000   1.0000   1.0000   1.0000   1.0000
     1.0000   1.0000   1.0000   1.0000   1.0000   1.0000   1.0000   1.0000
     1.0000   1.0000   1.0000   1.0000   1.0001   1.0001   0.1183   0.0737
    -0.0293  -0.0334  -0.0152  -0.0134  -0.0007  -0.0004  -0.0000  -0.0000
    -0.0000  -0.0000  -0.0000  -0.0000  -0.0000  -0.0000

          k = 0.0000 0.1667 0.3333 (  9647 PWs)   bands (ev):

   -56.5068 -56.5068 -56.4932 -56.4932 -56.4792 -56.4792 -56.4761 -56.4761
   -28.5895 -28.5844 -28.5784 -28.5762 -28.5439 -28.5413 -28.5062 -28.5059
   -27.6353 -27.6300 -27.5812 -27.5756 -27.5616 -27.5484 -27.5416 -27.5337
   -27.5222 -27.4931 -27.4874 -27.4717 -27.4646 -27.4532 -27.4397 -27.4360
     3.6326   3.6328   5.5376   5.5393   7.3628   7.3655   8.4325   8.4358
     9.7328   9.7361  10.1892  10.1935  10.9874  10.9905  11.3852  11.3948
    11.7520  11.7564  12.1889  12.1977  12.5943  12.6019  12.8761  12.8850
    13.1125  13.1220  13.2515  13.2573  13.3793  13.3806  13.5259  13.5360
    13.5892  13.6024  13.9888  13.9994  14.2435  14.2560  14.9093  14.9403
    15.2250  15.2436  15.3454  15.3554  15.6543  15.6793  15.8063  15.8366
    16.1516  16.1611  16.4393  16.4524  17.2363  17.2692

     occupation numbers 
     1.0000   1.0000   1.0000   1.0000   1.0000   1.0000   1.0000   1.0000
     1.0000   1.0000   1.0000   1.0000   1.0000   1.0000   1.0000   1.0000
     1.0000   1.0000   1.0000   1.0000   1.0000   1.0000   1.0000   1.0000
     1.0000   1.0000   1.0000   1.0000   1.0000   1.0000   1.0000   1.0000
     1.0000   1.0000   1.0000   1.0000   1.0000   1.0000   1.0000   1.0000
     1.0000   1.0000   1.0000   1.0000   1.0000   1.0000   1.0000   1.0000
     1.0000   1.0000   1.0000   1.0000   1.0000   1.0000   1.0000   1.0000
     1.0000   1.0000   1.0000   1.0000   1.0000   1.0000   1.0000   1.0000
     1.0000   1.0000   1.0000   1.0000   1.0007   1.0009   0.6384   0.5440
    -0.0245  -0.0305  -0.0304  -0.0288  -0.0008  -0.0005  -0.0000  -0.0000
    -0.0000  -0.0000  -0.0000  -0.0000  -0.0000  -0.0000

          k = 0.0000 0.1667 0.4167 (  9668 PWs)   bands (ev):

   -56.5037 -56.5037 -56.4967 -56.4967 -56.4783 -56.4783 -56.4766 -56.4766
   -28.5879 -28.5841 -28.5806 -28.5782 -28.5345 -28.5327 -28.5150 -28.5143
   -27.6351 -27.6317 -27.5770 -27.5697 -27.5651 -27.5512 -27.5395 -27.5291
   -27.5222 -27.5001 -27.4849 -27.4751 -27.4633 -27.4564 -27.4382 -27.4360
     4.0298   4.0302   5.0052   5.0061   7.6066   7.6087   8.1964   8.1989
     9.8541   9.8576  10.1269  10.1304  11.0543  11.0630  11.2128  11.2267
    11.9235  11.9285  12.1475  12.1532  12.5360  12.5453  12.7026  12.7132
    13.1767  13.1811  13.2866  13.2913  13.3751  13.3773  13.4825  13.4838
    13.7238  13.7279  13.9709  13.9771  14.4429  14.4680  14.7611  14.7941
    15.2242  15.2406  15.2775  15.2861  15.6706  15.6974  15.7674  15.7989
    16.1697  16.1756  16.3385  16.3511  17.3266  17.3480

     occupation numbers 
     1.0000   1.0000   1.0000   1.0000   1.0000   1.0000   1.0000   1.0000
     1.0000   1.0000   1.0000   1.0000   1.0000   1.0000   1.0000   1.0000
     1.0000   1.0000   1.0000   1.0000   1.0000   1.0000   1.0000   1.0000
     1.0000   1.0000   1.0000   1.0000   1.0000   1.0000   1.0000   1.0000
     1.0000   1.0000   1.0000   1.0000   1.0000   1.0000   1.0000   1.0000
     1.0000   1.0000   1.0000   1.0000   1.0000   1.0000   1.0000   1.0000
     1.0000   1.0000   1.0000   1.0000   1.0000   1.0000   1.0000   1.0000
     1.0000   1.0000   1.0000   1.0000   1.0000   1.0000   1.0000   1.0000
     1.0000   1.0000   1.0000   1.0000   1.0116   1.0149   0.9635   0.9153
    -0.0242  -0.0297  -0.0352  -0.0355  -0.0006  -0.0004  -0.0001  -0.0001
    -0.0000  -0.0000  -0.0000  -0.0000  -0.0000  -0.0000

          k = 0.0000 0.1667-0.5000 (  9654 PWs)   bands (ev):

   -56.5002 -56.5002 -56.5002 -56.5002 -56.4774 -56.4774 -56.4774 -56.4774
   -28.5857 -28.5857 -28.5801 -28.5801 -28.5253 -28.5253 -28.5227 -28.5227
   -27.6337 -27.6337 -27.5729 -27.5729 -27.5584 -27.5584 -27.5342 -27.5342
   -27.5116 -27.5116 -27.4795 -27.4795 -27.4601 -27.4601 -27.4369 -27.4369
     4.4931   4.4931   4.4938   4.4938   7.8949   7.8949   7.9018   7.9018
    10.0148  10.0148  10.0187  10.0187  11.1032  11.1032  11.1173  11.1173
    12.0900  12.0900  12.0946  12.0946  12.5399  12.5399  12.5557  12.5557
    13.2760  13.2760  13.2769  13.2769  13.3911  13.3911  13.3923  13.3923
    13.8665  13.8665  13.8705  13.8705  14.6204  14.6204  14.6518  14.6518
    15.2379  15.2379  15.2526  15.2526  15.7146  15.7146  15.7444  15.7444
    16.2396  16.2396  16.2503  16.2503  17.4857  17.4933

     occupation numbers 
     1.0000   1.0000   1.0000   1.0000   1.0000   1.0000   1.0000   1.0000
     1.0000   1.0000   1.0000   1.0000   1.0000   1.0000   1.0000   1.0000
     1.0000   1.0000   1.0000   1.0000   1.0000   1.0000   1.0000   1.0000
     1.0000   1.0000   1.0000   1.0000   1.0000   1.0000   1.0000   1.0000
     1.0000   1.0000   1.0000   1.0000   1.0000   1.0000   1.0000   1.0000
     1.0000   1.0000   1.0000   1.0000   1.0000   1.0000   1.0000   1.0000
     1.0000   1.0000   1.0000   1.0000   1.0000   1.0000   1.0000   1.0000
     1.0000   1.0000   1.0000   1.0000   1.0000   1.0000   1.0000   1.0000
     1.0000   1.0000   1.0000   1.0000   1.0355   1.0355   1.0332   1.0332
    -0.0289  -0.0289  -0.0324  -0.0324  -0.0003  -0.0003  -0.0002  -0.0002
    -0.0000  -0.0000  -0.0000  -0.0000  -0.0000  -0.0000

          k = 0.0000 0.2500 0.2500 (  9661 PWs)   bands (ev):

   -56.5076 -56.5076 -56.4914 -56.4914 -56.4802 -56.4802 -56.4760 -56.4760
   -28.5895 -28.5844 -28.5747 -28.5739 -28.5493 -28.5460 -28.5042 -28.5038
   -27.6324 -27.6292 -27.5817 -27.5794 -27.5558 -27.5526 -27.5432 -27.5384
   -27.5183 -27.4962 -27.4851 -27.4748 -27.4657 -27.4486 -27.4390 -27.4349
     3.5424   3.5426   5.9650   5.9682   6.9410   6.9450   8.4363   8.4413
     9.7514   9.7546  10.1862  10.1914  10.9262  10.9287  11.3506  11.3517
    11.8597  11.8635  12.2863  12.2897  12.5058  12.5150  12.9043  12.9119
    13.1484  13.1577  13.2706  13.2801  13.4423  13.4438  13.5201  13.5294
    13.5708  13.5815  13.9847  13.9970  14.2198  14.2254  15.0463  15.0667
    15.1403  15.1650  15.2952  15.3067  15.6166  15.6418  15.7634  15.7922
    16.1597  16.1707  16.5123  16.5230  17.1854  17.2282

     occupation numbers 
     1.0000   1.0000   1.0000   1.0000   1.0000   1.0000   1.0000   1.0000
     1.0000   1.0000   1.0000   1.0000   1.0000   1.0000   1.0000   1.0000
     1.0000   1.0000   1.0000   1.0000   1.0000   1.0000   1.0000   1.0000
     1.0000   1.0000   1.0000   1.0000   1.0000   1.0000   1.0000   1.0000
     1.0000   1.0000   1.0000   1.0000   1.0000   1.0000   1.0000   1.0000
     1.0000   1.0000   1.0000   1.0000   1.0000   1.0000   1.0000   1.0000
     1.0000   1.0000   1.0000   1.0000   1.0000   1.0000   1.0000   1.0000
     1.0000   1.0000   1.0000   1.0000   1.0000   1.0000   1.0000   1.0000
     1.0000   1.0000   1.0000   1.0000   1.0005   1.0005   0.2317   0.1818
     0.0463   0.0170  -0.0353  -0.0348  -0.0016  -0.0010  -0.0001  -0.0001
    -0.0000  -0.0000  -0.0000  -0.0000  -0.0000  -0.0000

          k = 0.0000 0.2500 0.3333 (  9636 PWs)   bands (ev):

   -56.5052 -56.5052 -56.4936 -56.4936 -56.4799 -56.4799 -56.4765 -56.4765
   -28.5880 -28.5834 -28.5759 -28.5744 -28.5436 -28.5411 -28.5110 -28.5106
   -27.6313 -27.6282 -27.5808 -27.5744 -27.5604 -27.5509 -27.5412 -27.5360
   -27.5205 -27.4957 -27.4928 -27.4794 -27.4640 -27.4484 -27.4369 -27.4335
     3.8553   3.8556   5.6429   5.6453   6.9523   6.9559   8.1879   8.1917
     9.8428   9.8464  10.1795  10.1834  10.9894  10.9916  11.3884  11.3919
    11.8758  11.8779  12.1108  12.1121  12.4497  12.4600  12.7487  12.7572
    13.1978  13.2078  13.3033  13.3102  13.4498  13.4533  13.6460  13.6493
    13.7123  13.7171  14.0565  14.0675  14.3682  14.3880  14.9104  14.9351
    15.0756  15.0996  15.1884  15.1957  15.5845  15.6089  15.7088  15.7404
    16.1731  16.1810  16.4784  16.4883  17.1848  17.2203

     occupation numbers 
     1.0000   1.0000   1.0000   1.0000   1.0000   1.0000   1.0000   1.0000
     1.0000   1.0000   1.0000   1.0000   1.0000   1.0000   1.0000   1.0000
     1.0000   1.0000   1.0000   1.0000   1.0000   1.0000   1.0000   1.0000
     1.0000   1.0000   1.0000   1.0000   1.0000   1.0000   1.0000   1.0000
     1.0000   1.0000   1.0000   1.0000   1.0000   1.0000   1.0000   1.0000
     1.0000   1.0000   1.0000   1.0000   1.0000   1.0000   1.0000   1.0000
     1.0000   1.0000   1.0000   1.0000   1.0000   1.0000   1.0000   1.0000
     1.0000   1.0000   1.0000   1.0000   1.0000   1.0000   1.0000   1.0000
     1.0000   1.0000   1.0000   1.0000   1.0047   1.0061   0.6353   0.5602
     0.1616   0.1122  -0.0037  -0.0089  -0.0025  -0.0018  -0.0003  -0.0002
    -0.0000  -0.0000  -0.0000  -0.0000  -0.0000  -0.0000

          k = 0.0000 0.2500 0.4167 (  9659 PWs)   bands (ev):

   -56.5024 -56.5024 -56.4963 -56.4963 -56.4792 -56.4792 -56.4773 -56.4773
   -28.5857 -28.5821 -28.5780 -28.5759 -28.5361 -28.5344 -28.5188 -28.5183
   -27.6299 -27.6277 -27.5797 -27.5738 -27.5601 -27.5515 -27.5389 -27.5290
   -27.5244 -27.5056 -27.4911 -27.4840 -27.4592 -27.4504 -27.4351 -27.4332
     4.2431   4.2436   5.1757   5.1771   7.1706   7.1735   7.8421   7.8452
     9.9963   9.9993  10.1860  10.1890  11.0743  11.0807  11.3413  11.3525
    11.9081  11.9108  11.9807  11.9858  12.4125  12.4241  12.5560  12.5674
    13.2769  13.2852  13.3664  13.3684  13.4302  13.4321  13.6292  13.6316
    13.8633  13.8662  14.0586  14.0663  14.5322  14.5611  14.7626  14.7909
    15.0737  15.0910  15.1204  15.1237  15.5785  15.6037  15.6526  15.6842
    16.2389  16.2461  16.4217  16.4329  17.2195  17.2417

     occupation numbers 
     1.0000   1.0000   1.0000   1.0000   1.0000   1.0000   1.0000   1.0000
     1.0000   1.0000   1.0000   1.0000   1.0000   1.0000   1.0000   1.0000
     1.0000   1.0000   1.0000   1.0000   1.0000   1.0000   1.0000   1.0000
     1.0000   1.0000   1.0000   1.0000   1.0000   1.0000   1.0000   1.0000
     1.0000   1.0000   1.0000   1.0000   1.0000   1.0000   1.0000   1.0000
     1.0000   1.0000   1.0000   1.0000   1.0000   1.0000   1.0000   1.0000
     1.0000   1.0000   1.0000   1.0000   1.0000   1.0000   1.0000   1.0000
     1.0000   1.0000   1.0000   1.0000   1.0000   1.0000   1.0000   1.0000
     1.0000   1.0000   1.0000   1.0000   1.0253   1.0300   0.9617   0.9205
     0.1658   0.1290   0.0757   0.0705  -0.0028  -0.0019  -0.0009  -0.0005
    -0.0000  -0.0000  -0.0000  -0.0000  -0.0000  -0.0000

          k = 0.0000 0.2500-0.5000 (  9686 PWs)   bands (ev):

   -56.4994 -56.4994 -56.4994 -56.4994 -56.4782 -56.4782 -56.4782 -56.4782
   -28.5830 -28.5830 -28.5779 -28.5779 -28.5285 -28.5285 -28.5255 -28.5255
   -27.6285 -27.6285 -27.5770 -27.5770 -27.5556 -27.5556 -27.5332 -27.5332
   -27.5164 -27.5164 -27.4880 -27.4880 -27.4542 -27.4542 -27.4338 -27.4338
     4.6914   4.6914   4.6924   4.6924   7.4835   7.4835   7.4896   7.4896
    10.1294  10.1294  10.1324  10.1324  11.1999  11.1999  11.2116  11.2116
    11.9553  11.9553  11.9572  11.9572  12.4187  12.4187  12.4311  12.4311
    13.3477  13.3477  13.3542  13.3542  13.5161  13.5161  13.5222  13.5222
    13.9871  13.9871  13.9927  13.9927  14.6541  14.6541  14.6847  14.6847
    15.0857  15.0857  15.0974  15.0974  15.6040  15.6040  15.6329  15.6329
    16.3328  16.3328  16.3438  16.3438  17.3598  17.3610

     occupation numbers 
     1.0000   1.0000   1.0000   1.0000   1.0000   1.0000   1.0000   1.0000
     1.0000   1.0000   1.0000   1.0000   1.0000   1.0000   1.0000   1.0000
     1.0000   1.0000   1.0000   1.0000   1.0000   1.0000   1.0000   1.0000
     1.0000   1.0000   1.0000   1.0000   1.0000   1.0000   1.0000   1.0000
     1.0000   1.0000   1.0000   1.0000   1.0000   1.0000   1.0000   1.0000
     1.0000   1.0000   1.0000   1.0000   1.0000   1.0000   1.0000   1.0000
     1.0000   1.0000   1.0000   1.0000   1.0000   1.0000   1.0000   1.0000
     1.0000   1.0000   1.0000   1.0000   1.0000   1.0000   1.0000   1.0000
     1.0000   1.0000   1.0000   1.0000   1.0328   1.0328   1.0242   1.0242
     0.1398   0.1398   0.1163   0.1163  -0.0019  -0.0019  -0.0012  -0.0012
    -0.0000  -0.0000  -0.0000  -0.0000  -0.0000  -0.0000

          k = 0.0000 0.3333 0.3333 (  9619 PWs)   bands (ev):

   -56.5031 -56.5031 -56.4946 -56.4946 -56.4802 -56.4802 -56.4773 -56.4773
   -28.5856 -28.5816 -28.5746 -28.5737 -28.5416 -28.5393 -28.5171 -28.5163
   -27.6269 -27.6256 -27.5823 -27.5766 -27.5576 -27.5498 -27.5379 -27.5373
   -27.5210 -27.5011 -27.4988 -27.4874 -27.4586 -27.4448 -27.4354 -27.4322
     4.1582   4.1586   5.6398   5.6419   6.6783   6.6811   7.8197   7.8235
    10.0314  10.0342  10.3050  10.3080  10.9406  10.9424  11.2581  11.2603
    11.8945  11.9011  12.1581  12.1626  12.3093  12.3189  12.6282  12.6361
    13.1791  13.1875  13.3911  13.3961  13.5598  13.5626  13.7203  13.7257
    13.8832  13.8949  14.0942  14.1070  14.4876  14.5133  14.8481  14.8598
    14.9409  14.9611  15.0575  15.0742  15.5223  15.5454  15.6028  15.6327
    16.2323  16.2411  16.4897  16.4967  17.1469  17.1774

     occupation numbers 
     1.0000   1.0000   1.0000   1.0000   1.0000   1.0000   1.0000   1.0000
     1.0000   1.0000   1.0000   1.0000   1.0000   1.0000   1.0000   1.0000
     1.0000   1.0000   1.0000   1.0000   1.0000   1.0000   1.0000   1.0000
     1.0000   1.0000   1.0000   1.0000   1.0000   1.0000   1.0000   1.0000
     1.0000   1.0000   1.0000   1.0000   1.0000   1.0000   1.0000   1.0000
     1.0000   1.0000   1.0000   1.0000   1.0000   1.0000   1.0000   1.0000
     1.0000   1.0000   1.0000   1.0000   1.0000   1.0000   1.0000   1.0000
     1.0000   1.0000   1.0000   1.0000   1.0000   1.0000   1.0000   1.0000
     1.0000   1.0000   1.0000   1.0000   1.0179   1.0221   0.8045   0.7758
     0.5423   0.4794   0.2036   0.1647  -0.0060  -0.0044  -0.0019  -0.0012
    -0.0000  -0.0000  -0.0000  -0.0000  -0.0000  -0.0000

          k = 0.0000 0.3333 0.4167 (  9633 PWs)   bands (ev):

   -56.5008 -56.5008 -56.4963 -56.4963 -56.4799 -56.4799 -56.4782 -56.4782
   -28.5827 -28.5796 -28.5755 -28.5741 -28.5371 -28.5356 -28.5237 -28.5230
   -27.6234 -27.6225 -27.5850 -27.5809 -27.5537 -27.5482 -27.5369 -27.5299
   -27.5255 -27.5093 -27.5009 -27.4938 -27.4524 -27.4444 -27.4341 -27.4319
     4.5300   4.5307   5.3660   5.3678   6.7394   6.7422   7.4118   7.4148
    10.2064  10.2081  10.3656  10.3678  11.0317  11.0346  11.3561  11.3632
    11.7476  11.7505  11.9382  11.9434  12.3003  12.3065  12.4376  12.4463
    13.2752  13.2833  13.4181  13.4203  13.5839  13.5864  13.7591  13.7643
    14.0547  14.0621  14.1735  14.1816  14.5736  14.5974  14.7028  14.7214
    14.9170  14.9339  14.9751  14.9940  15.4952  15.5157  15.5357  15.5641
    16.3321  16.3421  16.5035  16.5098  17.0974  17.1168

     occupation numbers 
     1.0000   1.0000   1.0000   1.0000   1.0000   1.0000   1.0000   1.0000
     1.0000   1.0000   1.0000   1.0000   1.0000   1.0000   1.0000   1.0000
     1.0000   1.0000   1.0000   1.0000   1.0000   1.0000   1.0000   1.0000
     1.0000   1.0000   1.0000   1.0000   1.0000   1.0000   1.0000   1.0000
     1.0000   1.0000   1.0000   1.0000   1.0000   1.0000   1.0000   1.0000
     1.0000   1.0000   1.0000   1.0000   1.0000   1.0000   1.0000   1.0000
     1.0000   1.0000   1.0000   1.0000   1.0000   1.0000   1.0000   1.0000
     1.0000   1.0000   1.0000   1.0000   1.0000   1.0000   1.0000   1.0000
     1.0000   1.0000   1.0002   1.0002   1.0318   1.0344   1.0155   1.0031
     0.6155   0.5638   0.4361   0.3785  -0.0083  -0.0065  -0.0050  -0.0034
    -0.0000  -0.0000  -0.0000  -0.0000  -0.0000  -0.0000

          k = 0.0000 0.3333-0.5000 (  9646 PWs)   bands (ev):

   -56.4984 -56.4984 -56.4984 -56.4984 -56.4792 -56.4792 -56.4792 -56.4792
   -28.5798 -28.5798 -28.5756 -28.5756 -28.5317 -28.5317 -28.5288 -28.5288
   -27.6216 -27.6216 -27.5846 -27.5846 -27.5498 -27.5498 -27.5321 -27.5321
   -27.5198 -27.5198 -27.4983 -27.4983 -27.4473 -27.4473 -27.4327 -27.4327
     4.9493   4.9493   4.9507   4.9507   7.0284   7.0284   7.0334   7.0334
    10.3304  10.3304  10.3324  10.3324  11.2378  11.2378  11.2462  11.2462
    11.7606  11.7606  11.7661  11.7661  12.3339  12.3339  12.3412  12.3412
    13.3667  13.3667  13.3738  13.3738  13.6749  13.6749  13.6836  13.6836
    14.1704  14.1704  14.1759  14.1759  14.6107  14.6107  14.6298  14.6298
    14.9434  14.9434  14.9583  14.9583  15.4981  15.4981  15.5223  15.5223
    16.4403  16.4403  16.4511  16.4511  17.1952  17.1971

     occupation numbers 
     1.0000   1.0000   1.0000   1.0000   1.0000   1.0000   1.0000   1.0000
     1.0000   1.0000   1.0000   1.0000   1.0000   1.0000   1.0000   1.0000
     1.0000   1.0000   1.0000   1.0000   1.0000   1.0000   1.0000   1.0000
     1.0000   1.0000   1.0000   1.0000   1.0000   1.0000   1.0000   1.0000
     1.0000   1.0000   1.0000   1.0000   1.0000   1.0000   1.0000   1.0000
     1.0000   1.0000   1.0000   1.0000   1.0000   1.0000   1.0000   1.0000
     1.0000   1.0000   1.0000   1.0000   1.0000   1.0000   1.0000   1.0000
     1.0000   1.0000   1.0000   1.0000   1.0000   1.0000   1.0000   1.0000
     1.0002   1.0002   1.0002   1.0002   1.0352   1.0352   1.0353   1.0353
     0.5344   0.5344   0.4881   0.4881  -0.0081  -0.0081  -0.0060  -0.0060
    -0.0000  -0.0000  -0.0000  -0.0000  -0.0000  -0.0000

          k = 0.0000 0.4167 0.4167 (  9620 PWs)   bands (ev):

[...]
    12.1174  12.1174  12.1241  12.1241  12.4603  12.4603  12.4692  12.4692
    13.2042  13.2042  13.2088  13.2088  13.7316  13.7316  13.7452  13.7452
    14.3197  14.3197  14.3245  14.3245  14.7067  14.7067  14.7330  14.7330
    14.8545  14.8545  14.8934  14.8934  15.3765  15.3765  15.3877  15.3877
    16.4340  16.4340  16.4435  16.4435  17.0302  17.0335

     occupation numbers 
     1.0000   1.0000   1.0000   1.0000   1.0000   1.0000   1.0000   1.0000
     1.0000   1.0000   1.0000   1.0000   1.0000   1.0000   1.0000   1.0000
     1.0000   1.0000   1.0000   1.0000   1.0000   1.0000   1.0000   1.0000
     1.0000   1.0000   1.0000   1.0000   1.0000   1.0000   1.0000   1.0000
     1.0000   1.0000   1.0000   1.0000   1.0000   1.0000   1.0000   1.0000
     1.0000   1.0000   1.0000   1.0000   1.0000   1.0000   1.0000   1.0000
     1.0000   1.0000   1.0000   1.0000   1.0000   1.0000   1.0000   1.0000
     1.0000   1.0000   1.0000   1.0000   1.0000   1.0000   1.0000   1.0000
     1.0024   1.0024   1.0025   1.0025   1.0132   1.0132   0.9935   0.9935
     0.7890   0.7890   0.6849   0.6849  -0.0253  -0.0253  -0.0234  -0.0234
    -0.0000  -0.0000  -0.0000  -0.0000  -0.0000  -0.0000

          k =-0.2500 0.4167 0.3333 (  9646 PWs)   bands (ev):

   -56.4984 -56.4984 -56.4945 -56.4945 -56.4822 -56.4822 -56.4802 -56.4802
   -28.5779 -28.5751 -28.5703 -28.5691 -28.5424 -28.5406 -28.5308 -28.5294
   -27.6172 -27.6148 -27.5808 -27.5766 -27.5663 -27.5630 -27.5425 -27.5329
   -27.5224 -27.5088 -27.4840 -27.4761 -27.4598 -27.4551 -27.4363 -27.4338
     4.8885   4.8890   5.6564   5.6591   6.8099   6.8153   7.3888   7.3919
     8.9985   9.0029   9.5183   9.5231  10.7774  10.7807  11.2115  11.2133
    12.0003  12.0029  12.3395  12.3432  12.7070  12.7134  12.8293  12.8363
    13.1076  13.1152  13.1624  13.1742  13.4055  13.4134  13.5764  13.5868
    14.1378  14.1455  14.4449  14.4569  14.6833  14.6976  14.8325  14.8518
    14.9673  14.9790  15.1297  15.1630  15.2854  15.2934  15.4308  15.4440
    16.2784  16.2865  16.3856  16.3926  17.0203  17.0296

     occupation numbers 
     1.0000   1.0000   1.0000   1.0000   1.0000   1.0000   1.0000   1.0000
     1.0000   1.0000   1.0000   1.0000   1.0000   1.0000   1.0000   1.0000
     1.0000   1.0000   1.0000   1.0000   1.0000   1.0000   1.0000   1.0000
     1.0000   1.0000   1.0000   1.0000   1.0000   1.0000   1.0000   1.0000
     1.0000   1.0000   1.0000   1.0000   1.0000   1.0000   1.0000   1.0000
     1.0000   1.0000   1.0000   1.0000   1.0000   1.0000   1.0000   1.0000
     1.0000   1.0000   1.0000   1.0000   1.0000   1.0000   1.0000   1.0000
     1.0000   1.0000   1.0000   1.0000   1.0000   1.0000   1.0000   1.0000
     1.0001   1.0001   1.0118   1.0134   1.0248   1.0183   0.8403   0.7955
     0.4603   0.4243   0.0613   0.0192  -0.0354  -0.0354  -0.0164  -0.0145
    -0.0000  -0.0000  -0.0000  -0.0000  -0.0000  -0.0000

          k =-0.2500-0.5000 0.3333 (  9656 PWs)   bands (ev):

   -56.4962 -56.4962 -56.4962 -56.4962 -56.4813 -56.4813 -56.4813 -56.4813
   -28.5747 -28.5747 -28.5707 -28.5707 -28.5380 -28.5380 -28.5346 -28.5346
   -27.6145 -27.6145 -27.5800 -27.5800 -27.5649 -27.5649 -27.5383 -27.5383
   -27.5149 -27.5149 -27.4811 -27.4811 -27.4561 -27.4561 -27.4354 -27.4354
     5.2802   5.2802   5.2817   5.2817   7.0730   7.0730   7.0781   7.0781
     9.2473   9.2473   9.2519   9.2519  10.9388  10.9388  10.9414  10.9414
    12.1896  12.1896  12.1977  12.1977  12.7745  12.7745  12.7847  12.7847
    13.1176  13.1176  13.1288  13.1288  13.5005  13.5005  13.5108  13.5108
    14.3090  14.3090  14.3175  14.3175  14.7796  14.7796  14.7973  14.7973
    15.0303  15.0303  15.0554  15.0554  15.3569  15.3569  15.3720  15.3720
    16.3338  16.3338  16.3440  16.3440  17.0873  17.0884

     occupation numbers 
     1.0000   1.0000   1.0000   1.0000   1.0000   1.0000   1.0000   1.0000
     1.0000   1.0000   1.0000   1.0000   1.0000   1.0000   1.0000   1.0000
     1.0000   1.0000   1.0000   1.0000   1.0000   1.0000   1.0000   1.0000
     1.0000   1.0000   1.0000   1.0000   1.0000   1.0000   1.0000   1.0000
     1.0000   1.0000   1.0000   1.0000   1.0000   1.0000   1.0000   1.0000
     1.0000   1.0000   1.0000   1.0000   1.0000   1.0000   1.0000   1.0000
     1.0000   1.0000   1.0000   1.0000   1.0000   1.0000   1.0000   1.0000
     1.0000   1.0000   1.0000   1.0000   1.0000   1.0000   1.0000   1.0000
     1.0020   1.0020   1.0023   1.0023   0.9383   0.9383   0.9098   0.9098
     0.2741   0.2741   0.2087   0.2087  -0.0286  -0.0286  -0.0261  -0.0261
    -0.0000  -0.0000  -0.0000  -0.0000  -0.0000  -0.0000

          k =-0.2500-0.5000 0.4167 (  9646 PWs)   bands (ev):

   -56.4953 -56.4953 -56.4953 -56.4953 -56.4823 -56.4823 -56.4823 -56.4823
   -28.5714 -28.5714 -28.5689 -28.5689 -28.5403 -28.5403 -28.5381 -28.5381
   -27.6075 -27.6075 -27.5881 -27.5881 -27.5625 -27.5625 -27.5414 -27.5414
   -27.5101 -27.5101 -27.4861 -27.4861 -27.4509 -27.4509 -27.4381 -27.4381
     5.5369   5.5369   5.5388   5.5388   6.7773   6.7773   6.7816   6.7816
     9.3214   9.3214   9.3264   9.3264  10.6410  10.6410  10.6438  10.6438
    12.3614  12.3614  12.3698  12.3698  12.6613  12.6613  12.6707  12.6707
    13.1101  13.1101  13.1165  13.1165  13.5448  13.5448  13.5573  13.5573
    14.4459  14.4459  14.4525  14.4525  14.8161  14.8161  14.8424  14.8424
    14.9538  14.9538  14.9915  14.9915  15.3208  15.3208  15.3322  15.3322
    16.3808  16.3808  16.3893  16.3893  16.9305  16.9325

     occupation numbers 
     1.0000   1.0000   1.0000   1.0000   1.0000   1.0000   1.0000   1.0000
     1.0000   1.0000   1.0000   1.0000   1.0000   1.0000   1.0000   1.0000
     1.0000   1.0000   1.0000   1.0000   1.0000   1.0000   1.0000   1.0000
     1.0000   1.0000   1.0000   1.0000   1.0000   1.0000   1.0000   1.0000
     1.0000   1.0000   1.0000   1.0000   1.0000   1.0000   1.0000   1.0000
     1.0000   1.0000   1.0000   1.0000   1.0000   1.0000   1.0000   1.0000
     1.0000   1.0000   1.0000   1.0000   1.0000   1.0000   1.0000   1.0000
     1.0000   1.0000   1.0000   1.0000   1.0000   1.0000   1.0000   1.0000
     1.0119   1.0119   1.0128   1.0128   0.8748   0.8748   0.8180   0.8180
     0.5021   0.5021   0.3861   0.3861  -0.0335  -0.0335  -0.0322  -0.0322
    -0.0000  -0.0000  -0.0000  -0.0000  -0.0000  -0.0000

          k =-0.3333-0.5000 0.4167 (  9664 PWs)   bands (ev):

   -56.4936 -56.4936 -56.4936 -56.4936 -56.4840 -56.4840 -56.4840 -56.4840
   -28.5677 -28.5677 -28.5653 -28.5653 -28.5446 -28.5446 -28.5423 -28.5423
   -27.6029 -27.6029 -27.5855 -27.5855 -27.5706 -27.5706 -27.5460 -27.5460
   -27.5036 -27.5036 -27.4773 -27.4773 -27.4560 -27.4560 -27.4423 -27.4423
     5.7597   5.7597   5.7622   5.7622   6.7866   6.7866   6.7922   6.7922
     9.0482   9.0482   9.0545   9.0545  10.2141  10.2141  10.2177  10.2177
    12.5361  12.5361  12.5439  12.5439  12.8192  12.8192  12.8274  12.8274
    13.0623  13.0623  13.0719  13.0719  13.3563  13.3563  13.3668  13.3668
    14.5909  14.5909  14.5978  14.5978  14.9405  14.9405  14.9677  14.9677
    15.0545  15.0545  15.0889  15.0889  15.2586  15.2586  15.2769  15.2769
    16.3428  16.3428  16.3510  16.3510  16.7829  16.7883

     occupation numbers 
     1.0000   1.0000   1.0000   1.0000   1.0000   1.0000   1.0000   1.0000
     1.0000   1.0000   1.0000   1.0000   1.0000   1.0000   1.0000   1.0000
     1.0000   1.0000   1.0000   1.0000   1.0000   1.0000   1.0000   1.0000
     1.0000   1.0000   1.0000   1.0000   1.0000   1.0000   1.0000   1.0000
     1.0000   1.0000   1.0000   1.0000   1.0000   1.0000   1.0000   1.0000
     1.0000   1.0000   1.0000   1.0000   1.0000   1.0000   1.0000   1.0000
     1.0000   1.0000   1.0000   1.0000   1.0000   1.0000   1.0000   1.0000
     1.0000   1.0000   1.0000   1.0000   1.0000   1.0000   1.0000   1.0000
     1.0338   1.0338   1.0344   1.0344   0.5434   0.5434   0.4591   0.4591
     0.2111   0.2111   0.1334   0.1334  -0.0334  -0.0334  -0.0352  -0.0352
    -0.0000  -0.0000  -0.0000  -0.0000  -0.0000  -0.0000

     the Fermi energy is    14.9545 ev

!    total energy              =   -1180.35067647 Ry

     total all-electron energy =    -10727.811513 Ry
     estimated scf accuracy    <       0.00000022 Ry
     smearing contrib. (-TS)   =      -0.00090645 Ry
     internal energy E=F+TS    =   -1180.34977002 Ry

     The total energy is F=E-TS. E is the sum of the following terms:
     one-electron contribution =    -336.79692718 Ry
     hartree contribution      =     207.04181767 Ry
     xc contribution           =    -114.36194883 Ry
     ewald contribution        =    -496.51183961 Ry
     one-center paw contrib.   =    -439.72087207 Ry
      -> PAW hartree energy AE =     126.71576716 Ry
      -> PAW hartree energy PS =    -125.74842607 Ry
      -> PAW xc energy AE      =     -96.23982632 Ry
      -> PAW xc energy PS      =      20.93247149 Ry
      -> total E_H with PAW    =     208.00915876 Ry
      -> total E_XC with PAW   =    -189.66930367 Ry

     convergence has been achieved in   8 iterations

     Forces acting on atoms (cartesian axes, Ry/au):

     atom    1 type  1   force =    -0.00294350   -0.00294350    0.00294350
     atom    2 type  1   force =    -0.00294350    0.00294350   -0.00294350
     atom    3 type  1   force =     0.00294350   -0.00294350   -0.00294350
     atom    4 type  1   force =     0.00294350    0.00294350    0.00294350
     atom    5 type  2   force =    -0.00417510   -0.00417510    0.00417510
     atom    6 type  2   force =    -0.00417510    0.00417510   -0.00417510
     atom    7 type  2   force =     0.00417510   -0.00417510   -0.00417510
     atom    8 type  2   force =     0.00417510    0.00417510    0.00417510
     The non-local contrib.  to forces
     atom    1 type  1   force =     0.05117479    0.05117479   -0.05117479
     atom    2 type  1   force =     0.05117479   -0.05117479    0.05117479
     atom    3 type  1   force =    -0.05117479    0.05117479    0.05117479
     atom    4 type  1   force =    -0.05117479   -0.05117479   -0.05117479
     atom    5 type  2   force =    -0.00807569   -0.00807569    0.00807569
     atom    6 type  2   force =    -0.00807569    0.00807569   -0.00807569
     atom    7 type  2   force =     0.00807569   -0.00807569   -0.00807569
     atom    8 type  2   force =     0.00807569    0.00807569    0.00807569
     The ionic contribution  to forces
     atom    1 type  1   force =    -0.85044630   -0.85044630    0.85044630
     atom    2 type  1   force =    -0.85044630    0.85044630   -0.85044630
     atom    3 type  1   force =     0.85044630   -0.85044630   -0.85044630
     atom    4 type  1   force =     0.85044630    0.85044630    0.85044630
     atom    5 type  2   force =    -0.24524978   -0.24524978    0.24524978
     atom    6 type  2   force =    -0.24524978    0.24524978   -0.24524978
     atom    7 type  2   force =     0.24524978   -0.24524978   -0.24524978
     atom    8 type  2   force =     0.24524978    0.24524978    0.24524978
     The local contribution  to forces
     atom    1 type  1   force =     0.79725002    0.79725002   -0.79725002
     atom    2 type  1   force =     0.79725002   -0.79725002    0.79725002
     atom    3 type  1   force =    -0.79725002    0.79725002    0.79725002
     atom    4 type  1   force =    -0.79725002   -0.79725002   -0.79725002
     atom    5 type  2   force =     0.24836200    0.24836200   -0.24836200
     atom    6 type  2   force =     0.24836200   -0.24836200    0.24836200
     atom    7 type  2   force =    -0.24836200    0.24836200    0.24836200
     atom    8 type  2   force =    -0.24836200   -0.24836200   -0.24836200
     The core correction contribution to forces
     atom    1 type  1   force =    -0.00103247   -0.00103247    0.00103247
     atom    2 type  1   force =    -0.00103247    0.00103247   -0.00103247
     atom    3 type  1   force =     0.00103247   -0.00103247   -0.00103247
     atom    4 type  1   force =     0.00103247    0.00103247    0.00103247
     atom    5 type  2   force =     0.00079686    0.00079686   -0.00079686
     atom    6 type  2   force =     0.00079686   -0.00079686    0.00079686
     atom    7 type  2   force =    -0.00079686    0.00079686    0.00079686
     atom    8 type  2   force =    -0.00079686   -0.00079686   -0.00079686
     The Hubbard contrib.    to forces
     atom    1 type  1   force =     0.00000000    0.00000000    0.00000000
     atom    2 type  1   force =     0.00000000    0.00000000    0.00000000
     atom    3 type  1   force =     0.00000000    0.00000000    0.00000000
     atom    4 type  1   force =     0.00000000    0.00000000    0.00000000
     atom    5 type  2   force =     0.00000000    0.00000000    0.00000000
     atom    6 type  2   force =     0.00000000    0.00000000    0.00000000
     atom    7 type  2   force =     0.00000000    0.00000000    0.00000000
     atom    8 type  2   force =     0.00000000    0.00000000    0.00000000
     The SCF correction term to forces
     atom    1 type  1   force =     0.00011045    0.00011045   -0.00011045
     atom    2 type  1   force =     0.00011045   -0.00011045    0.00011045
     atom    3 type  1   force =    -0.00011045    0.00011045    0.00011045
     atom    4 type  1   force =    -0.00011045   -0.00011045   -0.00011045
     atom    5 type  2   force =    -0.00000849   -0.00000849    0.00000849
     atom    6 type  2   force =    -0.00000849    0.00000849   -0.00000849
     atom    7 type  2   force =     0.00000849   -0.00000849   -0.00000849
     atom    8 type  2   force =     0.00000849    0.00000849    0.00000849

     Total force =     0.017696     Total SCF correction =     0.000384


     Computing stress (Cartesian axis) and pressure

          total   stress  (Ry/bohr**3)                   (kbar)     P=      -41.78
  -0.00028402   0.00000000   0.00000000          -41.78        0.00        0.00
   0.00000000  -0.00028402   0.00000000            0.00      -41.78        0.00
   0.00000000   0.00000000  -0.00028402            0.00        0.00      -41.78

     kinetic stress (kbar)  35759.79      0.00      0.00
                                0.00  35759.79      0.00
                                0.00      0.00  35759.79

     local   stress (kbar) -10012.53      0.00     -0.00
                                0.00 -10012.53     -0.00
                               -0.00     -0.00 -10012.53

     nonloc. stress (kbar)   2427.59      0.00      0.00
                                0.00   2427.59      0.00
                                0.00      0.00   2427.59

     hartree stress (kbar)  15167.23     -0.00      0.00
                               -0.00  15167.23      0.00
                                0.00      0.00  15167.23

     exc-cor stress (kbar)  -1706.59     -0.00     -0.00
                               -0.00  -1706.59     -0.00
                               -0.00     -0.00  -1706.59

     corecor stress (kbar)  -5304.38      0.00     -0.00
                                0.00  -5304.38     -0.00
                               -0.00     -0.00  -5304.38

     ewald   stress (kbar) -36372.90      0.00      0.00
                                0.00 -36372.90      0.00
                                0.00      0.00 -36372.90

     hubbard stress (kbar)      0.00      0.00      0.00
                                0.00      0.00      0.00
                                0.00      0.00      0.00

     DFT-D   stress (kbar)      0.00      0.00      0.00
                                0.00      0.00      0.00
                                0.00      0.00      0.00

     XDM     stress (kbar)      0.00      0.00      0.00
                                0.00      0.00      0.00
                                0.00      0.00      0.00

     dft-nl  stress (kbar)      0.00      0.00      0.00
                                0.00      0.00      0.00
                                0.00      0.00      0.00

     TS-vdW  stress (kbar)      0.00      0.00      0.00
                                0.00      0.00      0.00
                                0.00      0.00      0.00



     Writing output data file /zfs_data/vergnior/martin/Scratch/OAL/CrSi/convergence/smearing/12x12x12/0.02/tmp/CrSi.save/
 
     init_run     :     18.67s CPU     19.23s WALL (       1 calls)
     electrons    :    593.02s CPU    603.37s WALL (       1 calls)
     forces       :     17.64s CPU     17.75s WALL (       1 calls)
     stress       :     43.92s CPU     44.23s WALL (       1 calls)

     Called by init_run:
     wfcinit      :     17.45s CPU     17.85s WALL (       1 calls)
     wfcinit:atom :      0.19s CPU      0.19s WALL (     119 calls)
     wfcinit:wfcr :     16.56s CPU     16.95s WALL (     119 calls)
     potinit      :      0.20s CPU      0.27s WALL (       1 calls)
     hinit0       :      0.18s CPU      0.19s WALL (       1 calls)

     Called by electrons:
     c_bands      :    495.45s CPU    503.07s WALL (       9 calls)
     sum_band     :     92.15s CPU     94.25s WALL (       9 calls)
     v_of_rho     :      0.25s CPU      0.26s WALL (       9 calls)
     v_h          :      0.02s CPU      0.02s WALL (       9 calls)
     v_xc         :      0.28s CPU      0.29s WALL (      11 calls)
     newd         :      4.39s CPU      5.00s WALL (       9 calls)
     PAW_pot      :      1.17s CPU      1.19s WALL (       9 calls)
     mix_rho      :      0.13s CPU      0.15s WALL (       9 calls)

     Called by c_bands:
     init_us_2    :      3.29s CPU      3.32s WALL (    2499 calls)
     cegterg      :    453.03s CPU    460.31s WALL (    1071 calls)

     Called by sum_band:
     sum_band:wei :      0.15s CPU      0.15s WALL (       9 calls)
     sum_band:loo :     88.59s CPU     89.96s WALL (       9 calls)
     sum_band:buf :      0.85s CPU      1.03s WALL (    1071 calls)
     sum_band:ini :      1.43s CPU      1.44s WALL (    1071 calls)
     sum_band:cal :      6.04s CPU      6.06s WALL (    1071 calls)
     sum_band:bec :     13.82s CPU     13.86s WALL (    1071 calls)
     addusdens    :      3.29s CPU      4.01s WALL (       9 calls)
     addusd:skk   :      0.01s CPU      0.01s WALL (      18 calls)
     addusd:dgemm :      1.40s CPU      2.10s WALL (      18 calls)
     addusd:qvan2 :      1.84s CPU      1.85s WALL (      18 calls)

     Called by *egterg:
     cdiaghg      :     42.73s CPU     42.90s WALL (    5789 calls)
     cegterg:over :     23.76s CPU     23.86s WALL (    4837 calls)
     cegterg:upda :     11.95s CPU     12.00s WALL (    4837 calls)
     cegterg:last :     23.69s CPU     23.78s WALL (    3128 calls)
     h_psi        :    312.79s CPU    319.88s WALL (    6027 calls)
     s_psi        :     43.23s CPU     43.40s WALL (    6027 calls)
     g_psi        :      0.71s CPU      0.72s WALL (    4837 calls)

     Called by h_psi:
     h_psi:calbec :     21.83s CPU     21.98s WALL (    6027 calls)
     vloc_psi     :    248.73s CPU    255.43s WALL (    6027 calls)
     add_vuspsi   :     40.38s CPU     40.58s WALL (    6027 calls)

     General routines
     calbec       :     30.91s CPU     31.11s WALL (    7693 calls)
     fft          :      0.24s CPU      0.25s WALL (     216 calls)
     ffts         :      0.03s CPU      0.09s WALL (      72 calls)
     fftw         :    221.55s CPU    227.49s WALL ( 1472224 calls)
     interpolate  :      0.06s CPU      0.13s WALL (      36 calls)
 
     Parallel routines
     fft_scatt_xy :     22.10s CPU     22.59s WALL ( 1472512 calls)
     fft_scatt_yz :     80.21s CPU     82.26s WALL ( 1472512 calls)

     PAW routines
     PAW_pot      :      1.17s CPU      1.19s WALL (       9 calls)
     PAW_symme    :      0.02s CPU      0.02s WALL (      18 calls)
 
     PWSCF        :  11m18.07s CPU  11m33.94s WALL

 
   This run was terminated on:  12:52:21   1Aug2021            

=------------------------------------------------------------------------------=
   JOB DONE.
=------------------------------------------------------------------------------=
