
     Program PWSCF v.6.7MaX starts on 18May2022 at 16:21: 8 

     This program is part of the open-source Quantum ESPRESSO suite
     for quantum simulation of materials; please cite
         "P. Giannozzi et al., J. Phys.:Condens. Matter 21 395502 (2009);
         "P. Giannozzi et al., J. Phys.:Condens. Matter 29 465901 (2017);
          URL http://www.quantum-espresso.org", 
     in publications or presentations arising from this work. More details at
     http://www.quantum-espresso.org/quote

     Parallel version (MPI), running on    48 processors

     MPI processes distributed on     1 nodes
     R & G space division:  proc/nbgrp/npool/nimage =      48
     Waiting for input...
     Reading input from standard input

     Current dimensions of program PWSCF are:
     Max number of different atomic species (ntypx) = 10
     Max number of k-points (npk) =  40000
     Max angular momentum in pseudopotentials (lmaxx) =  3
     file O.pbe-nl-kjpaw_psl.1.0.0.UPF: wavefunction(s)  2S 2P renormalized
     file Cl.pbe-nl-kjpaw_psl.1.0.0.UPF: wavefunction(s)  3S renormalized
     file Nb.pbe-spn-kjpaw_psl.1.0.0.UPF: wavefunction(s)  4S 4P 4D renormalized

     Subspace diagonalization in iterative solution of the eigenvalue problem:
     a serial algorithm will be used

     Message from routine setup:
     using ibrav=0 with symmetry is DISCOURAGED, use correct ibrav instead
 
     Parallelization info
     --------------------
     sticks:   dense  smooth     PW     G-vecs:    dense   smooth      PW
     Min         264     105     32                10098     2555     440
     Max         265     106     33                10099     2557     443
     Sum       12691    5073   1577               484717   122685   21215
 


     bravais-lattice index     =            0
     lattice parameter (alat)  =      12.6717  a.u.
     unit-cell volume          =     547.9313 (a.u.)^3
     number of atoms/cell      =            4
     number of atomic types    =            3
     number of electrons       =        33.00
     number of Kohn-Sham states=           21
     kinetic-energy cutoff     =     140.0000  Ry
     charge density cutoff     =    1400.0000  Ry
     scf convergence threshold =      1.0E-10
     mixing beta               =       0.7000
     number of iterations used =            8  plain     mixing
     Exchange-correlation= SLA  PW   PBX  PBC
                           (   1   4   3   4   0   0   0)

     celldm(1)=  12.671676  celldm(2)=   0.000000  celldm(3)=   0.000000
     celldm(4)=   0.000000  celldm(5)=   0.000000  celldm(6)=   0.000000

     crystal axes: (cart. coord. in units of alat)
               a(1) = (  -0.250426   0.291161   0.923316 )  
               a(2) = (   0.250426  -0.291161   0.923316 )  
               a(3) = (   0.250426   0.291161  -0.923316 )  

     reciprocal axes: (cart. coord. in units 2 pi/alat)
               b(1) = (  0.000000  1.717261  0.541527 )  
               b(2) = (  1.996594  0.000000  0.541527 )  
               b(3) = (  1.996594  1.717261  0.000000 )  


     PseudoPot. # 1 for O  read from file:
     /zfs_data/gutierre/Scratch/Cl2NbO/convergence/cutoff/8x8x8/140/pseudo/O.pbe-nl-kjpaw_psl.1.0.0.UPF
     MD5 check sum: df3ddea38124b4e5de5e1084591730e4
     Pseudo is Projector augmented-wave + core cor, Zval =  6.0
     Generated using 'atomic' code by A. Dal Corso  v.6.7MaX
     Shape of augmentation charge: PSQ
     Using radial grid of 1095 points,  4 beta functions with: 
                l(1) =   0
                l(2) =   0
                l(3) =   1
                l(4) =   1
     Q(r) pseudized with 0 coefficients 


     PseudoPot. # 2 for Cl read from file:
     /zfs_data/gutierre/Scratch/Cl2NbO/convergence/cutoff/8x8x8/140/pseudo/Cl.pbe-nl-kjpaw_psl.1.0.0.UPF
     MD5 check sum: 8cf6bde52c08f6236e0f72a8870677af
     Pseudo is Projector augmented-wave + core cor, Zval =  7.0
     Generated using 'atomic' code by A. Dal Corso  v.6.7MaX
     Shape of augmentation charge: PSQ
     Using radial grid of 1157 points,  4 beta functions with: 
                l(1) =   0
                l(2) =   0
                l(3) =   1
                l(4) =   1
     Q(r) pseudized with 0 coefficients 


     PseudoPot. # 3 for Nb read from file:
     /zfs_data/gutierre/Scratch/Cl2NbO/convergence/cutoff/8x8x8/140/pseudo/Nb.pbe-spn-kjpaw_psl.1.0.0.UPF
     MD5 check sum: 1ec1a3aa7bf3cbf7f7e0d720422bce7a
     Pseudo is Projector augmented-wave + core cor, Zval = 13.0
     Generated using 'atomic' code by A. Dal Corso  v.6.7MaX
     Shape of augmentation charge: PSQ
     Using radial grid of 1227 points,  6 beta functions with: 
                l(1) =   0
                l(2) =   0
                l(3) =   1
                l(4) =   1
                l(5) =   2
                l(6) =   2
     Q(r) pseudized with 0 coefficients 


     atomic species   valence    mass     pseudopotential
        O              6.00    15.99940     O ( 1.00)
        Cl             7.00    35.45150     Cl( 1.00)
        Nb            13.00    92.90637     Nb( 1.00)

      8 Sym. Ops., with inversion, found


                                    s                        frac. trans.

      isym =  1     identity                                     

 cryst.   s( 1) = (     1          0          0      )
                  (     0          1          0      )
                  (     0          0          1      )

 cart.    s( 1) = (  1.0000000  0.0000000  0.0000000 )
                  (  0.0000000  1.0000000  0.0000000 )
                  (  0.0000000  0.0000000  1.0000000 )


      isym =  2     180 deg rotation - cart. axis [0,0,1]        

 cryst.   s( 2) = (     0          1          0      )
                  (     1          0          0      )
                  (    -1         -1         -1      )

 cart.    s( 2) = ( -1.0000000  0.0000000  0.0000000 )
                  (  0.0000000 -1.0000000  0.0000000 )
                  (  0.0000000  0.0000000  1.0000000 )


      isym =  3     180 deg rotation - cart. axis [0,1,0]        

 cryst.   s( 3) = (     0          0          1      )
                  (    -1         -1         -1      )
                  (     1          0          0      )

 cart.    s( 3) = ( -1.0000000  0.0000000  0.0000000 )
                  (  0.0000000  1.0000000  0.0000000 )
                  (  0.0000000  0.0000000 -1.0000000 )


      isym =  4     180 deg rotation - cart. axis [1,0,0]        

 cryst.   s( 4) = (    -1         -1         -1      )
                  (     0          0          1      )
                  (     0          1          0      )

 cart.    s( 4) = (  1.0000000  0.0000000  0.0000000 )
                  (  0.0000000 -1.0000000  0.0000000 )
                  (  0.0000000  0.0000000 -1.0000000 )


      isym =  5     inversion                                    

 cryst.   s( 5) = (    -1          0          0      )
                  (     0         -1          0      )
                  (     0          0         -1      )

 cart.    s( 5) = ( -1.0000000  0.0000000  0.0000000 )
                  (  0.0000000 -1.0000000  0.0000000 )
                  (  0.0000000  0.0000000 -1.0000000 )


      isym =  6     inv. 180 deg rotation - cart. axis [0,0,1]   

 cryst.   s( 6) = (     0         -1          0      )
                  (    -1          0          0      )
                  (     1          1          1      )

 cart.    s( 6) = (  1.0000000  0.0000000  0.0000000 )
                  (  0.0000000  1.0000000  0.0000000 )
                  (  0.0000000  0.0000000 -1.0000000 )


      isym =  7     inv. 180 deg rotation - cart. axis [0,1,0]   

 cryst.   s( 7) = (     0          0         -1      )
                  (     1          1          1      )
                  (    -1          0          0      )

 cart.    s( 7) = (  1.0000000  0.0000000  0.0000000 )
                  (  0.0000000 -1.0000000  0.0000000 )
                  (  0.0000000  0.0000000  1.0000000 )


      isym =  8     inv. 180 deg rotation - cart. axis [1,0,0]   

 cryst.   s( 8) = (     1          1          1      )
                  (     0          0         -1      )
                  (     0         -1          0      )

 cart.    s( 8) = ( -1.0000000  0.0000000  0.0000000 )
                  (  0.0000000  1.0000000  0.0000000 )
                  (  0.0000000  0.0000000  1.0000000 )


   Cartesian axes

     site n.     atom                  positions (alat units)
         1           O   tau(   1) = (   0.0000000   0.2911613   0.0000000  )
         2           Cl  tau(   2) = (  -0.0000000   0.2911613   0.6365338  )
         3           Cl  tau(   3) = (   0.2504264  -0.0000000   0.2867819  )
         4           Nb  tau(   4) = (   0.0000000   0.0000000   0.0000000  )

   Crystallographic axes

     site n.     atom                  positions (cryst. coord.)
         1           O   tau(   1) = (  0.5000000  0.0000000  0.5000000  )
         2           Cl  tau(   2) = (  0.8447000  0.3447000  0.5000000  )
         3           Cl  tau(   3) = (  0.1553000  0.6553000  0.5000000  )
         4           Nb  tau(   4) = (  0.0000000  0.0000000  0.0000000  )

     number of k points=    95  Methfessel-Paxton smearing, width (Ry)=  0.0120
                       cart. coord. in units 2pi/alat
        k(    1) = (   0.0000000   0.0000000   0.0000000), wk =   0.0039062
        k(    2) = (   0.2495743   0.2146577   0.0000000), wk =   0.0156250
        k(    3) = (   0.4991486   0.4293153   0.0000000), wk =   0.0156250
        k(    4) = (   0.7487229   0.6439730   0.0000000), wk =   0.0156250
        k(    5) = (  -0.9982971  -0.8586307   0.0000000), wk =   0.0078125
        k(    6) = (   0.2495743   0.0000000   0.0676908), wk =   0.0156250
        k(    7) = (   0.4991486   0.2146577   0.0676908), wk =   0.0312500
        k(    8) = (   0.7487229   0.4293153   0.0676908), wk =   0.0312500
        k(    9) = (   0.9982971   0.6439730   0.0676908), wk =   0.0312500
        k(   10) = (  -0.7487229  -0.8586307   0.0676908), wk =   0.0312500
        k(   11) = (  -0.4991486  -0.6439730   0.0676908), wk =   0.0312500
        k(   12) = (  -0.2495743  -0.4293153   0.0676908), wk =   0.0312500
        k(   13) = (   0.0000000  -0.2146577   0.0676908), wk =   0.0156250
        k(   14) = (   0.4991486   0.0000000   0.1353817), wk =   0.0156250
        k(   15) = (   0.7487229   0.2146577   0.1353817), wk =   0.0312500
        k(   16) = (   0.9982971   0.4293153   0.1353817), wk =   0.0312500
        k(   17) = (   1.2478714   0.6439730   0.1353817), wk =   0.0312500
        k(   18) = (  -0.4991486  -0.8586307   0.1353817), wk =   0.0312500
        k(   19) = (  -0.2495743  -0.6439730   0.1353817), wk =   0.0312500
        k(   20) = (   0.0000000  -0.4293153   0.1353817), wk =   0.0156250
        k(   21) = (   0.2495743  -0.2146577   0.1353817), wk =   0.0312500
        k(   22) = (   0.7487229   0.0000000   0.2030725), wk =   0.0156250
        k(   23) = (   0.9982971   0.2146577   0.2030725), wk =   0.0312500
        k(   24) = (   1.2478714   0.4293153   0.2030725), wk =   0.0312500
        k(   25) = (   1.4974457   0.6439730   0.2030725), wk =   0.0312500
        k(   26) = (  -0.2495743  -0.8586307   0.2030725), wk =   0.0312500
        k(   27) = (   0.0000000  -0.6439730   0.2030725), wk =   0.0156250
        k(   28) = (   0.2495743  -0.4293153   0.2030725), wk =   0.0312500
        k(   29) = (   0.4991486  -0.2146577   0.2030725), wk =   0.0312500
        k(   30) = (  -0.9982971   0.0000000  -0.2707633), wk =   0.0078125
        k(   31) = (  -0.7487229   0.2146577  -0.2707633), wk =   0.0312500
        k(   32) = (  -0.4991486   0.4293153  -0.2707633), wk =   0.0312500
        k(   33) = (  -0.2495743   0.6439730  -0.2707633), wk =   0.0312500
        k(   34) = (  -1.9965943  -0.8586307  -0.2707633), wk =   0.0078125
        k(   35) = (   0.4991486   0.4293153   0.1353817), wk =   0.0312500
        k(   36) = (   0.7487229   0.6439730   0.1353817), wk =   0.0312500
        k(   37) = (   0.9982971   0.8586307   0.1353817), wk =   0.0156250
        k(   38) = (   0.0000000   0.0000000   0.1353817), wk =   0.0078125
        k(   39) = (   0.7487229   0.4293153   0.2030725), wk =   0.0312500
        k(   40) = (   0.9982971   0.6439730   0.2030725), wk =   0.0312500
        k(   41) = (   1.2478714   0.8586307   0.2030725), wk =   0.0312500
        k(   42) = (  -0.4991486  -0.6439730   0.2030725), wk =   0.0312500
        k(   43) = (   0.0000000  -0.2146577   0.2030725), wk =   0.0156250
        k(   44) = (   0.2495743   0.0000000   0.2030725), wk =   0.0156250
        k(   45) = (   0.9982971   0.4293153   0.2707633), wk =   0.0156250
        k(   46) = (   1.2478714   0.6439730   0.2707633), wk =   0.0312500
        k(   47) = (   1.4974457   0.8586307   0.2707633), wk =   0.0156250
        k(   48) = (   0.0000000  -0.4293153   0.2707633), wk =   0.0156250
        k(   49) = (   0.2495743  -0.2146577   0.2707633), wk =   0.0312500
        k(   50) = (   0.4991486   0.0000000   0.2707633), wk =   0.0156250
        k(   51) = (  -1.9965943  -0.6439730  -0.2030725), wk =   0.0156250
        k(   52) = (  -1.7470200  -0.4293153  -0.2030725), wk =   0.0312500
        k(   53) = (  -1.4974457  -0.2146577  -0.2030725), wk =   0.0312500
        k(   54) = (  -1.2478714   0.0000000  -0.2030725), wk =   0.0156250
        k(   55) = (   0.0000000   0.8586307  -0.1353817), wk =   0.0156250
        k(   56) = (  -1.7470200  -0.6439730  -0.1353817), wk =   0.0312500
        k(   57) = (  -1.4974457  -0.4293153  -0.1353817), wk =   0.0312500
        k(   58) = (  -1.2478714  -0.2146577  -0.1353817), wk =   0.0312500
        k(   59) = (  -0.9982971   0.0000000  -0.1353817), wk =   0.0156250
        k(   60) = (   0.0000000   0.6439730  -0.0676908), wk =   0.0156250
        k(   61) = (   0.2495743   0.8586307  -0.0676908), wk =   0.0312500
        k(   62) = (  -1.4974457  -0.6439730  -0.0676908), wk =   0.0312500
        k(   63) = (  -1.2478714  -0.4293153  -0.0676908), wk =   0.0312500
        k(   64) = (  -0.9982971  -0.2146577  -0.0676908), wk =   0.0312500
        k(   65) = (  -0.7487229   0.0000000  -0.0676908), wk =   0.0156250
        k(   66) = (   0.0000000   0.4293153   0.0000000), wk =   0.0078125
        k(   67) = (   0.2495743   0.6439730   0.0000000), wk =   0.0156250
        k(   68) = (   0.4991486   0.8586307   0.0000000), wk =   0.0156250
        k(   69) = (  -1.2478714  -0.6439730   0.0000000), wk =   0.0156250
        k(   70) = (  -0.9982971  -0.4293153   0.0000000), wk =   0.0156250
        k(   71) = (  -0.7487229  -0.2146577   0.0000000), wk =   0.0156250
        k(   72) = (  -0.4991486   0.0000000   0.0000000), wk =   0.0078125
        k(   73) = (   0.9982971   0.8586307   0.2707633), wk =   0.0078125
        k(   74) = (   0.0000000   0.0000000   0.2707633), wk =   0.0078125
        k(   75) = (   0.0000000  -0.2146577   0.3384542), wk =   0.0156250
        k(   76) = (   0.2495743   0.0000000   0.3384542), wk =   0.0156250
        k(   77) = (  -1.9965943  -0.4293153  -0.1353817), wk =   0.0156250
        k(   78) = (  -1.7470200  -0.2146577  -0.1353817), wk =   0.0312500
        k(   79) = (  -1.4974457   0.0000000  -0.1353817), wk =   0.0156250
        k(   80) = (   0.0000000   1.0732883  -0.0676908), wk =   0.0156250
        k(   81) = (  -1.7470200  -0.4293153  -0.0676908), wk =   0.0312500
        k(   82) = (  -1.4974457  -0.2146577  -0.0676908), wk =   0.0312500
        k(   83) = (  -1.2478714   0.0000000  -0.0676908), wk =   0.0156250
        k(   84) = (   0.0000000   0.8586307   0.0000000), wk =   0.0078125
        k(   85) = (   0.2495743   1.0732883   0.0000000), wk =   0.0156250
        k(   86) = (  -1.4974457  -0.4293153   0.0000000), wk =   0.0156250
        k(   87) = (  -1.2478714  -0.2146577   0.0000000), wk =   0.0156250
        k(   88) = (  -0.9982971   0.0000000   0.0000000), wk =   0.0078125
        k(   89) = (   0.0000000   0.0000000   0.4061450), wk =   0.0078125
        k(   90) = (  -1.9965943  -0.2146577  -0.0676908), wk =   0.0156250
        k(   91) = (  -1.7470200   0.0000000  -0.0676908), wk =   0.0156250
        k(   92) = (   0.0000000   1.2879460   0.0000000), wk =   0.0078125
        k(   93) = (  -1.7470200  -0.2146577   0.0000000), wk =   0.0156250
        k(   94) = (  -1.4974457   0.0000000   0.0000000), wk =   0.0078125
        k(   95) = (  -1.9965943  -1.7172613  -0.5415266), wk =   0.0039062

                       cryst. coord.
        k(    1) = (   0.0000000   0.0000000   0.0000000), wk =   0.0039062
        k(    2) = (   0.0000000   0.0000000   0.1250000), wk =   0.0156250
        k(    3) = (   0.0000000   0.0000000   0.2500000), wk =   0.0156250
        k(    4) = (  -0.0000000   0.0000000   0.3750000), wk =   0.0156250
        k(    5) = (   0.0000000   0.0000000  -0.5000000), wk =   0.0078125
        k(    6) = (   0.0000000   0.1250000   0.0000000), wk =   0.0156250
        k(    7) = (   0.0000000   0.1250000   0.1250000), wk =   0.0312500
        k(    8) = (   0.0000000   0.1250000   0.2500000), wk =   0.0312500
        k(    9) = (  -0.0000000   0.1250000   0.3750000), wk =   0.0312500
        k(   10) = (   0.0000000   0.1250000  -0.5000000), wk =   0.0312500
        k(   11) = (   0.0000000   0.1250000  -0.3750000), wk =   0.0312500
        k(   12) = (   0.0000000   0.1250000  -0.2500000), wk =   0.0312500
        k(   13) = (   0.0000000   0.1250000  -0.1250000), wk =   0.0156250
        k(   14) = (   0.0000000   0.2500000   0.0000000), wk =   0.0156250
        k(   15) = (   0.0000000   0.2500000   0.1250000), wk =   0.0312500
        k(   16) = (   0.0000000   0.2500000   0.2500000), wk =   0.0312500
        k(   17) = (  -0.0000000   0.2500000   0.3750000), wk =   0.0312500
        k(   18) = (   0.0000000   0.2500000  -0.5000000), wk =   0.0312500
        k(   19) = (   0.0000000   0.2500000  -0.3750000), wk =   0.0312500
        k(   20) = (   0.0000000   0.2500000  -0.2500000), wk =   0.0156250
        k(   21) = (   0.0000000   0.2500000  -0.1250000), wk =   0.0312500
        k(   22) = (   0.0000000   0.3750000   0.0000000), wk =   0.0156250
        k(   23) = (   0.0000000   0.3750000   0.1250000), wk =   0.0312500
        k(   24) = (  -0.0000000   0.3750000   0.2500000), wk =   0.0312500
        k(   25) = (  -0.0000000   0.3750000   0.3750000), wk =   0.0312500
        k(   26) = (   0.0000000   0.3750000  -0.5000000), wk =   0.0312500
        k(   27) = (   0.0000000   0.3750000  -0.3750000), wk =   0.0156250
        k(   28) = (   0.0000000   0.3750000  -0.2500000), wk =   0.0312500
        k(   29) = (   0.0000000   0.3750000  -0.1250000), wk =   0.0312500
        k(   30) = (   0.0000000  -0.5000000   0.0000000), wk =   0.0078125
        k(   31) = (   0.0000000  -0.5000000   0.1250000), wk =   0.0312500
        k(   32) = (   0.0000000  -0.5000000   0.2500000), wk =   0.0312500
        k(   33) = (   0.0000000  -0.5000000   0.3750000), wk =   0.0312500
        k(   34) = (   0.0000000  -0.5000000  -0.5000000), wk =   0.0078125
        k(   35) = (   0.1250000   0.1250000   0.1250000), wk =   0.0312500
        k(   36) = (   0.1250000   0.1250000   0.2500000), wk =   0.0312500
        k(   37) = (   0.1250000   0.1250000   0.3750000), wk =   0.0156250
        k(   38) = (   0.1250000   0.1250000  -0.1250000), wk =   0.0078125
        k(   39) = (   0.1250000   0.2500000   0.1250000), wk =   0.0312500
        k(   40) = (   0.1250000   0.2500000   0.2500000), wk =   0.0312500
        k(   41) = (   0.1250000   0.2500000   0.3750000), wk =   0.0312500
        k(   42) = (   0.1250000   0.2500000  -0.5000000), wk =   0.0312500
        k(   43) = (   0.1250000   0.2500000  -0.2500000), wk =   0.0156250
        k(   44) = (   0.1250000   0.2500000  -0.1250000), wk =   0.0156250
        k(   45) = (   0.1250000   0.3750000   0.1250000), wk =   0.0156250
        k(   46) = (   0.1250000   0.3750000   0.2500000), wk =   0.0312500
        k(   47) = (   0.1250000   0.3750000   0.3750000), wk =   0.0156250
        k(   48) = (   0.1250000   0.3750000  -0.3750000), wk =   0.0156250
        k(   49) = (   0.1250000   0.3750000  -0.2500000), wk =   0.0312500
        k(   50) = (   0.1250000   0.3750000  -0.1250000), wk =   0.0156250
        k(   51) = (   0.1250000  -0.5000000  -0.5000000), wk =   0.0156250
        k(   52) = (   0.1250000  -0.5000000  -0.3750000), wk =   0.0312500
        k(   53) = (   0.1250000  -0.5000000  -0.2500000), wk =   0.0312500
        k(   54) = (   0.1250000  -0.5000000  -0.1250000), wk =   0.0156250
        k(   55) = (   0.1250000  -0.3750000   0.3750000), wk =   0.0156250
        k(   56) = (   0.1250000  -0.3750000  -0.5000000), wk =   0.0312500
        k(   57) = (   0.1250000  -0.3750000  -0.3750000), wk =   0.0312500
        k(   58) = (   0.1250000  -0.3750000  -0.2500000), wk =   0.0312500
        k(   59) = (   0.1250000  -0.3750000  -0.1250000), wk =   0.0156250
        k(   60) = (   0.1250000  -0.2500000   0.2500000), wk =   0.0156250
        k(   61) = (   0.1250000  -0.2500000   0.3750000), wk =   0.0312500
        k(   62) = (   0.1250000  -0.2500000  -0.5000000), wk =   0.0312500
        k(   63) = (   0.1250000  -0.2500000  -0.3750000), wk =   0.0312500
        k(   64) = (   0.1250000  -0.2500000  -0.2500000), wk =   0.0312500
        k(   65) = (   0.1250000  -0.2500000  -0.1250000), wk =   0.0156250
        k(   66) = (   0.1250000  -0.1250000   0.1250000), wk =   0.0078125
        k(   67) = (   0.1250000  -0.1250000   0.2500000), wk =   0.0156250
        k(   68) = (   0.1250000  -0.1250000   0.3750000), wk =   0.0156250
        k(   69) = (   0.1250000  -0.1250000  -0.5000000), wk =   0.0156250
        k(   70) = (   0.1250000  -0.1250000  -0.3750000), wk =   0.0156250
        k(   71) = (   0.1250000  -0.1250000  -0.2500000), wk =   0.0156250
        k(   72) = (   0.1250000  -0.1250000  -0.1250000), wk =   0.0078125
        k(   73) = (   0.2500000   0.2500000   0.2500000), wk =   0.0078125
        k(   74) = (   0.2500000   0.2500000  -0.2500000), wk =   0.0078125
        k(   75) = (   0.2500000   0.3750000  -0.3750000), wk =   0.0156250
        k(   76) = (   0.2500000   0.3750000  -0.2500000), wk =   0.0156250
        k(   77) = (   0.2500000  -0.5000000  -0.5000000), wk =   0.0156250
        k(   78) = (   0.2500000  -0.5000000  -0.3750000), wk =   0.0312500
        k(   79) = (   0.2500000  -0.5000000  -0.2500000), wk =   0.0156250
        k(   80) = (   0.2500000  -0.3750000   0.3750000), wk =   0.0156250
        k(   81) = (   0.2500000  -0.3750000  -0.5000000), wk =   0.0312500
        k(   82) = (   0.2500000  -0.3750000  -0.3750000), wk =   0.0312500
        k(   83) = (   0.2500000  -0.3750000  -0.2500000), wk =   0.0156250
        k(   84) = (   0.2500000  -0.2500000   0.2500000), wk =   0.0078125
        k(   85) = (   0.2500000  -0.2500000   0.3750000), wk =   0.0156250
        k(   86) = (   0.2500000  -0.2500000  -0.5000000), wk =   0.0156250
        k(   87) = (   0.2500000  -0.2500000  -0.3750000), wk =   0.0156250
        k(   88) = (   0.2500000  -0.2500000  -0.2500000), wk =   0.0078125
        k(   89) = (   0.3750000   0.3750000  -0.3750000), wk =   0.0078125
        k(   90) = (   0.3750000  -0.5000000  -0.5000000), wk =   0.0156250
        k(   91) = (   0.3750000  -0.5000000  -0.3750000), wk =   0.0156250
        k(   92) = (   0.3750000  -0.3750000   0.3750000), wk =   0.0078125
        k(   93) = (   0.3750000  -0.3750000  -0.5000000), wk =   0.0156250
        k(   94) = (   0.3750000  -0.3750000  -0.3750000), wk =   0.0078125
        k(   95) = (  -0.5000000  -0.5000000  -0.5000000), wk =   0.0039062

     Dense  grid:   484717 G-vectors     FFT dimensions: ( 160, 160, 160)

     Smooth grid:   122685 G-vectors     FFT dimensions: (  96,  96,  96)

     Dynamical RAM for                 wfc:       0.10 MB

     Dynamical RAM for     wfc (w. buffer):       9.81 MB

     Dynamical RAM for           str. fact:       0.46 MB

     Dynamical RAM for           local pot:       0.00 MB

     Dynamical RAM for          nlocal pot:       0.20 MB

     Dynamical RAM for                qrad:       9.00 MB

     Dynamical RAM for          rho,v,vnew:       2.81 MB

     Dynamical RAM for               rhoin:       0.94 MB

     Dynamical RAM for            rho*nmix:       2.47 MB

     Dynamical RAM for           G-vectors:       0.60 MB

     Dynamical RAM for          h,s,v(r/c):       0.08 MB

     Dynamical RAM for          <psi|beta>:       0.01 MB

     Dynamical RAM for                 psi:       0.20 MB

     Dynamical RAM for                hpsi:       0.20 MB

     Dynamical RAM for                spsi:       0.20 MB

     Dynamical RAM for      wfcinit/wfcrot:       0.26 MB

     Dynamical RAM for           addusdens:      28.97 MB

     Dynamical RAM for          addusforce:      29.36 MB

     Dynamical RAM for         addusstress:      30.97 MB

     Estimated static dynamical RAM per process >      30.81 MB

     Estimated max dynamical RAM per process >      61.78 MB

     Estimated total dynamical RAM >       2.90 GB

     Initial potential from superposition of free atoms

     starting charge   32.99867, renormalised to   33.00000
     Starting wfcs are   25 randomized atomic wfcs
     Checking if some PAW data can be deallocated... 
       PAW data deallocated on   36 nodes for type:  1
       PAW data deallocated on   24 nodes for type:  2
       PAW data deallocated on   36 nodes for type:  3

     total cpu time spent up to now is        4.2 secs

     Self-consistent Calculation

     iteration #  1     ecut=   140.00 Ry     beta= 0.70
     Davidson diagonalization with overlap
     ethr =  1.00E-02,  avg # of iterations =  2.3

     total cpu time spent up to now is        9.8 secs

     total energy              =    -534.52306093 Ry
     estimated scf accuracy    <       0.76577174 Ry

     iteration #  2     ecut=   140.00 Ry     beta= 0.70
     Davidson diagonalization with overlap
     ethr =  2.32E-03,  avg # of iterations =  3.6

     total cpu time spent up to now is       16.4 secs

     total energy              =    -533.64391527 Ry
     estimated scf accuracy    <       8.32508244 Ry

     iteration #  3     ecut=   140.00 Ry     beta= 0.70
     Davidson diagonalization with overlap
     ethr =  2.32E-03,  avg # of iterations =  3.5

     total cpu time spent up to now is       22.6 secs

     total energy              =    -534.97376751 Ry
     estimated scf accuracy    <       0.12356585 Ry

     iteration #  4     ecut=   140.00 Ry     beta= 0.70
     Davidson diagonalization with overlap
     ethr =  3.74E-04,  avg # of iterations =  1.3

     total cpu time spent up to now is       27.6 secs

     total energy              =    -534.96772955 Ry
     estimated scf accuracy    <       0.05832061 Ry

     iteration #  5     ecut=   140.00 Ry     beta= 0.70
     Davidson diagonalization with overlap
     ethr =  1.77E-04,  avg # of iterations =  1.5

     total cpu time spent up to now is       32.7 secs

     total energy              =    -534.96379552 Ry
     estimated scf accuracy    <       0.02349121 Ry

     iteration #  6     ecut=   140.00 Ry     beta= 0.70
     Davidson diagonalization with overlap
     ethr =  7.12E-05,  avg # of iterations =  2.0

     total cpu time spent up to now is       37.9 secs

     total energy              =    -534.96646016 Ry
     estimated scf accuracy    <       0.00058611 Ry

     iteration #  7     ecut=   140.00 Ry     beta= 0.70
     Davidson diagonalization with overlap
     ethr =  1.78E-06,  avg # of iterations =  3.7

     total cpu time spent up to now is       44.5 secs

     total energy              =    -534.96665304 Ry
     estimated scf accuracy    <       0.00016245 Ry

     iteration #  8     ecut=   140.00 Ry     beta= 0.70
     Davidson diagonalization with overlap
     ethr =  4.92E-07,  avg # of iterations =  1.4

     total cpu time spent up to now is       49.6 secs

     total energy              =    -534.96665347 Ry
     estimated scf accuracy    <       0.00002877 Ry

     iteration #  9     ecut=   140.00 Ry     beta= 0.70
     Davidson diagonalization with overlap
     ethr =  8.72E-08,  avg # of iterations =  2.3

     total cpu time spent up to now is       55.2 secs

     total energy              =    -534.96666006 Ry
     estimated scf accuracy    <       0.00000047 Ry

     iteration # 10     ecut=   140.00 Ry     beta= 0.70
     Davidson diagonalization with overlap
     ethr =  1.43E-09,  avg # of iterations =  4.1

     total cpu time spent up to now is       62.4 secs

     total energy              =    -534.96666034 Ry
     estimated scf accuracy    <       0.00000001 Ry

     iteration # 11     ecut=   140.00 Ry     beta= 0.70
     Davidson diagonalization with overlap
     ethr =  3.87E-11,  avg # of iterations =  4.0

     total cpu time spent up to now is       69.7 secs

     total energy              =    -534.96666035 Ry
     estimated scf accuracy    <       0.00000002 Ry

     iteration # 12     ecut=   140.00 Ry     beta= 0.70
     Davidson diagonalization with overlap
     ethr =  3.87E-11,  avg # of iterations =  2.0

     total cpu time spent up to now is       75.1 secs

     End of self-consistent calculation

          k = 0.0000 0.0000 0.0000 ( 15319 PWs)   bands (ev):

   -49.8413 -26.0578 -25.7925 -25.7151 -12.3814  -9.5182  -8.8288   0.6165
     2.4659   2.7366   2.8734   3.0039   3.4590   3.9425   4.2015   4.2830
     5.5048   7.2152   7.3551   8.6461   9.3878

     occupation numbers 
     1.0000   1.0000   1.0000   1.0000   1.0000   1.0000   1.0000   1.0000
     1.0000   1.0000   1.0000   1.0000   1.0000   1.0000   1.0000   1.0000
     1.0000  -0.0015  -0.0000  -0.0000  -0.0000

          k = 0.2496 0.2147 0.0000 ( 15289 PWs)   bands (ev):

   -49.8386 -26.0829 -25.7859 -25.7462 -12.1863  -9.4096  -8.8365   0.8281
     2.1217   2.2558   2.4433   2.9939   3.2922   3.5033   3.8831   4.0351
     5.9388   7.5249   7.5998   8.7504  10.0909

     occupation numbers 
     1.0000   1.0000   1.0000   1.0000   1.0000   1.0000   1.0000   1.0000
     1.0000   1.0000   1.0000   1.0000   1.0000   1.0000   1.0000   1.0000
     1.0000  -0.0000  -0.0000  -0.0000  -0.0000

          k = 0.4991 0.4293 0.0000 ( 15342 PWs)   bands (ev):

   -49.8323 -26.1416 -25.8201 -25.7700 -11.6874  -9.1322  -8.8586   1.1098
     1.4011   1.7327   1.8971   2.0067   2.1866   2.9229   3.8454   4.0132
     6.8098   8.1632   8.2736   9.1595  11.1496

     occupation numbers 
     1.0000   1.0000   1.0000   1.0000   1.0000   1.0000   1.0000   1.0000
     1.0000   1.0000   1.0000   1.0000   1.0000   1.0000   1.0000   1.0000
     0.5328  -0.0000  -0.0000  -0.0000  -0.0000

          k = 0.7487 0.6440 0.0000 ( 15357 PWs)   bands (ev):

   -49.8259 -26.1981 -25.8926 -25.7541 -11.1378  -8.8858  -8.8276  -0.0719
     0.9778   1.2641   1.6647   1.7788   2.1863   2.3102   3.5229   3.9755
     7.8672   8.8514   9.0589   9.5761  11.3804

     occupation numbers 
     1.0000   1.0000   1.0000   1.0000   1.0000   1.0000   1.0000   1.0000
     1.0000   1.0000   1.0000   1.0000   1.0000   1.0000   1.0000   1.0000
    -0.0000  -0.0000  -0.0000  -0.0000  -0.0000

          k =-0.9983-0.8586 0.0000 ( 15364 PWs)   bands (ev):

   -49.8233 -26.2208 -25.9222 -25.7475 -10.8905  -8.8985  -8.6910  -0.5608
     0.6051   0.9556   1.7499   1.8300   1.9829   2.5726   3.2692   3.8798
     8.4668   9.1822   9.3741   9.7676  11.4046

     occupation numbers 
     1.0000   1.0000   1.0000   1.0000   1.0000   1.0000   1.0000   1.0000
     1.0000   1.0000   1.0000   1.0000   1.0000   1.0000   1.0000   1.0000
    -0.0000  -0.0000  -0.0000  -0.0000  -0.0000

          k = 0.2496 0.0000 0.0677 ( 15291 PWs)   bands (ev):

   -49.8391 -26.0553 -25.7869 -25.7471 -12.3641  -9.4289  -8.8418   0.8062
     2.2496   2.6627   2.9508   3.0590   3.1021   3.8005   3.9330   4.1205
     5.9232   7.1248   7.2949   8.7304   9.7664

     occupation numbers 
     1.0000   1.0000   1.0000   1.0000   1.0000   1.0000   1.0000   1.0000
     1.0000   1.0000   1.0000   1.0000   1.0000   1.0000   1.0000   1.0000
     1.0000  -0.0112  -0.0001  -0.0000  -0.0000

          k = 0.4991 0.2147 0.0677 ( 15312 PWs)   bands (ev):

   -49.8335 -26.0766 -25.8225 -25.7723 -12.1452  -9.1893  -8.8603   1.2353
     1.9030   2.0824   2.2402   2.4849   2.8914   3.0649   3.8695   4.0701
     6.7586   7.3211   7.4391   9.1623  10.5514

     occupation numbers 
     1.0000   1.0000   1.0000   1.0000   1.0000   1.0000   1.0000   1.0000
     1.0000   1.0000   1.0000   1.0000   1.0000   1.0000   1.0000   1.0000
     0.7790  -0.0001  -0.0000  -0.0000  -0.0000

          k = 0.7487 0.4293 0.0677 ( 15333 PWs)   bands (ev):

   -49.8271 -26.1349 -25.8952 -25.7564 -11.6480  -8.9108  -8.8640   1.0914
     1.2396   1.4421   1.6810   1.9121   2.2616   2.5425   3.7129   4.1140
     7.7186   8.0644   8.1707   9.6535  11.1251

     occupation numbers 
     1.0000   1.0000   1.0000   1.0000   1.0000   1.0000   1.0000   1.0000
     1.0000   1.0000   1.0000   1.0000   1.0000   1.0000   1.0000   1.0000
    -0.0000  -0.0000  -0.0000  -0.0000  -0.0000

          k = 0.9983 0.6440 0.0677 ( 15348 PWs)   bands (ev):

   -49.8238 -26.1951 -25.9233 -25.7485 -11.1223  -8.9105  -8.7044  -0.0592
     0.7501   0.9305   1.5586   1.9412   2.2113   2.6028   3.3440   3.9450
     8.4545   8.7785   9.0178   9.7519  11.2795

     occupation numbers 
     1.0000   1.0000   1.0000   1.0000   1.0000   1.0000   1.0000   1.0000
     1.0000   1.0000   1.0000   1.0000   1.0000   1.0000   1.0000   1.0000
    -0.0000  -0.0000  -0.0000  -0.0000  -0.0000

          k =-0.7487-0.8586 0.0677 ( 15351 PWs)   bands (ev):

   -49.8255 -26.2238 -25.8915 -25.7531 -10.9052  -8.9044  -8.7818  -0.5715
     0.7912   1.2450   1.4371   1.8051   2.3300   2.4021   3.4322   3.8228
     7.9188   9.2333   9.4226   9.4870  11.3401

     occupation numbers 
     1.0000   1.0000   1.0000   1.0000   1.0000   1.0000   1.0000   1.0000
     1.0000   1.0000   1.0000   1.0000   1.0000   1.0000   1.0000   1.0000
    -0.0000  -0.0000  -0.0000  -0.0000  -0.0000

          k =-0.4991-0.6440 0.0677 ( 15353 PWs)   bands (ev):

   -49.8311 -26.2052 -25.8177 -25.7676 -11.1746  -9.0563  -8.8770  -0.1011
     1.3238   1.4610   1.5708   1.8786   2.1359   2.9311   3.7148   3.8065
     6.8864   8.9650   9.0518   9.2205  11.4236

     occupation numbers 
     1.0000   1.0000   1.0000   1.0000   1.0000   1.0000   1.0000   1.0000
     1.0000   1.0000   1.0000   1.0000   1.0000   1.0000   1.0000   1.0000
     0.1708  -0.0000  -0.0000  -0.0000  -0.0000

          k =-0.2496-0.4293 0.0677 ( 15314 PWs)   bands (ev):

   -49.8374 -26.1483 -25.7835 -25.7440 -11.7266  -9.3413  -8.8501   0.9165
     1.1322   1.4946   2.2525   2.5199   3.1832   3.4087   3.7279   3.9157
     6.0033   8.3722   8.4033   8.7855  10.6487

     occupation numbers 
     1.0000   1.0000   1.0000   1.0000   1.0000   1.0000   1.0000   1.0000
     1.0000   1.0000   1.0000   1.0000   1.0000   1.0000   1.0000   1.0000
     1.0000  -0.0000  -0.0000  -0.0000  -0.0000

          k = 0.0000-0.2147 0.0677 ( 15290 PWs)   bands (ev):

   -49.8408 -26.0855 -25.7915 -25.7142 -12.2032  -9.4879  -8.8376   0.6691
     2.0624   2.4316   2.4884   3.2938   3.3570   3.7537   3.9563   4.1601
     5.5335   7.6403   7.6649   8.6756   9.7240

     occupation numbers 
     1.0000   1.0000   1.0000   1.0000   1.0000   1.0000   1.0000   1.0000
     1.0000   1.0000   1.0000   1.0000   1.0000   1.0000   1.0000   1.0000
     1.0000  -0.0000  -0.0000  -0.0000  -0.0000

          k = 0.4991 0.0000 0.1354 ( 15313 PWs)   bands (ev):

   -49.8340 -26.0493 -25.8234 -25.7733 -12.3225  -9.2061  -8.8680   1.1833
     1.9250   2.0242   2.4798   3.0496   3.3263   3.4624   3.7848   3.9088
     6.7878   6.9375   7.0955   9.1036  10.1131

     occupation numbers 
     1.0000   1.0000   1.0000   1.0000   1.0000   1.0000   1.0000   1.0000
     1.0000   1.0000   1.0000   1.0000   1.0000   1.0000   1.0000   1.0000
     0.6448   0.0259  -0.0181  -0.0000  -0.0000

          k = 0.7487 0.2147 0.1354 ( 15334 PWs)   bands (ev):

   -49.8283 -26.0704 -25.8977 -25.7587 -12.1043  -8.9711  -8.8629   1.0788
     1.4580   1.8246   2.0169   2.6174   2.7650   3.1395   3.8329   4.0161
     7.0922   7.2277   7.8517   9.6434  10.4503

     occupation numbers 
     1.0000   1.0000   1.0000   1.0000   1.0000   1.0000   1.0000   1.0000
     1.0000   1.0000   1.0000   1.0000   1.0000   1.0000   1.0000   1.0000
    -0.0189  -0.0011  -0.0000  -0.0000  -0.0000

          k = 0.9983 0.4293 0.1354 ( 15341 PWs)   bands (ev):

   -49.8250 -26.1321 -25.9259 -25.7508 -11.6315  -8.9393  -8.7361   0.7675
     1.2164   1.2400   1.4285   1.9512   2.6336   2.8137   3.5536   4.0446
     7.8512   8.1194   8.4572   9.7354  10.8992

     occupation numbers 
     1.0000   1.0000   1.0000   1.0000   1.0000   1.0000   1.0000   1.0000
     1.0000   1.0000   1.0000   1.0000   1.0000   1.0000   1.0000   1.0000
    -0.0000  -0.0000  -0.0000  -0.0000  -0.0000

          k = 1.2479 0.6440 0.1354 ( 15343 PWs)   bands (ev):

   -49.8259 -26.1981 -25.8926 -25.7541 -11.1375  -8.9417  -8.7677  -0.0722
     0.9217   1.1569   1.3356   1.9079   2.5118   2.5797   3.5034   3.8060
     7.9356   8.8353   9.0642   9.4132  11.1829

     occupation numbers 
     1.0000   1.0000   1.0000   1.0000   1.0000   1.0000   1.0000   1.0000
     1.0000   1.0000   1.0000   1.0000   1.0000   1.0000   1.0000   1.0000
    -0.0000  -0.0000  -0.0000  -0.0000  -0.0000

          k =-0.4991-0.8586 0.1354 ( 15333 PWs)   bands (ev):

   -49.8306 -26.2311 -25.8167 -25.7667 -10.9403  -8.9906  -8.9200  -0.5972
     1.1757   1.2213   1.7231   1.8014   2.1812   2.9627   3.5790   3.7467
     6.9404   8.9597   9.4192   9.5174  11.4682

     occupation numbers 
     1.0000   1.0000   1.0000   1.0000   1.0000   1.0000   1.0000   1.0000
     1.0000   1.0000   1.0000   1.0000   1.0000   1.0000   1.0000   1.0000
     0.0206  -0.0000  -0.0000  -0.0000  -0.0000

          k =-0.2496-0.6440 0.1354 ( 15336 PWs)   bands (ev):

   -49.8363 -26.2124 -25.7811 -25.7418 -11.2108  -9.2515  -8.8898  -0.1293
     0.9538   1.2478   2.0108   2.2590   2.9736   3.3195   3.5278   3.9362
     6.0719   8.7650   9.2204   9.2530  11.0499

     occupation numbers 
     1.0000   1.0000   1.0000   1.0000   1.0000   1.0000   1.0000   1.0000
     1.0000   1.0000   1.0000   1.0000   1.0000   1.0000   1.0000   1.0000
     1.0000  -0.0000  -0.0000  -0.0000  -0.0000

          k = 0.0000-0.4293 0.1354 ( 15314 PWs)   bands (ev):

   -49.8396 -26.1511 -25.7891 -25.7121 -11.7426  -9.4082  -8.8664   0.7805
     1.1087   1.4387   2.5449   2.9037   3.0140   3.5510   3.9518   4.0105
     5.5886   8.4236   8.5346   8.7476  10.3241

     occupation numbers 
     1.0000   1.0000   1.0000   1.0000   1.0000   1.0000   1.0000   1.0000
     1.0000   1.0000   1.0000   1.0000   1.0000   1.0000   1.0000   1.0000
     1.0000  -0.0000  -0.0000  -0.0000  -0.0000

          k = 0.2496-0.2147 0.1354 ( 15301 PWs)   bands (ev):

   -49.8386 -26.0829 -25.7859 -25.7462 -12.1860  -9.3906  -8.8596   0.8842
     2.1372   2.2506   2.4543   2.9577   3.2049   3.4972   3.8605   4.0661
     5.9622   7.5188   7.6175   8.7325  10.1561

     occupation numbers 
     1.0000   1.0000   1.0000   1.0000   1.0000   1.0000   1.0000   1.0000
     1.0000   1.0000   1.0000   1.0000   1.0000   1.0000   1.0000   1.0000
     1.0000  -0.0000  -0.0000  -0.0000  -0.0000

          k = 0.7487 0.0000 0.2031 ( 15319 PWs)   bands (ev):

   -49.8288 -26.0432 -25.8988 -25.7597 -12.2811  -9.0091  -8.8476   1.0096
     1.3336   1.9956   2.0960   3.1694   3.4407   3.5786   3.7291   3.7606
     6.7807   6.7955   7.8394   9.5464   9.9788

     occupation numbers 
     1.0000   1.0000   1.0000   1.0000   1.0000   1.0000   1.0000   1.0000
     1.0000   1.0000   1.0000   1.0000   1.0000   1.0000   1.0000   1.0000
     0.6789   0.6061  -0.0000  -0.0000  -0.0000

          k = 0.9983 0.2147 0.2031 ( 15325 PWs)   bands (ev):

   -49.8262 -26.0678 -25.9286 -25.7531 -12.0873  -8.9677  -8.7673   0.6970
     1.3338   1.7680   1.9292   2.6863   2.9043   3.4018   3.8041   3.9306
     7.0316   7.1200   8.4338   9.6744  10.3108

     occupation numbers 
     1.0000   1.0000   1.0000   1.0000   1.0000   1.0000   1.0000   1.0000
     1.0000   1.0000   1.0000   1.0000   1.0000   1.0000   1.0000   1.0000
    -0.0342  -0.0122  -0.0000  -0.0000  -0.0000

          k = 1.2479 0.4293 0.2031 ( 15331 PWs)   bands (ev):

   -49.8271 -26.1349 -25.8951 -25.7564 -11.6477  -8.9839  -8.7851   1.0043
     1.1818   1.2991   1.3941   2.0969   2.6504   2.8086   3.6919   3.9530
     7.8586   7.9904   8.1752   9.4054  10.8604

     occupation numbers 
     1.0000   1.0000   1.0000   1.0000   1.0000   1.0000   1.0000   1.0000
     1.0000   1.0000   1.0000   1.0000   1.0000   1.0000   1.0000   1.0000
    -0.0000  -0.0000  -0.0000  -0.0000  -0.0000

          k = 1.4974 0.6440 0.2031 ( 15342 PWs)   bands (ev):

   -49.8311 -26.2052 -25.8177 -25.7677 -11.1741  -9.0214  -8.9127  -0.1023
     1.2548   1.3212   1.6930   1.8478   2.2864   3.0106   3.5551   3.8699
     6.9449   8.8552   9.1185   9.1539  11.3581

     occupation numbers 
     1.0000   1.0000   1.0000   1.0000   1.0000   1.0000   1.0000   1.0000
     1.0000   1.0000   1.0000   1.0000   1.0000   1.0000   1.0000   1.0000
     0.0130  -0.0000  -0.0000  -0.0000  -0.0000

          k =-0.2496-0.8586 0.2031 ( 15315 PWs)   bands (ev):

   -49.8358 -26.2385 -25.7802 -25.7409 -10.9746  -9.1871  -8.9371  -0.6228
     0.8389   1.4198   1.7747   2.1692   2.8872   3.2248   3.4799   3.9637
     6.1088   8.7797   9.5694   9.5997  11.2109

     occupation numbers 
     1.0000   1.0000   1.0000   1.0000   1.0000   1.0000   1.0000   1.0000
     1.0000   1.0000   1.0000   1.0000   1.0000   1.0000   1.0000   1.0000
     1.0000  -0.0000  -0.0000  -0.0000  -0.0000

          k = 0.0000-0.6440 0.2031 ( 15309 PWs)   bands (ev):

   -49.8384 -26.2153 -25.7867 -25.7100 -11.2255  -9.3135  -8.9139  -0.1413
     0.7861   1.2385   2.4067   2.5596   2.6079   3.4586   3.9248   3.9850
     5.6424   8.8186   9.2227   9.3603  10.7874

     occupation numbers 
     1.0000   1.0000   1.0000   1.0000   1.0000   1.0000   1.0000   1.0000
     1.0000   1.0000   1.0000   1.0000   1.0000   1.0000   1.0000   1.0000
     1.0000  -0.0000  -0.0000  -0.0000  -0.0000

          k = 0.2496-0.4293 0.2031 ( 15315 PWs)   bands (ev):

   -49.8374 -26.1483 -25.7835 -25.7440 -11.7261  -9.3069  -8.8905   0.9617
     1.1569   1.5898   2.1769   2.5416   2.9607   3.4647   3.5774   4.0744
     6.0327   8.3921   8.4013   8.7609  10.7489

     occupation numbers 
     1.0000   1.0000   1.0000   1.0000   1.0000   1.0000   1.0000   1.0000
     1.0000   1.0000   1.0000   1.0000   1.0000   1.0000   1.0000   1.0000
     1.0000  -0.0000  -0.0000  -0.0000  -0.0000

          k = 0.4991-0.2147 0.2031 ( 15308 PWs)   bands (ev):

   -49.8335 -26.0766 -25.8225 -25.7724 -12.1449  -9.1751  -8.8749   1.2085
     1.8872   1.9442   2.3076   2.5177   2.9326   3.1627   3.8417   4.0820
     6.8139   7.2867   7.4535   9.0313  10.4943

     occupation numbers 
     1.0000   1.0000   1.0000   1.0000   1.0000   1.0000   1.0000   1.0000
     1.0000   1.0000   1.0000   1.0000   1.0000   1.0000   1.0000   1.0000
     0.5118  -0.0002  -0.0000  -0.0000  -0.0000

          k =-0.9983 0.0000-0.2708 ( 15362 PWs)   bands (ev):

   -49.8266 -26.0407 -25.9297 -25.7540 -12.2640  -8.9793  -8.7800   0.6632
     1.3137   1.8903   2.0427   3.3078   3.4076   3.5004   3.7823   3.9221
     6.6039   6.7451   8.4213   9.5361  10.0276

     occupation numbers 
     1.0000   1.0000   1.0000   1.0000   1.0000   1.0000   1.0000   1.0000
     1.0000   1.0000   1.0000   1.0000   1.0000   1.0000   1.0000   1.0000
     1.0347   0.8326  -0.0000  -0.0000  -0.0000

          k =-0.7487 0.2147-0.2708 ( 15336 PWs)   bands (ev):

   -49.8283 -26.0704 -25.8977 -25.7588 -12.1041  -9.0119  -8.8182   0.9973
     1.2695   1.8238   2.1575   2.6354   2.8941   3.2508   3.8075   4.0103
     7.0812   7.2216   7.8818   9.4622  10.3174

     occupation numbers 
     1.0000   1.0000   1.0000   1.0000   1.0000   1.0000   1.0000   1.0000
     1.0000   1.0000   1.0000   1.0000   1.0000   1.0000   1.0000   1.0000
    -0.0220  -0.0012  -0.0000  -0.0000  -0.0000

          k =-0.4991 0.4293-0.2708 ( 15325 PWs)   bands (ev):

   -49.8323 -26.1416 -25.8201 -25.7700 -11.6868  -9.1054  -8.8862   1.0917
     1.3093   1.6903   1.8856   1.9355   2.4025   3.0820   3.6929   4.0580
     6.8932   8.1339   8.2974   8.9872  11.0541

     occupation numbers 
     1.0000   1.0000   1.0000   1.0000   1.0000   1.0000   1.0000   1.0000
     1.0000   1.0000   1.0000   1.0000   1.0000   1.0000   1.0000   1.0000
     0.1457  -0.0000  -0.0000  -0.0000  -0.0000

          k =-0.2496 0.6440-0.2708 ( 15319 PWs)   bands (ev):

   -49.8362 -26.2124 -25.7811 -25.7418 -11.2104  -9.2149  -8.9309  -0.1305
     0.9465   1.4636   1.8440   2.2680   2.8829   3.2749   3.5005   4.0197
     6.0938   8.7704   9.2088   9.2556  11.1177

     occupation numbers 
     1.0000   1.0000   1.0000   1.0000   1.0000   1.0000   1.0000   1.0000
     1.0000   1.0000   1.0000   1.0000   1.0000   1.0000   1.0000   1.0000
     1.0000  -0.0000  -0.0000  -0.0000  -0.0000

          k =-1.9966-0.8586-0.2708 ( 15300 PWs)   bands (ev):

   -49.8379 -26.2415 -25.7857 -25.7091 -10.9886  -9.2655  -8.9446  -0.6334
     0.6862   1.3313   2.1199   2.4335   2.6325   3.4173   3.8950   3.9817
     5.6648   8.8487   9.5732   9.6979  10.9577

     occupation numbers 
     1.0000   1.0000   1.0000   1.0000   1.0000   1.0000   1.0000   1.0000
     1.0000   1.0000   1.0000   1.0000   1.0000   1.0000   1.0000   1.0000
     1.0000  -0.0000  -0.0000  -0.0000  -0.0000

          k = 0.4991 0.4293 0.1354 ( 15323 PWs)   bands (ev):

   -49.8323 -26.1416 -25.8201 -25.7700 -11.6872  -9.1249  -8.8661   1.1041
     1.3659   1.7504   1.8350   2.0657   2.1921   2.9845   3.7940   4.0335
     6.8334   8.1498   8.2840   9.1096  11.1260

     occupation numbers 
     1.0000   1.0000   1.0000   1.0000   1.0000   1.0000   1.0000   1.0000
     1.0000   1.0000   1.0000   1.0000   1.0000   1.0000   1.0000   1.0000
     0.4115  -0.0000  -0.0000  -0.0000  -0.0000

          k = 0.7487 0.6440 0.1354 ( 15338 PWs)   bands (ev):

   -49.8259 -26.1981 -25.8926 -25.7541 -11.1377  -8.9010  -8.8117  -0.0720
     0.9708   1.2298   1.6443   1.7353   2.2831   2.3587   3.5171   3.9482
     7.8795   8.8393   9.0590   9.5572  11.3616

     occupation numbers 
     1.0000   1.0000   1.0000   1.0000   1.0000   1.0000   1.0000   1.0000
     1.0000   1.0000   1.0000   1.0000   1.0000   1.0000   1.0000   1.0000
    -0.0000  -0.0000  -0.0000  -0.0000  -0.0000

          k = 0.9983 0.8586 0.1354 ( 15372 PWs)   bands (ev):

   -49.8233 -26.2208 -25.9222 -25.7475 -10.8905  -8.8985  -8.6910  -0.5608
     0.6194   0.9259   1.7731   1.8620   1.9487   2.5843   3.2254   3.9080
     8.4685   9.1840   9.3837   9.7389  11.3856

     occupation numbers 
     1.0000   1.0000   1.0000   1.0000   1.0000   1.0000   1.0000   1.0000
     1.0000   1.0000   1.0000   1.0000   1.0000   1.0000   1.0000   1.0000
    -0.0000  -0.0000  -0.0000  -0.0000  -0.0000

          k = 0.0000 0.0000 0.1354 ( 15306 PWs)   bands (ev):

   -49.8413 -26.0578 -25.7925 -25.7151 -12.3811  -9.4954  -8.8579   0.6948
     2.4900   2.7057   2.8460   3.0593   3.4455   3.8229   4.1548   4.2476
     5.5225   7.2154   7.3852   8.6978   9.4800

     occupation numbers 
     1.0000   1.0000   1.0000   1.0000   1.0000   1.0000   1.0000   1.0000
     1.0000   1.0000   1.0000   1.0000   1.0000   1.0000   1.0000   1.0000
     1.0000  -0.0015  -0.0000  -0.0000  -0.0000

          k = 0.7487 0.4293 0.2031 ( 15334 PWs)   bands (ev):

   -49.8271 -26.1349 -25.8951 -25.7564 -11.6478  -8.9526  -8.8198   1.0534
     1.2093   1.4129   1.4965   1.9876   2.4686   2.6471   3.7005   4.0551
     7.7719   8.0331   8.1721   9.5532  11.0187

     occupation numbers 
     1.0000   1.0000   1.0000   1.0000   1.0000   1.0000   1.0000   1.0000
     1.0000   1.0000   1.0000   1.0000   1.0000   1.0000   1.0000   1.0000
    -0.0000  -0.0000  -0.0000  -0.0000  -0.0000

          k = 0.9983 0.6440 0.2031 ( 15353 PWs)   bands (ev):

   -49.8238 -26.1951 -25.9233 -25.7485 -11.1223  -8.9105  -8.7044  -0.0592
     0.7826   0.8782   1.6399   1.8531   2.2245   2.6418   3.2904   3.9747
     8.4630   8.7742   9.0245   9.7200  11.2701

     occupation numbers 
     1.0000   1.0000   1.0000   1.0000   1.0000   1.0000   1.0000   1.0000
     1.0000   1.0000   1.0000   1.0000   1.0000   1.0000   1.0000   1.0000
    -0.0000  -0.0000  -0.0000  -0.0000  -0.0000

          k = 1.2479 0.8586 0.2031 ( 15362 PWs)   bands (ev):

   -49.8255 -26.2238 -25.8915 -25.7531 -10.9052  -8.9044  -8.7818  -0.5715
     0.7947   1.2121   1.5382   1.6985   2.3644   2.4113   3.4286   3.8172
     7.9197   9.1955   9.4279   9.5184  11.3789

     occupation numbers 
     1.0000   1.0000   1.0000   1.0000   1.0000   1.0000   1.0000   1.0000
     1.0000   1.0000   1.0000   1.0000   1.0000   1.0000   1.0000   1.0000
    -0.0000  -0.0000  -0.0000  -0.0000  -0.0000

          k =-0.4991-0.6440 0.2031 ( 15339 PWs)   bands (ev):

   -49.8311 -26.2052 -25.8177 -25.7676 -11.1744  -9.0438  -8.8898  -0.1016
     1.2914   1.3908   1.6101   1.9251   2.1587   2.9726   3.6272   3.8535
     6.9098   8.8926   9.1140   9.1861  11.4053

     occupation numbers 
     1.0000   1.0000   1.0000   1.0000   1.0000   1.0000   1.0000   1.0000
     1.0000   1.0000   1.0000   1.0000   1.0000   1.0000   1.0000   1.0000
     0.0921  -0.0000  -0.0000  -0.0000  -0.0000

          k = 0.0000-0.2147 0.2031 ( 15285 PWs)   bands (ev):

   -49.8408 -26.0855 -25.7915 -25.7142 -12.2026  -9.4440  -8.8923   0.8131
     2.1024   2.4296   2.5320   3.1516   3.2797   3.5628   4.0587   4.0896
     5.5497   7.6399   7.6880   8.7640   9.9067

     occupation numbers 
     1.0000   1.0000   1.0000   1.0000   1.0000   1.0000   1.0000   1.0000
     1.0000   1.0000   1.0000   1.0000   1.0000   1.0000   1.0000   1.0000
     1.0000  -0.0000  -0.0000  -0.0000  -0.0000

          k = 0.2496 0.0000 0.2031 ( 15318 PWs)   bands (ev):

   -49.8391 -26.0553 -25.7869 -25.7471 -12.3636  -9.3907  -8.8879   0.9246
     2.2548   2.5872   2.8859   3.0461   3.1760   3.6986   3.9597   4.0487
     5.9759   7.1048   7.3417   8.7026   9.8635

     occupation numbers 
     1.0000   1.0000   1.0000   1.0000   1.0000   1.0000   1.0000   1.0000
     1.0000   1.0000   1.0000   1.0000   1.0000   1.0000   1.0000   1.0000
     1.0000  -0.0157  -0.0000  -0.0000  -0.0000

          k = 0.9983 0.4293 0.2708 ( 15356 PWs)   bands (ev):

   -49.8250 -26.1321 -25.9259 -25.7508 -11.6315  -8.9393  -8.7361   0.7545
     1.2161   1.2385   1.5063   1.8609   2.6210   2.8724   3.5268   4.0529
     7.8600   8.1210   8.4506   9.7125  10.9183

     occupation numbers 
     1.0000   1.0000   1.0000   1.0000   1.0000   1.0000   1.0000   1.0000
     1.0000   1.0000   1.0000   1.0000   1.0000   1.0000   1.0000   1.0000
    -0.0000  -0.0000  -0.0000  -0.0000  -0.0000

          k = 1.2479 0.6440 0.2708 ( 15343 PWs)   bands (ev):

   -49.8259 -26.1981 -25.8926 -25.7541 -11.1376  -8.9246  -8.7864  -0.0721
     0.9505   1.1726   1.4835   1.8144   2.4239   2.4736   3.5063   3.8799
     7.9085   8.8243   9.0610   9.4971  11.2890

     occupation numbers 
     1.0000   1.0000   1.0000   1.0000   1.0000   1.0000   1.0000   1.0000
     1.0000   1.0000   1.0000   1.0000   1.0000   1.0000   1.0000   1.0000
    -0.0000  -0.0000  -0.0000  -0.0000  -0.0000

          k = 1.4974 0.8586 0.2708 ( 15340 PWs)   bands (ev):

   -49.8306 -26.2311 -25.8167 -25.7667 -10.9403  -8.9907  -8.9200  -0.5972
     1.1914   1.2052   1.7095   1.8096   2.1960   2.9507   3.5706   3.7585
     6.9400   8.9499   9.4393   9.5085  11.4802

     occupation numbers 
     1.0000   1.0000   1.0000   1.0000   1.0000   1.0000   1.0000   1.0000
     1.0000   1.0000   1.0000   1.0000   1.0000   1.0000   1.0000   1.0000
     0.0213  -0.0000  -0.0000  -0.0000  -0.0000

          k = 0.0000-0.4293 0.2708 ( 15311 PWs)   bands (ev):

   -49.8396 -26.1511 -25.7891 -25.7121 -11.7419  -9.3501  -8.9358   0.8939
     1.1419   1.5745   2.5925   2.6230   2.8996   3.3863   3.9273   4.1546
     5.6006   8.4146   8.5334   8.8364  10.5411

     occupation numbers 
     1.0000   1.0000   1.0000   1.0000   1.0000   1.0000   1.0000   1.0000
     1.0000   1.0000   1.0000   1.0000   1.0000   1.0000   1.0000   1.0000
     1.0000  -0.0000  -0.0000  -0.0000  -0.0000

          k = 0.2496-0.2147 0.2708 ( 15313 PWs)   bands (ev):

   -49.8386 -26.0829 -25.7860 -25.7462 -12.1853  -9.3361  -8.9238   1.0453
     2.1079   2.2753   2.4696   2.8372   3.1155   3.4561   3.7849   4.1148
     6.0172   7.5105   7.6480   8.7231  10.2783

     occupation numbers 
     1.0000   1.0000   1.0000   1.0000   1.0000   1.0000   1.0000   1.0000
     1.0000   1.0000   1.0000   1.0000   1.0000   1.0000   1.0000   1.0000
     1.0000  -0.0000  -0.0000  -0.0000  -0.0000

          k = 0.4991 0.0000 0.2708 ( 15311 PWs)   bands (ev):

   -49.8340 -26.0493 -25.8234 -25.7734 -12.3221  -9.1866  -8.8882   1.1662
     1.7849   2.0237   2.5637   2.9848   3.4469   3.5427   3.8485   3.8659
     6.8554   6.8874   7.1095   8.9217  10.0337

     occupation numbers 
     1.0000   1.0000   1.0000   1.0000   1.0000   1.0000   1.0000   1.0000
     1.0000   1.0000   1.0000   1.0000   1.0000   1.0000   1.0000   1.0000
     0.3028   0.1670  -0.0146  -0.0000  -0.0000

          k =-1.9966-0.6440-0.2031 ( 15310 PWs)   bands (ev):

   -49.8384 -26.2153 -25.7867 -25.7100 -11.2250  -9.2631  -8.9712  -0.1429
     0.8486   1.3885   2.2003   2.5590   2.6378   3.2636   3.8725   4.1457
     5.6486   8.8706   9.2138   9.3596  10.9060

     occupation numbers 
     1.0000   1.0000   1.0000   1.0000   1.0000   1.0000   1.0000   1.0000
     1.0000   1.0000   1.0000   1.0000   1.0000   1.0000   1.0000   1.0000
     1.0000  -0.0000  -0.0000  -0.0000  -0.0000

          k =-1.7470-0.4293-0.2031 ( 15322 PWs)   bands (ev):

   -49.8374 -26.1483 -25.7836 -25.7440 -11.7254  -9.2424  -8.9635   1.0111
     1.2510   1.7343   1.9985   2.5337   2.8801   3.3834   3.4235   4.2204
     6.0749   8.3783   8.4089   8.7779  10.8683

     occupation numbers 
     1.0000   1.0000   1.0000   1.0000   1.0000   1.0000   1.0000   1.0000
     1.0000   1.0000   1.0000   1.0000   1.0000   1.0000   1.0000   1.0000
     1.0000  -0.0000  -0.0000  -0.0000  -0.0000

          k =-1.4974-0.2147-0.2031 ( 15337 PWs)   bands (ev):

   -49.8335 -26.0766 -25.8225 -25.7724 -12.1445  -9.1523  -8.8984   1.1977
     1.6783   1.9710   2.3803   2.5394   3.0342   3.2504   3.7849   4.1062
     6.9019   7.2534   7.4606   8.8563  10.3941

     occupation numbers 
     1.0000   1.0000   1.0000   1.0000   1.0000   1.0000   1.0000   1.0000
     1.0000   1.0000   1.0000   1.0000   1.0000   1.0000   1.0000   1.0000
     0.1164  -0.0005  -0.0000  -0.0000  -0.0000

          k =-1.2479 0.0000-0.2031 ( 15336 PWs)   bands (ev):

   -49.8288 -26.0432 -25.8988 -25.7597 -12.2809  -9.0445  -8.8076   0.9334
     1.1533   2.0140   2.2749   3.1270   3.5568   3.5667   3.7908   3.8484
     6.7407   6.7712   7.8887   9.3425   9.8425

     occupation numbers 
     1.0000   1.0000   1.0000   1.0000   1.0000   1.0000   1.0000   1.0000
     1.0000   1.0000   1.0000   1.0000   1.0000   1.0000   1.0000   1.0000
     0.8488   0.7238  -0.0000  -0.0000  -0.0000

          k = 0.0000 0.8586-0.1354 ( 15306 PWs)   bands (ev):

   -49.8379 -26.2415 -25.7857 -25.7091 -10.9886  -9.2654  -8.9447  -0.6334
     0.7404   1.1819   2.3375   2.4336   2.6323   3.1846   3.8950   4.0977
     5.6604   8.8486   9.5830   9.6978  10.9157

     occupation numbers 
     1.0000   1.0000   1.0000   1.0000   1.0000   1.0000   1.0000   1.0000
     1.0000   1.0000   1.0000   1.0000   1.0000   1.0000   1.0000   1.0000
     1.0000  -0.0000  -0.0000  -0.0000  -0.0000

          k =-1.7470-0.6440-0.1354 ( 15311 PWs)   bands (ev):

   -49.8362 -26.2124 -25.7812 -25.7418 -11.2100  -9.1626  -8.9877  -0.1317
     1.0339   1.4552   1.8651   2.2193   2.9280   3.1786   3.3437   4.1496
     6.1122   8.7630   9.2264   9.2548  11.1726

     occupation numbers 
     1.0000   1.0000   1.0000   1.0000   1.0000   1.0000   1.0000   1.0000
     1.0000   1.0000   1.0000   1.0000   1.0000   1.0000   1.0000   1.0000
     1.0000  -0.0000  -0.0000  -0.0000  -0.0000

          k =-1.4974-0.4293-0.1354 ( 15338 PWs)   bands (ev):

   -49.8323 -26.1416 -25.8201 -25.7700 -11.6865  -9.0814  -8.9109   1.0833
     1.2749   1.6242   1.7943   1.9880   2.6099   3.1229   3.6018   4.0704
     6.9577   8.1423   8.2948   8.8606  10.9632

     occupation numbers 
     1.0000   1.0000   1.0000   1.0000   1.0000   1.0000   1.0000   1.0000
     1.0000   1.0000   1.0000   1.0000   1.0000   1.0000   1.0000   1.0000
    -0.0052  -0.0000  -0.0000  -0.0000  -0.0000

          k =-1.2479-0.2147-0.1354 ( 15335 PWs)   bands (ev):

   -49.8283 -26.0704 -25.8977 -25.7588 -12.1040  -9.0390  -8.7871   0.9415
     1.1184   1.7932   2.2952   2.6354   3.0115   3.3674   3.8069   3.9750
     7.0682   7.2170   7.9256   9.2869  10.1704

     occupation numbers 
     1.0000   1.0000   1.0000   1.0000   1.0000   1.0000   1.0000   1.0000
     1.0000   1.0000   1.0000   1.0000   1.0000   1.0000   1.0000   1.0000
    -0.0257  -0.0014  -0.0000  -0.0000  -0.0000

          k =-0.9983 0.0000-0.1354 ( 15319 PWs)   bands (ev):

   -49.8266 -26.0407 -25.9297 -25.7540 -12.2640  -8.9793  -8.7801   0.6811
     1.2602   1.9091   2.0702   3.3075   3.4081   3.5150   3.7531   3.9217
     6.6105   6.7384   8.4247   9.6039   9.9513

     occupation numbers 
     1.0000   1.0000   1.0000   1.0000   1.0000   1.0000   1.0000   1.0000
     1.0000   1.0000   1.0000   1.0000   1.0000   1.0000   1.0000   1.0000
     1.0353   0.8569  -0.0000  -0.0000  -0.0000

          k = 0.0000 0.6440-0.0677 ( 15294 PWs)   bands (ev):

   -49.8384 -26.2153 -25.7867 -25.7100 -11.2259  -9.3417  -8.8808  -0.1403
     0.8334   1.0138   2.5617   2.5861   2.8034   3.2231   3.9609   4.0275
     5.6332   8.7819   9.2436   9.3605  10.6649

     occupation numbers 
     1.0000   1.0000   1.0000   1.0000   1.0000   1.0000   1.0000   1.0000
     1.0000   1.0000   1.0000   1.0000   1.0000   1.0000   1.0000   1.0000
     1.0000  -0.0000  -0.0000  -0.0000  -0.0000

          k = 0.2496 0.8586-0.0677 ( 15315 PWs)   bands (ev):

   -49.8358 -26.2385 -25.7802 -25.7409 -10.9746  -9.1871  -8.9372  -0.6228
     0.9108   1.2218   1.9460   2.1457   2.9891   3.1525   3.3573   4.0371
     6.1050   8.7786   9.5829   9.5959  11.2014

     occupation numbers 
     1.0000   1.0000   1.0000   1.0000   1.0000   1.0000   1.0000   1.0000
     1.0000   1.0000   1.0000   1.0000   1.0000   1.0000   1.0000   1.0000
     1.0000  -0.0000  -0.0000  -0.0000  -0.0000

          k =-1.4974-0.6440-0.0677 ( 15328 PWs)   bands (ev):

   -49.8311 -26.2052 -25.8177 -25.7677 -11.1739  -8.9962  -8.9382  -0.1028
     1.2277   1.2945   1.7539   1.7807   2.3714   3.0331   3.5142   3.8695
     6.9710   8.8576   9.0511   9.1724  11.3092

     occupation numbers 
     1.0000   1.0000   1.0000   1.0000   1.0000   1.0000   1.0000   1.0000
     1.0000   1.0000   1.0000   1.0000   1.0000   1.0000   1.0000   1.0000
    -0.0189  -0.0000  -0.0000  -0.0000  -0.0000

          k =-1.2479-0.4293-0.0677 ( 15341 PWs)   bands (ev):

   -49.8271 -26.1349 -25.8951 -25.7564 -11.6476  -9.0007  -8.7660   0.9812
     1.1518   1.1948   1.3830   2.1650   2.7654   2.9152   3.7139   3.8450
     7.9294   7.9621   8.1784   9.2941  10.7419

     occupation numbers 
     1.0000   1.0000   1.0000   1.0000   1.0000   1.0000   1.0000   1.0000
     1.0000   1.0000   1.0000   1.0000   1.0000   1.0000   1.0000   1.0000
    -0.0000  -0.0000  -0.0000  -0.0000  -0.0000

          k =-0.9983-0.2147-0.0677 ( 15320 PWs)   bands (ev):

   -49.8262 -26.0678 -25.9286 -25.7531 -12.0873  -8.9676  -8.7673   0.7231
     1.2642   1.7152   2.0595   2.6827   2.8952   3.3624   3.8218   3.9294
     7.0279   7.1173   8.4396   9.7453  10.2294

     occupation numbers 
     1.0000   1.0000   1.0000   1.0000   1.0000   1.0000   1.0000   1.0000
     1.0000   1.0000   1.0000   1.0000   1.0000   1.0000   1.0000   1.0000
    -0.0347  -0.0128  -0.0000  -0.0000  -0.0000

          k =-0.7487 0.0000-0.0677 ( 15334 PWs)   bands (ev):

   -49.8288 -26.0432 -25.8988 -25.7597 -12.2812  -8.9651  -8.8949   1.0807
     1.5398   1.8245   2.0375   3.2052   3.3554   3.6091   3.6714   3.6847
     6.7972   6.8240   7.8110   9.7121  10.0491

     occupation numbers 
     1.0000   1.0000   1.0000   1.0000   1.0000   1.0000   1.0000   1.0000
     1.0000   1.0000   1.0000   1.0000   1.0000   1.0000   1.0000   1.0000
     0.5974   0.4596  -0.0000  -0.0000  -0.0000

          k = 0.0000 0.4293 0.0000 ( 15300 PWs)   bands (ev):

   -49.8396 -26.1511 -25.7891 -25.7121 -11.7429  -9.4283  -8.8416   0.7347
     1.1043   1.3854   2.5267   2.9050   3.3692   3.3980   3.8829   4.0443
     5.5833   8.4334   8.5356   8.7102  10.2284

     occupation numbers 
     1.0000   1.0000   1.0000   1.0000   1.0000   1.0000   1.0000   1.0000
     1.0000   1.0000   1.0000   1.0000   1.0000   1.0000   1.0000   1.0000
     1.0000  -0.0000  -0.0000  -0.0000  -0.0000

          k = 0.2496 0.6440 0.0000 ( 15337 PWs)   bands (ev):

   -49.8363 -26.2124 -25.7811 -25.7418 -11.2110  -9.2644  -8.8750  -0.1289
     1.0530   1.0664   2.0958   2.2309   3.1506   3.2040   3.5037   3.9364
     6.0618   8.7589   9.2414   9.2438  11.0176

     occupation numbers 
     1.0000   1.0000   1.0000   1.0000   1.0000   1.0000   1.0000   1.0000
     1.0000   1.0000   1.0000   1.0000   1.0000   1.0000   1.0000   1.0000
     1.0000  -0.0000  -0.0000  -0.0000  -0.0000

          k = 0.4991 0.8586 0.0000 ( 15330 PWs)   bands (ev):

   -49.8306 -26.2311 -25.8167 -25.7667 -10.9403  -8.9906  -8.9200  -0.5972
     1.1676   1.2298   1.7476   1.7822   2.1672   2.9743   3.5893   3.7331
     6.9408   8.9700   9.4010   9.5239  11.4563

     occupation numbers 
     1.0000   1.0000   1.0000   1.0000   1.0000   1.0000   1.0000   1.0000
     1.0000   1.0000   1.0000   1.0000   1.0000   1.0000   1.0000   1.0000
     0.0199  -0.0000  -0.0000  -0.0000  -0.0000

          k =-1.2479-0.6440 0.0000 ( 15333 PWs)   bands (ev):

   -49.8259 -26.1981 -25.8926 -25.7541 -11.1375  -8.9477  -8.7609  -0.0723
     0.9070   1.1764   1.2606   1.9482   2.5476   2.6119   3.5070   3.7723
     7.9460   8.8512   9.0645   9.3700  11.1300

     occupation numbers 
     1.0000   1.0000   1.0000   1.0000   1.0000   1.0000   1.0000   1.0000
     1.0000   1.0000   1.0000   1.0000   1.0000   1.0000   1.0000   1.0000
    -0.0000  -0.0000  -0.0000  -0.0000  -0.0000

          k =-0.9983-0.4293 0.0000 ( 15340 PWs)   bands (ev):

   -49.8250 -26.1321 -25.9259 -25.7508 -11.6315  -8.9393  -8.7361   0.7817
     1.2171   1.2425   1.3660   2.0270   2.6704   2.7295   3.5792   4.0358
     7.8426   8.1178   8.4636   9.7593  10.8787

     occupation numbers 
     1.0000   1.0000   1.0000   1.0000   1.0000   1.0000   1.0000   1.0000
     1.0000   1.0000   1.0000   1.0000   1.0000   1.0000   1.0000   1.0000
    -0.0000  -0.0000  -0.0000  -0.0000  -0.0000

          k =-0.7487-0.2147 0.0000 ( 15325 PWs)   bands (ev):

   -49.8283 -26.0704 -25.8977 -25.7587 -12.1044  -8.9337  -8.9019   1.1204
     1.6352   1.6840   2.0111   2.5818   2.7196   3.0972   3.8485   4.0115
     7.0964   7.2305   7.8423   9.7218  10.5003

     occupation numbers 
     1.0000   1.0000   1.0000   1.0000   1.0000   1.0000   1.0000   1.0000
     1.0000   1.0000   1.0000   1.0000   1.0000   1.0000   1.0000   1.0000
    -0.0178  -0.0010  -0.0000  -0.0000  -0.0000

          k =-0.4991 0.0000 0.0000 ( 15320 PWs)   bands (ev):

   -49.8340 -26.0493 -25.8234 -25.7733 -12.3227  -9.2136  -8.8603   1.1978
     1.8918   2.1511   2.4053   3.0965   3.2599   3.4293   3.7547   3.9230
     6.7629   6.9633   7.0847   9.1854  10.1396

     occupation numbers 
     1.0000   1.0000   1.0000   1.0000   1.0000   1.0000   1.0000   1.0000
     1.0000   1.0000   1.0000   1.0000   1.0000   1.0000   1.0000   1.0000
     0.7604  -0.0116  -0.0210  -0.0000  -0.0000

          k = 0.9983 0.8586 0.2708 ( 15352 PWs)   bands (ev):

   -49.8233 -26.2208 -25.9222 -25.7475 -10.8905  -8.8985  -8.6911  -0.5608
     0.6362   0.8946   1.8101   1.8938   1.9014   2.5954   3.1836   3.9335
     8.4701   9.1857   9.3948   9.7093  11.3668

     occupation numbers 
     1.0000   1.0000   1.0000   1.0000   1.0000   1.0000   1.0000   1.0000
     1.0000   1.0000   1.0000   1.0000   1.0000   1.0000   1.0000   1.0000
    -0.0000  -0.0000  -0.0000  -0.0000  -0.0000

          k = 0.0000 0.0000 0.2708 ( 15318 PWs)   bands (ev):

   -49.8413 -26.0578 -25.7926 -25.7151 -12.3803  -9.4298  -8.9385   0.9170
     2.5549   2.5794   2.8102   3.1744   3.4050   3.5771   4.0318   4.1656
     5.5474   7.2158   7.4567   8.8222   9.6872

     occupation numbers 
     1.0000   1.0000   1.0000   1.0000   1.0000   1.0000   1.0000   1.0000
     1.0000   1.0000   1.0000   1.0000   1.0000   1.0000   1.0000   1.0000
     1.0000  -0.0015  -0.0000  -0.0000  -0.0000

          k = 0.0000-0.2147 0.3385 ( 15317 PWs)   bands (ev):

   -49.8408 -26.0855 -25.7916 -25.7142 -12.2018  -9.3615  -8.9900   1.0717
     2.1573   2.4253   2.6032   2.7757   3.2516   3.4533   3.9909   4.0857
     5.5667   7.6395   7.7302   8.8884  10.1489

     occupation numbers 
     1.0000   1.0000   1.0000   1.0000   1.0000   1.0000   1.0000   1.0000
     1.0000   1.0000   1.0000   1.0000   1.0000   1.0000   1.0000   1.0000
     1.0000  -0.0000  -0.0000  -0.0000  -0.0000

          k = 0.2496 0.0000 0.3385 ( 15316 PWs)   bands (ev):

   -49.8391 -26.0553 -25.7870 -25.7471 -12.3629  -9.3206  -8.9691   1.1472
     2.1118   2.5777   2.8424   2.9607   3.3150   3.6517   3.9090   3.9260
     6.0383   7.0874   7.3963   8.7139   9.9437

     occupation numbers 
     1.0000   1.0000   1.0000   1.0000   1.0000   1.0000   1.0000   1.0000
     1.0000   1.0000   1.0000   1.0000   1.0000   1.0000   1.0000   1.0000
     1.0000  -0.0203  -0.0000  -0.0000  -0.0000

          k =-1.9966-0.4293-0.1354 ( 15308 PWs)   bands (ev):

   -49.8396 -26.1511 -25.7892 -25.7121 -11.7411  -9.2608  -9.0363   0.9812
     1.2733   1.6896   2.3297   2.6477   2.8926   3.1213   3.8406   4.3098
     5.6114   8.4223   8.5331   8.9242  10.7397

     occupation numbers 
     1.0000   1.0000   1.0000   1.0000   1.0000   1.0000   1.0000   1.0000
     1.0000   1.0000   1.0000   1.0000   1.0000   1.0000   1.0000   1.0000
     1.0000  -0.0000  -0.0000  -0.0000  -0.0000

          k =-1.7470-0.2147-0.1354 ( 15329 PWs)   bands (ev):

   -49.8386 -26.0829 -25.7860 -25.7462 -12.1847  -9.2558  -9.0137   1.2880
     1.9247   2.3502   2.4495   2.7758   3.0853   3.3916   3.6968   4.1386
     6.0684   7.5053   7.6685   8.7526  10.3587

     occupation numbers 
     1.0000   1.0000   1.0000   1.0000   1.0000   1.0000   1.0000   1.0000
     1.0000   1.0000   1.0000   1.0000   1.0000   1.0000   1.0000   1.0000
     1.0000  -0.0000  -0.0000  -0.0000  -0.0000

          k =-1.4974 0.0000-0.1354 ( 15325 PWs)   bands (ev):

   -49.8340 -26.0493 -25.8234 -25.7734 -12.3217  -9.1640  -8.9115   1.1793
     1.5881   2.0927   2.6129   2.9415   3.5750   3.6315   3.7941   3.8933
     6.8449   6.9364   7.1160   8.7533   9.9369

     occupation numbers 
     1.0000   1.0000   1.0000   1.0000   1.0000   1.0000   1.0000   1.0000
     1.0000   1.0000   1.0000   1.0000   1.0000   1.0000   1.0000   1.0000
     0.3539   0.0281  -0.0131  -0.0000  -0.0000

          k = 0.0000 1.0733-0.0677 ( 15294 PWs)   bands (ev):

   -49.8384 -26.2153 -25.7867 -25.7100 -11.2247  -9.2100  -9.0293  -0.1439
     1.0089   1.2560   2.3747   2.5591   2.6598   2.8991   3.8345   4.2939
     5.6487   8.9075   9.2200   9.3588  10.9448

     occupation numbers 
     1.0000   1.0000   1.0000   1.0000   1.0000   1.0000   1.0000   1.0000
     1.0000   1.0000   1.0000   1.0000   1.0000   1.0000   1.0000   1.0000
     1.0000  -0.0000  -0.0000  -0.0000  -0.0000

          k =-1.7470-0.4293-0.0677 ( 15324 PWs)   bands (ev):

   -49.8374 -26.1484 -25.7836 -25.7440 -11.7250  -9.1568  -9.0551   1.0303
     1.4391   1.6984   1.9091   2.4782   2.9699   3.2265   3.3332   4.3021
     6.1049   8.3563   8.4101   8.8184  10.9385

     occupation numbers 
     1.0000   1.0000   1.0000   1.0000   1.0000   1.0000   1.0000   1.0000
     1.0000   1.0000   1.0000   1.0000   1.0000   1.0000   1.0000   1.0000
     1.0000  -0.0000  -0.0000  -0.0000  -0.0000

          k =-1.4974-0.2147-0.0677 ( 15322 PWs)   bands (ev):

   -49.8335 -26.0766 -25.8225 -25.7724 -12.1442  -9.1332  -8.9181   1.2179
     1.5287   1.9766   2.4429   2.5415   3.1163   3.3105   3.7194   4.1287
     6.9699   7.2420   7.4574   8.7364  10.3119

     occupation numbers 
     1.0000   1.0000   1.0000   1.0000   1.0000   1.0000   1.0000   1.0000
     1.0000   1.0000   1.0000   1.0000   1.0000   1.0000   1.0000   1.0000
    -0.0180  -0.0007  -0.0000  -0.0000  -0.0000

          k =-1.2479 0.0000-0.0677 ( 15325 PWs)   bands (ev):

   -49.8288 -26.0432 -25.8988 -25.7597 -12.2808  -9.0636  -8.7853   0.8988
     1.0390   2.0153   2.3842   3.1010   3.5627   3.6456   3.8260   3.9027
     6.7074   6.7581   7.9326   9.2087   9.7287

     occupation numbers 
     1.0000   1.0000   1.0000   1.0000   1.0000   1.0000   1.0000   1.0000
     1.0000   1.0000   1.0000   1.0000   1.0000   1.0000   1.0000   1.0000
     0.9474   0.7808  -0.0000  -0.0000  -0.0000

          k = 0.0000 0.8586 0.0000 ( 15304 PWs)   bands (ev):

   -49.8379 -26.2415 -25.7857 -25.7091 -10.9886  -9.2654  -8.9447  -0.6334
     0.8424   1.0097   2.4337   2.6322   2.7291   2.7871   3.8951   4.1800
     5.6559   8.8486   9.5931   9.6977  10.8750

     occupation numbers 
     1.0000   1.0000   1.0000   1.0000   1.0000   1.0000   1.0000   1.0000
     1.0000   1.0000   1.0000   1.0000   1.0000   1.0000   1.0000   1.0000
     1.0000  -0.0000  -0.0000  -0.0000  -0.0000

          k = 0.2496 1.0733 0.0000 ( 15339 PWs)   bands (ev):

   -49.8363 -26.2124 -25.7812 -25.7418 -11.2099  -9.1257  -9.0264  -0.1322
     1.1471   1.3067   2.0029   2.1435   3.0160   3.1075   3.2356   4.2037
     6.1188   8.7569   9.2427   9.2521  11.1920

     occupation numbers 
     1.0000   1.0000   1.0000   1.0000   1.0000   1.0000   1.0000   1.0000
     1.0000   1.0000   1.0000   1.0000   1.0000   1.0000   1.0000   1.0000
     1.0000  -0.0000  -0.0000  -0.0000  -0.0000

          k =-1.4974-0.4293 0.0000 ( 15324 PWs)   bands (ev):

   -49.8323 -26.1416 -25.8201 -25.7701 -11.6863  -9.0691  -8.9234   1.0815
     1.2653   1.5909   1.7569   2.0207   2.7052   3.1185   3.5652   4.0742
     6.9857   8.1582   8.2839   8.8068  10.9206

     occupation numbers 
     1.0000   1.0000   1.0000   1.0000   1.0000   1.0000   1.0000   1.0000
     1.0000   1.0000   1.0000   1.0000   1.0000   1.0000   1.0000   1.0000
    -0.0287  -0.0000  -0.0000  -0.0000  -0.0000

          k =-1.2479-0.2147 0.0000 ( 15331 PWs)   bands (ev):

   -49.8283 -26.0704 -25.8977 -25.7588 -12.1039  -9.0484  -8.7760   0.9290
     1.0544   1.7824   2.3460   2.6341   3.0587   3.4135   3.8262   3.9412
     7.0621   7.2155   7.9491   9.2143  10.1057

     occupation numbers 
     1.0000   1.0000   1.0000   1.0000   1.0000   1.0000   1.0000   1.0000
     1.0000   1.0000   1.0000   1.0000   1.0000   1.0000   1.0000   1.0000
    -0.0274  -0.0015  -0.0000  -0.0000  -0.0000

          k =-0.9983 0.0000 0.0000 ( 15320 PWs)   bands (ev):

   -49.8266 -26.0407 -25.9297 -25.7540 -12.2640  -8.9793  -8.7801   0.7014
     1.2090   1.9208   2.1005   3.3072   3.4086   3.5346   3.7187   3.9213
     6.6179   6.7309   8.4281   9.7647   9.7821

     occupation numbers 
     1.0000   1.0000   1.0000   1.0000   1.0000   1.0000   1.0000   1.0000
     1.0000   1.0000   1.0000   1.0000   1.0000   1.0000   1.0000   1.0000
     1.0354   0.8821  -0.0000  -0.0000  -0.0000

          k = 0.0000 0.0000 0.4061 ( 15318 PWs)   bands (ev):

   -49.8413 -26.0578 -25.7926 -25.7151 -12.3796  -9.3308  -9.0524   1.2348
     2.3122   2.6332   2.7882   3.3069   3.3476   3.4004   3.8795   4.0896
     5.5561   7.2161   7.5268   8.9463   9.8679

     occupation numbers 
     1.0000   1.0000   1.0000   1.0000   1.0000   1.0000   1.0000   1.0000
     1.0000   1.0000   1.0000   1.0000   1.0000   1.0000   1.0000   1.0000
     1.0000  -0.0014  -0.0000  -0.0000  -0.0000

          k =-1.9966-0.2147-0.0677 ( 15325 PWs)   bands (ev):

   -49.8408 -26.0855 -25.7916 -25.7142 -12.2012  -9.2540  -9.1082   1.3482
     2.1534   2.4058   2.4883   2.6639   3.2218   3.3863   3.9220   4.0878
     5.5748   7.6393   7.7655   8.9762  10.3064

     occupation numbers 
     1.0000   1.0000   1.0000   1.0000   1.0000   1.0000   1.0000   1.0000
     1.0000   1.0000   1.0000   1.0000   1.0000   1.0000   1.0000   1.0000
     1.0000  -0.0000  -0.0000  -0.0000  -0.0000

          k =-1.7470 0.0000-0.0677 ( 15322 PWs)   bands (ev):

   -49.8391 -26.0553 -25.7870 -25.7471 -12.3624  -9.2390  -9.0586   1.4423
     1.8089   2.6746   2.8212   2.8629   3.4421   3.6519   3.8013   3.8410
     6.0738   7.0788   7.4308   8.7510   9.9687

     occupation numbers 
     1.0000   1.0000   1.0000   1.0000   1.0000   1.0000   1.0000   1.0000
     1.0000   1.0000   1.0000   1.0000   1.0000   1.0000   1.0000   1.0000
     1.0000  -0.0227  -0.0000  -0.0000  -0.0000

          k = 0.0000 1.2879 0.0000 ( 15306 PWs)   bands (ev):

   -49.8396 -26.1511 -25.7892 -25.7121 -11.7408  -9.1608  -9.1410   1.0011
     1.4268   1.6428   2.2656   2.6739   2.8881   2.9764   3.8033   4.3639
     5.6156   8.4297   8.5330   8.9604  10.8162

     occupation numbers 
     1.0000   1.0000   1.0000   1.0000   1.0000   1.0000   1.0000   1.0000
     1.0000   1.0000   1.0000   1.0000   1.0000   1.0000   1.0000   1.0000
     1.0000  -0.0000  -0.0000  -0.0000  -0.0000

          k =-1.7470-0.2147 0.0000 ( 15327 PWs)   bands (ev):

   -49.8386 -26.0829 -25.7860 -25.7462 -12.1844  -9.1930  -9.0806   1.5045
     1.7149   2.4003   2.4205   2.7824   3.0767   3.3557   3.6575   4.1442
     6.0883   7.5035   7.6751   8.7747  10.3810

     occupation numbers 
     1.0000   1.0000   1.0000   1.0000   1.0000   1.0000   1.0000   1.0000
     1.0000   1.0000   1.0000   1.0000   1.0000   1.0000   1.0000   1.0000
     1.0000  -0.0000  -0.0000  -0.0000  -0.0000

          k =-1.4974 0.0000 0.0000 ( 15322 PWs)   bands (ev):

   -49.8340 -26.0493 -25.8234 -25.7734 -12.3216  -9.1532  -8.9225   1.2014
     1.4983   2.1187   2.6293   2.9266   3.6742   3.6844   3.7050   3.9033
     6.8285   6.9746   7.1174   8.6857   9.8923

     occupation numbers 
     1.0000   1.0000   1.0000   1.0000   1.0000   1.0000   1.0000   1.0000
     1.0000   1.0000   1.0000   1.0000   1.0000   1.0000   1.0000   1.0000
     0.4362  -0.0218  -0.0128  -0.0000  -0.0000

          k =-1.9966-1.7173-0.5415 ( 15314 PWs)   bands (ev):

   -49.8413 -26.0578 -25.7926 -25.7151 -12.3793  -9.2447  -9.1445   1.4563
     2.0955   2.6719   2.7810   3.3163   3.3486   3.3827   3.7943   4.0603
     5.5565   7.2163   7.5555   8.9977   9.9337

     occupation numbers 
     1.0000   1.0000   1.0000   1.0000   1.0000   1.0000   1.0000   1.0000
     1.0000   1.0000   1.0000   1.0000   1.0000   1.0000   1.0000   1.0000
     1.0000  -0.0014  -0.0000  -0.0000  -0.0000

     the Fermi energy is     6.8162 ev

!    total energy              =    -534.96666035 Ry

     total all-electron energy =     -9636.856903 Ry
     estimated scf accuracy    <          5.4E-11 Ry
     smearing contrib. (-TS)   =      -0.00023028 Ry
     internal energy E=F+TS    =    -534.96643007 Ry

     The total energy is F=E-TS. E is the sum of the following terms:
     one-electron contribution =     -93.95526170 Ry
     hartree contribution      =      61.22319990 Ry
     xc contribution           =     -39.53495275 Ry
     ewald contribution        =    -135.48921389 Ry
     one-center paw contrib.   =    -327.21020163 Ry
      -> PAW hartree energy AE =      29.07910527 Ry
      -> PAW hartree energy PS =     -29.04904473 Ry
      -> PAW xc energy AE      =     -17.03610997 Ry
      -> PAW xc energy PS      =       7.41197284 Ry
      -> total E_H with PAW    =      61.25326044 Ry
      -> total E_XC with PAW   =     -49.15908989 Ry

     convergence has been achieved in  12 iterations

     Forces acting on atoms (cartesian axes, Ry/au):

     atom    1 type  1   force =     0.00000000    0.00000000    0.00000000
     atom    2 type  2   force =     0.00000000    0.00000000    0.03667386
     atom    3 type  2   force =     0.00000000    0.00000000   -0.03667386
     atom    4 type  3   force =     0.00000000    0.00000000    0.00000000
     The non-local contrib.  to forces
     atom    1 type  1   force =    -0.00000000   -0.00000000    0.00000000
     atom    2 type  2   force =     0.00000000    0.00000000    0.06310548
     atom    3 type  2   force =     0.00000000    0.00000000   -0.06310548
     atom    4 type  3   force =    -0.00000000   -0.00000000    0.00000000
     The ionic contribution  to forces
     atom    1 type  1   force =    -0.00000000   -0.00000000    0.00000000
     atom    2 type  2   force =     0.00000001    0.00000000  -10.07462875
     atom    3 type  2   force =    -0.00000001   -0.00000000   10.07462875
     atom    4 type  3   force =    -0.00000000   -0.00000000    0.00000000
     The local contribution  to forces
     atom    1 type  1   force =     0.00000000    0.00000000    0.00000000
     atom    2 type  2   force =     0.00000002   -0.00000003   10.04664657
     atom    3 type  2   force =    -0.00000002    0.00000003  -10.04664657
     atom    4 type  3   force =     0.00000000    0.00000000    0.00000000
     The core correction contribution to forces
     atom    1 type  1   force =     0.00000000    0.00000000    0.00000000
     atom    2 type  2   force =    -0.00000000    0.00000000    0.00154901
     atom    3 type  2   force =     0.00000000   -0.00000000   -0.00154901
     atom    4 type  3   force =     0.00000000    0.00000000    0.00000000
     The Hubbard contrib.    to forces
     atom    1 type  1   force =     0.00000000    0.00000000    0.00000000
     atom    2 type  2   force =     0.00000000    0.00000000    0.00000000
     atom    3 type  2   force =     0.00000000    0.00000000    0.00000000
     atom    4 type  3   force =     0.00000000    0.00000000    0.00000000
     The SCF correction term to forces
     atom    1 type  1   force =    -0.00000000   -0.00000000   -0.00000000
     atom    2 type  2   force =    -0.00000000   -0.00000000    0.00000156
     atom    3 type  2   force =     0.00000000    0.00000000   -0.00000156
     atom    4 type  3   force =     0.00000000   -0.00000000   -0.00000000

     Total force =     0.051865     Total SCF correction =     0.000002


     Computing stress (Cartesian axis) and pressure

          total   stress  (Ry/bohr**3)                   (kbar)     P=      -39.16
  -0.00026269  -0.00000000   0.00000000          -38.64       -0.00        0.00
   0.00000000  -0.00026238   0.00000000            0.00      -38.60        0.00
   0.00000000   0.00000000  -0.00027360            0.00        0.00      -40.25

     kinetic stress (kbar)  14746.67     -0.00     -0.00
                               -0.00  14844.02     -0.00
                               -0.00     -0.00  14760.29

     local   stress (kbar) -18882.14     -0.00      0.00
                               -0.00 -24245.56      0.00
                                0.00      0.00   4120.31

     nonloc. stress (kbar)   8011.19      0.00      0.00
                                0.00   7931.07      0.00
                                0.00      0.00   8005.73

     hartree stress (kbar)   8371.14     -0.00     -0.00
                               -0.00  10123.83     -0.00
                               -0.00     -0.00  -2058.16

     exc-cor stress (kbar)  -1131.06      0.00     -0.00
                                0.00  -1121.19     -0.00
                               -0.00     -0.00  -1130.55

     corecor stress (kbar)  -2029.31     -0.00      0.00
                                0.00  -2029.34      0.00
                                0.00      0.00  -2029.17

     ewald   stress (kbar)  -9125.13      0.00     -0.00
                                0.00  -5541.44     -0.00
                               -0.00     -0.00 -21708.70

     hubbard stress (kbar)      0.00      0.00      0.00
                                0.00      0.00      0.00
                                0.00      0.00      0.00

     DFT-D   stress (kbar)      0.00      0.00      0.00
                                0.00      0.00      0.00
                                0.00      0.00      0.00

     XDM     stress (kbar)      0.00      0.00      0.00
                                0.00      0.00      0.00
                                0.00      0.00      0.00

     dft-nl  stress (kbar)      0.00      0.00      0.00
                                0.00      0.00      0.00
                                0.00      0.00      0.00

     TS-vdW  stress (kbar)      0.00      0.00      0.00
                                0.00      0.00      0.00
                                0.00      0.00      0.00



     Writing output data file /zfs_data/gutierre/Scratch/Cl2NbO/convergence/cutoff/8x8x8/140/tmp/Cl2NbO.save/
 
     init_run     :      3.71s CPU      3.87s WALL (       1 calls)
     electrons    :     69.37s CPU     71.04s WALL (       1 calls)
     forces       :      1.02s CPU      1.02s WALL (       1 calls)
     stress       :      2.30s CPU      2.31s WALL (       1 calls)

     Called by init_run:
     wfcinit      :      2.12s CPU      2.20s WALL (       1 calls)
     wfcinit:atom :      0.02s CPU      0.02s WALL (      95 calls)
     wfcinit:wfcr :      2.04s CPU      2.11s WALL (      95 calls)
     potinit      :      0.48s CPU      0.51s WALL (       1 calls)
     hinit0       :      0.59s CPU      0.61s WALL (       1 calls)

     Called by electrons:
     c_bands      :     52.67s CPU     53.98s WALL (      12 calls)
     sum_band     :     12.50s CPU     12.78s WALL (      12 calls)
     v_of_rho     :      1.94s CPU      1.99s WALL (      13 calls)
     v_h          :      0.18s CPU      0.18s WALL (      13 calls)
     v_xc         :      2.04s CPU      2.09s WALL (      15 calls)
     newd         :      1.32s CPU      1.34s WALL (      13 calls)
     PAW_pot      :      0.67s CPU      0.69s WALL (      13 calls)
     mix_rho      :      0.31s CPU      0.32s WALL (      12 calls)

     Called by c_bands:
     init_us_2    :      0.84s CPU      0.88s WALL (    2565 calls)
     cegterg      :     51.05s CPU     52.28s WALL (    1140 calls)

     Called by sum_band:
     sum_band:wei :      0.04s CPU      0.04s WALL (      12 calls)
     sum_band:loo :     10.95s CPU     11.17s WALL (      12 calls)
     sum_band:buf :      0.14s CPU      0.14s WALL (    1140 calls)
     sum_band:ini :      0.40s CPU      0.41s WALL (    1140 calls)
     sum_band:cal :      0.46s CPU      0.47s WALL (    1140 calls)
     sum_band:bec :      0.03s CPU      0.04s WALL (    1140 calls)
     addusdens    :      1.28s CPU      1.32s WALL (      12 calls)
     addusd:skk   :      0.01s CPU      0.01s WALL (      36 calls)
     addusd:dgemm :      0.39s CPU      0.43s WALL (      36 calls)
     addusd:qvan2 :      0.82s CPU      0.82s WALL (      36 calls)

     Called by *egterg:
     cdiaghg      :      2.44s CPU      2.60s WALL (    4142 calls)
     cegterg:over :      1.14s CPU      1.16s WALL (    3002 calls)
     cegterg:upda :      0.34s CPU      0.35s WALL (    3002 calls)
     cegterg:last :      0.56s CPU      0.56s WALL (    2247 calls)
     h_psi        :     47.10s CPU     48.19s WALL (    4237 calls)
     s_psi        :      0.38s CPU      0.39s WALL (    4237 calls)
     g_psi        :      0.07s CPU      0.07s WALL (    3002 calls)

     Called by h_psi:
     h_psi:calbec :      1.32s CPU      1.35s WALL (    4237 calls)
     vloc_psi     :     44.98s CPU     46.03s WALL (    4237 calls)
     add_vuspsi   :      0.60s CPU      0.61s WALL (    4237 calls)

     General routines
     calbec       :      1.84s CPU      1.88s WALL (    5852 calls)
     fft          :      1.91s CPU      1.94s WALL (     192 calls)
     ffts         :      0.02s CPU      0.02s WALL (      25 calls)
     fftw         :     48.45s CPU     49.62s WALL (  145568 calls)
     interpolate  :      0.16s CPU      0.16s WALL (      13 calls)
 
     Parallel routines
     fft_scatt_xy :      7.87s CPU      8.00s WALL (  145785 calls)
     fft_scatt_yz :     22.18s CPU     22.74s WALL (  145785 calls)

     PAW routines
     PAW_pot      :      0.67s CPU      0.69s WALL (      13 calls)
     PAW_symme    :      0.02s CPU      0.02s WALL (      25 calls)
 
     PWSCF        :   1m17.31s CPU   1m20.31s WALL

 
   This run was terminated on:  16:22:28  18May2022            

=------------------------------------------------------------------------------=
   JOB DONE.
=------------------------------------------------------------------------------=
