
     Program PWSCF v.6.7MaX starts on 18May2022 at 17:50:32 

     This program is part of the open-source Quantum ESPRESSO suite
     for quantum simulation of materials; please cite
         "P. Giannozzi et al., J. Phys.:Condens. Matter 21 395502 (2009);
         "P. Giannozzi et al., J. Phys.:Condens. Matter 29 465901 (2017);
          URL http://www.quantum-espresso.org", 
     in publications or presentations arising from this work. More details at
     http://www.quantum-espresso.org/quote

     Parallel version (MPI), running on    48 processors

     MPI processes distributed on     1 nodes
     R & G space division:  proc/nbgrp/npool/nimage =      48
     Waiting for input...
     Reading input from standard input

     Current dimensions of program PWSCF are:
     Max number of different atomic species (ntypx) = 10
     Max number of k-points (npk) =  40000
     Max angular momentum in pseudopotentials (lmaxx) =  3
     file O.pbe-nl-kjpaw_psl.1.0.0.UPF: wavefunction(s)  2S 2P renormalized
     file Cl.pbe-nl-kjpaw_psl.1.0.0.UPF: wavefunction(s)  3S renormalized
     file Nb.pbe-spn-kjpaw_psl.1.0.0.UPF: wavefunction(s)  4S 4P 4D renormalized

     Subspace diagonalization in iterative solution of the eigenvalue problem:
     a serial algorithm will be used

     Message from routine setup:
     using ibrav=0 with symmetry is DISCOURAGED, use correct ibrav instead
 
     Parallelization info
     --------------------
     sticks:   dense  smooth     PW     G-vecs:    dense   smooth      PW
     Min         226      90     28                 8011     2025     357
     Max         227      91     29                 8013     2026     359
     Sum       10861    4353   1363               384583    97215   17183
 


     bravais-lattice index     =            0
     lattice parameter (alat)  =      12.6717  a.u.
     unit-cell volume          =     547.9313 (a.u.)^3
     number of atoms/cell      =            4
     number of atomic types    =            3
     number of electrons       =        33.00
     number of Kohn-Sham states=           21
     kinetic-energy cutoff     =     120.0000  Ry
     charge density cutoff     =    1200.0000  Ry
     scf convergence threshold =      1.0E-10
     mixing beta               =       0.7000
     number of iterations used =            8  plain     mixing
     Exchange-correlation= SLA  PW   PBX  PBC
                           (   1   4   3   4   0   0   0)

     celldm(1)=  12.671676  celldm(2)=   0.000000  celldm(3)=   0.000000
     celldm(4)=   0.000000  celldm(5)=   0.000000  celldm(6)=   0.000000

     crystal axes: (cart. coord. in units of alat)
               a(1) = (  -0.250426   0.291161   0.923316 )  
               a(2) = (   0.250426  -0.291161   0.923316 )  
               a(3) = (   0.250426   0.291161  -0.923316 )  

     reciprocal axes: (cart. coord. in units 2 pi/alat)
               b(1) = (  0.000000  1.717261  0.541527 )  
               b(2) = (  1.996594  0.000000  0.541527 )  
               b(3) = (  1.996594  1.717261  0.000000 )  


     PseudoPot. # 1 for O  read from file:
     /zfs_data/gutierre/Scratch/Cl2NbO/smearing/8x8x8/0.005/pseudo/O.pbe-nl-kjpaw_psl.1.0.0.UPF
     MD5 check sum: df3ddea38124b4e5de5e1084591730e4
     Pseudo is Projector augmented-wave + core cor, Zval =  6.0
     Generated using 'atomic' code by A. Dal Corso  v.6.7MaX
     Shape of augmentation charge: PSQ
     Using radial grid of 1095 points,  4 beta functions with: 
                l(1) =   0
                l(2) =   0
                l(3) =   1
                l(4) =   1
     Q(r) pseudized with 0 coefficients 


     PseudoPot. # 2 for Cl read from file:
     /zfs_data/gutierre/Scratch/Cl2NbO/smearing/8x8x8/0.005/pseudo/Cl.pbe-nl-kjpaw_psl.1.0.0.UPF
     MD5 check sum: 8cf6bde52c08f6236e0f72a8870677af
     Pseudo is Projector augmented-wave + core cor, Zval =  7.0
     Generated using 'atomic' code by A. Dal Corso  v.6.7MaX
     Shape of augmentation charge: PSQ
     Using radial grid of 1157 points,  4 beta functions with: 
                l(1) =   0
                l(2) =   0
                l(3) =   1
                l(4) =   1
     Q(r) pseudized with 0 coefficients 


     PseudoPot. # 3 for Nb read from file:
     /zfs_data/gutierre/Scratch/Cl2NbO/smearing/8x8x8/0.005/pseudo/Nb.pbe-spn-kjpaw_psl.1.0.0.UPF
     MD5 check sum: 1ec1a3aa7bf3cbf7f7e0d720422bce7a
     Pseudo is Projector augmented-wave + core cor, Zval = 13.0
     Generated using 'atomic' code by A. Dal Corso  v.6.7MaX
     Shape of augmentation charge: PSQ
     Using radial grid of 1227 points,  6 beta functions with: 
                l(1) =   0
                l(2) =   0
                l(3) =   1
                l(4) =   1
                l(5) =   2
                l(6) =   2
     Q(r) pseudized with 0 coefficients 


     atomic species   valence    mass     pseudopotential
        O              6.00    15.99940     O ( 1.00)
        Cl             7.00    35.45150     Cl( 1.00)
        Nb            13.00    92.90637     Nb( 1.00)

      8 Sym. Ops., with inversion, found


                                    s                        frac. trans.

      isym =  1     identity                                     

 cryst.   s( 1) = (     1          0          0      )
                  (     0          1          0      )
                  (     0          0          1      )

 cart.    s( 1) = (  1.0000000  0.0000000  0.0000000 )
                  (  0.0000000  1.0000000  0.0000000 )
                  (  0.0000000  0.0000000  1.0000000 )


      isym =  2     180 deg rotation - cart. axis [0,0,1]        

 cryst.   s( 2) = (     0          1          0      )
                  (     1          0          0      )
                  (    -1         -1         -1      )

 cart.    s( 2) = ( -1.0000000  0.0000000  0.0000000 )
                  (  0.0000000 -1.0000000  0.0000000 )
                  (  0.0000000  0.0000000  1.0000000 )


      isym =  3     180 deg rotation - cart. axis [0,1,0]        

 cryst.   s( 3) = (     0          0          1      )
                  (    -1         -1         -1      )
                  (     1          0          0      )

 cart.    s( 3) = ( -1.0000000  0.0000000  0.0000000 )
                  (  0.0000000  1.0000000  0.0000000 )
                  (  0.0000000  0.0000000 -1.0000000 )


      isym =  4     180 deg rotation - cart. axis [1,0,0]        

 cryst.   s( 4) = (    -1         -1         -1      )
                  (     0          0          1      )
                  (     0          1          0      )

 cart.    s( 4) = (  1.0000000  0.0000000  0.0000000 )
                  (  0.0000000 -1.0000000  0.0000000 )
                  (  0.0000000  0.0000000 -1.0000000 )


      isym =  5     inversion                                    

 cryst.   s( 5) = (    -1          0          0      )
                  (     0         -1          0      )
                  (     0          0         -1      )

 cart.    s( 5) = ( -1.0000000  0.0000000  0.0000000 )
                  (  0.0000000 -1.0000000  0.0000000 )
                  (  0.0000000  0.0000000 -1.0000000 )


      isym =  6     inv. 180 deg rotation - cart. axis [0,0,1]   

 cryst.   s( 6) = (     0         -1          0      )
                  (    -1          0          0      )
                  (     1          1          1      )

 cart.    s( 6) = (  1.0000000  0.0000000  0.0000000 )
                  (  0.0000000  1.0000000  0.0000000 )
                  (  0.0000000  0.0000000 -1.0000000 )


      isym =  7     inv. 180 deg rotation - cart. axis [0,1,0]   

 cryst.   s( 7) = (     0          0         -1      )
                  (     1          1          1      )
                  (    -1          0          0      )

 cart.    s( 7) = (  1.0000000  0.0000000  0.0000000 )
                  (  0.0000000 -1.0000000  0.0000000 )
                  (  0.0000000  0.0000000  1.0000000 )


      isym =  8     inv. 180 deg rotation - cart. axis [1,0,0]   

 cryst.   s( 8) = (     1          1          1      )
                  (     0          0         -1      )
                  (     0         -1          0      )

 cart.    s( 8) = ( -1.0000000  0.0000000  0.0000000 )
                  (  0.0000000  1.0000000  0.0000000 )
                  (  0.0000000  0.0000000  1.0000000 )


   Cartesian axes

     site n.     atom                  positions (alat units)
         1           O   tau(   1) = (   0.0000000   0.2911613   0.0000000  )
         2           Cl  tau(   2) = (  -0.0000000   0.2911613   0.6365338  )
         3           Cl  tau(   3) = (   0.2504264  -0.0000000   0.2867819  )
         4           Nb  tau(   4) = (   0.0000000   0.0000000   0.0000000  )

   Crystallographic axes

     site n.     atom                  positions (cryst. coord.)
         1           O   tau(   1) = (  0.5000000  0.0000000  0.5000000  )
         2           Cl  tau(   2) = (  0.8447000  0.3447000  0.5000000  )
         3           Cl  tau(   3) = (  0.1553000  0.6553000  0.5000000  )
         4           Nb  tau(   4) = (  0.0000000  0.0000000  0.0000000  )

     number of k points=    95  Methfessel-Paxton smearing, width (Ry)=  0.0050
                       cart. coord. in units 2pi/alat
        k(    1) = (   0.0000000   0.0000000   0.0000000), wk =   0.0039062
        k(    2) = (   0.2495743   0.2146577   0.0000000), wk =   0.0156250
        k(    3) = (   0.4991486   0.4293153   0.0000000), wk =   0.0156250
        k(    4) = (   0.7487229   0.6439730   0.0000000), wk =   0.0156250
        k(    5) = (  -0.9982971  -0.8586307   0.0000000), wk =   0.0078125
        k(    6) = (   0.2495743   0.0000000   0.0676908), wk =   0.0156250
        k(    7) = (   0.4991486   0.2146577   0.0676908), wk =   0.0312500
        k(    8) = (   0.7487229   0.4293153   0.0676908), wk =   0.0312500
        k(    9) = (   0.9982971   0.6439730   0.0676908), wk =   0.0312500
        k(   10) = (  -0.7487229  -0.8586307   0.0676908), wk =   0.0312500
        k(   11) = (  -0.4991486  -0.6439730   0.0676908), wk =   0.0312500
        k(   12) = (  -0.2495743  -0.4293153   0.0676908), wk =   0.0312500
        k(   13) = (   0.0000000  -0.2146577   0.0676908), wk =   0.0156250
        k(   14) = (   0.4991486   0.0000000   0.1353817), wk =   0.0156250
        k(   15) = (   0.7487229   0.2146577   0.1353817), wk =   0.0312500
        k(   16) = (   0.9982971   0.4293153   0.1353817), wk =   0.0312500
        k(   17) = (   1.2478714   0.6439730   0.1353817), wk =   0.0312500
        k(   18) = (  -0.4991486  -0.8586307   0.1353817), wk =   0.0312500
        k(   19) = (  -0.2495743  -0.6439730   0.1353817), wk =   0.0312500
        k(   20) = (   0.0000000  -0.4293153   0.1353817), wk =   0.0156250
        k(   21) = (   0.2495743  -0.2146577   0.1353817), wk =   0.0312500
        k(   22) = (   0.7487229   0.0000000   0.2030725), wk =   0.0156250
        k(   23) = (   0.9982971   0.2146577   0.2030725), wk =   0.0312500
        k(   24) = (   1.2478714   0.4293153   0.2030725), wk =   0.0312500
        k(   25) = (   1.4974457   0.6439730   0.2030725), wk =   0.0312500
        k(   26) = (  -0.2495743  -0.8586307   0.2030725), wk =   0.0312500
        k(   27) = (   0.0000000  -0.6439730   0.2030725), wk =   0.0156250
        k(   28) = (   0.2495743  -0.4293153   0.2030725), wk =   0.0312500
        k(   29) = (   0.4991486  -0.2146577   0.2030725), wk =   0.0312500
        k(   30) = (  -0.9982971   0.0000000  -0.2707633), wk =   0.0078125
        k(   31) = (  -0.7487229   0.2146577  -0.2707633), wk =   0.0312500
        k(   32) = (  -0.4991486   0.4293153  -0.2707633), wk =   0.0312500
        k(   33) = (  -0.2495743   0.6439730  -0.2707633), wk =   0.0312500
        k(   34) = (  -1.9965943  -0.8586307  -0.2707633), wk =   0.0078125
        k(   35) = (   0.4991486   0.4293153   0.1353817), wk =   0.0312500
        k(   36) = (   0.7487229   0.6439730   0.1353817), wk =   0.0312500
        k(   37) = (   0.9982971   0.8586307   0.1353817), wk =   0.0156250
        k(   38) = (   0.0000000   0.0000000   0.1353817), wk =   0.0078125
        k(   39) = (   0.7487229   0.4293153   0.2030725), wk =   0.0312500
        k(   40) = (   0.9982971   0.6439730   0.2030725), wk =   0.0312500
        k(   41) = (   1.2478714   0.8586307   0.2030725), wk =   0.0312500
        k(   42) = (  -0.4991486  -0.6439730   0.2030725), wk =   0.0312500
        k(   43) = (   0.0000000  -0.2146577   0.2030725), wk =   0.0156250
        k(   44) = (   0.2495743   0.0000000   0.2030725), wk =   0.0156250
        k(   45) = (   0.9982971   0.4293153   0.2707633), wk =   0.0156250
        k(   46) = (   1.2478714   0.6439730   0.2707633), wk =   0.0312500
        k(   47) = (   1.4974457   0.8586307   0.2707633), wk =   0.0156250
        k(   48) = (   0.0000000  -0.4293153   0.2707633), wk =   0.0156250
        k(   49) = (   0.2495743  -0.2146577   0.2707633), wk =   0.0312500
        k(   50) = (   0.4991486   0.0000000   0.2707633), wk =   0.0156250
        k(   51) = (  -1.9965943  -0.6439730  -0.2030725), wk =   0.0156250
        k(   52) = (  -1.7470200  -0.4293153  -0.2030725), wk =   0.0312500
        k(   53) = (  -1.4974457  -0.2146577  -0.2030725), wk =   0.0312500
        k(   54) = (  -1.2478714   0.0000000  -0.2030725), wk =   0.0156250
        k(   55) = (   0.0000000   0.8586307  -0.1353817), wk =   0.0156250
        k(   56) = (  -1.7470200  -0.6439730  -0.1353817), wk =   0.0312500
        k(   57) = (  -1.4974457  -0.4293153  -0.1353817), wk =   0.0312500
        k(   58) = (  -1.2478714  -0.2146577  -0.1353817), wk =   0.0312500
        k(   59) = (  -0.9982971   0.0000000  -0.1353817), wk =   0.0156250
        k(   60) = (   0.0000000   0.6439730  -0.0676908), wk =   0.0156250
        k(   61) = (   0.2495743   0.8586307  -0.0676908), wk =   0.0312500
        k(   62) = (  -1.4974457  -0.6439730  -0.0676908), wk =   0.0312500
        k(   63) = (  -1.2478714  -0.4293153  -0.0676908), wk =   0.0312500
        k(   64) = (  -0.9982971  -0.2146577  -0.0676908), wk =   0.0312500
        k(   65) = (  -0.7487229   0.0000000  -0.0676908), wk =   0.0156250
        k(   66) = (   0.0000000   0.4293153   0.0000000), wk =   0.0078125
        k(   67) = (   0.2495743   0.6439730   0.0000000), wk =   0.0156250
        k(   68) = (   0.4991486   0.8586307   0.0000000), wk =   0.0156250
        k(   69) = (  -1.2478714  -0.6439730   0.0000000), wk =   0.0156250
        k(   70) = (  -0.9982971  -0.4293153   0.0000000), wk =   0.0156250
        k(   71) = (  -0.7487229  -0.2146577   0.0000000), wk =   0.0156250
        k(   72) = (  -0.4991486   0.0000000   0.0000000), wk =   0.0078125
        k(   73) = (   0.9982971   0.8586307   0.2707633), wk =   0.0078125
        k(   74) = (   0.0000000   0.0000000   0.2707633), wk =   0.0078125
        k(   75) = (   0.0000000  -0.2146577   0.3384542), wk =   0.0156250
        k(   76) = (   0.2495743   0.0000000   0.3384542), wk =   0.0156250
        k(   77) = (  -1.9965943  -0.4293153  -0.1353817), wk =   0.0156250
        k(   78) = (  -1.7470200  -0.2146577  -0.1353817), wk =   0.0312500
        k(   79) = (  -1.4974457   0.0000000  -0.1353817), wk =   0.0156250
        k(   80) = (   0.0000000   1.0732883  -0.0676908), wk =   0.0156250
        k(   81) = (  -1.7470200  -0.4293153  -0.0676908), wk =   0.0312500
        k(   82) = (  -1.4974457  -0.2146577  -0.0676908), wk =   0.0312500
        k(   83) = (  -1.2478714   0.0000000  -0.0676908), wk =   0.0156250
        k(   84) = (   0.0000000   0.8586307   0.0000000), wk =   0.0078125
        k(   85) = (   0.2495743   1.0732883   0.0000000), wk =   0.0156250
        k(   86) = (  -1.4974457  -0.4293153   0.0000000), wk =   0.0156250
        k(   87) = (  -1.2478714  -0.2146577   0.0000000), wk =   0.0156250
        k(   88) = (  -0.9982971   0.0000000   0.0000000), wk =   0.0078125
        k(   89) = (   0.0000000   0.0000000   0.4061450), wk =   0.0078125
        k(   90) = (  -1.9965943  -0.2146577  -0.0676908), wk =   0.0156250
        k(   91) = (  -1.7470200   0.0000000  -0.0676908), wk =   0.0156250
        k(   92) = (   0.0000000   1.2879460   0.0000000), wk =   0.0078125
        k(   93) = (  -1.7470200  -0.2146577   0.0000000), wk =   0.0156250
        k(   94) = (  -1.4974457   0.0000000   0.0000000), wk =   0.0078125
        k(   95) = (  -1.9965943  -1.7172613  -0.5415266), wk =   0.0039062

                       cryst. coord.
        k(    1) = (   0.0000000   0.0000000   0.0000000), wk =   0.0039062
        k(    2) = (   0.0000000   0.0000000   0.1250000), wk =   0.0156250
        k(    3) = (   0.0000000   0.0000000   0.2500000), wk =   0.0156250
        k(    4) = (  -0.0000000   0.0000000   0.3750000), wk =   0.0156250
        k(    5) = (   0.0000000   0.0000000  -0.5000000), wk =   0.0078125
        k(    6) = (   0.0000000   0.1250000   0.0000000), wk =   0.0156250
        k(    7) = (   0.0000000   0.1250000   0.1250000), wk =   0.0312500
        k(    8) = (   0.0000000   0.1250000   0.2500000), wk =   0.0312500
        k(    9) = (  -0.0000000   0.1250000   0.3750000), wk =   0.0312500
        k(   10) = (   0.0000000   0.1250000  -0.5000000), wk =   0.0312500
        k(   11) = (   0.0000000   0.1250000  -0.3750000), wk =   0.0312500
        k(   12) = (   0.0000000   0.1250000  -0.2500000), wk =   0.0312500
        k(   13) = (   0.0000000   0.1250000  -0.1250000), wk =   0.0156250
        k(   14) = (   0.0000000   0.2500000   0.0000000), wk =   0.0156250
        k(   15) = (   0.0000000   0.2500000   0.1250000), wk =   0.0312500
        k(   16) = (   0.0000000   0.2500000   0.2500000), wk =   0.0312500
        k(   17) = (  -0.0000000   0.2500000   0.3750000), wk =   0.0312500
        k(   18) = (   0.0000000   0.2500000  -0.5000000), wk =   0.0312500
        k(   19) = (   0.0000000   0.2500000  -0.3750000), wk =   0.0312500
        k(   20) = (   0.0000000   0.2500000  -0.2500000), wk =   0.0156250
        k(   21) = (   0.0000000   0.2500000  -0.1250000), wk =   0.0312500
        k(   22) = (   0.0000000   0.3750000   0.0000000), wk =   0.0156250
        k(   23) = (   0.0000000   0.3750000   0.1250000), wk =   0.0312500
        k(   24) = (  -0.0000000   0.3750000   0.2500000), wk =   0.0312500
        k(   25) = (  -0.0000000   0.3750000   0.3750000), wk =   0.0312500
        k(   26) = (   0.0000000   0.3750000  -0.5000000), wk =   0.0312500
        k(   27) = (   0.0000000   0.3750000  -0.3750000), wk =   0.0156250
        k(   28) = (   0.0000000   0.3750000  -0.2500000), wk =   0.0312500
        k(   29) = (   0.0000000   0.3750000  -0.1250000), wk =   0.0312500
        k(   30) = (   0.0000000  -0.5000000   0.0000000), wk =   0.0078125
        k(   31) = (   0.0000000  -0.5000000   0.1250000), wk =   0.0312500
        k(   32) = (   0.0000000  -0.5000000   0.2500000), wk =   0.0312500
        k(   33) = (   0.0000000  -0.5000000   0.3750000), wk =   0.0312500
        k(   34) = (   0.0000000  -0.5000000  -0.5000000), wk =   0.0078125
        k(   35) = (   0.1250000   0.1250000   0.1250000), wk =   0.0312500
        k(   36) = (   0.1250000   0.1250000   0.2500000), wk =   0.0312500
        k(   37) = (   0.1250000   0.1250000   0.3750000), wk =   0.0156250
        k(   38) = (   0.1250000   0.1250000  -0.1250000), wk =   0.0078125
        k(   39) = (   0.1250000   0.2500000   0.1250000), wk =   0.0312500
        k(   40) = (   0.1250000   0.2500000   0.2500000), wk =   0.0312500
        k(   41) = (   0.1250000   0.2500000   0.3750000), wk =   0.0312500
        k(   42) = (   0.1250000   0.2500000  -0.5000000), wk =   0.0312500
        k(   43) = (   0.1250000   0.2500000  -0.2500000), wk =   0.0156250
        k(   44) = (   0.1250000   0.2500000  -0.1250000), wk =   0.0156250
        k(   45) = (   0.1250000   0.3750000   0.1250000), wk =   0.0156250
        k(   46) = (   0.1250000   0.3750000   0.2500000), wk =   0.0312500
        k(   47) = (   0.1250000   0.3750000   0.3750000), wk =   0.0156250
        k(   48) = (   0.1250000   0.3750000  -0.3750000), wk =   0.0156250
        k(   49) = (   0.1250000   0.3750000  -0.2500000), wk =   0.0312500
        k(   50) = (   0.1250000   0.3750000  -0.1250000), wk =   0.0156250
        k(   51) = (   0.1250000  -0.5000000  -0.5000000), wk =   0.0156250
        k(   52) = (   0.1250000  -0.5000000  -0.3750000), wk =   0.0312500
        k(   53) = (   0.1250000  -0.5000000  -0.2500000), wk =   0.0312500
        k(   54) = (   0.1250000  -0.5000000  -0.1250000), wk =   0.0156250
        k(   55) = (   0.1250000  -0.3750000   0.3750000), wk =   0.0156250
        k(   56) = (   0.1250000  -0.3750000  -0.5000000), wk =   0.0312500
        k(   57) = (   0.1250000  -0.3750000  -0.3750000), wk =   0.0312500
        k(   58) = (   0.1250000  -0.3750000  -0.2500000), wk =   0.0312500
        k(   59) = (   0.1250000  -0.3750000  -0.1250000), wk =   0.0156250
        k(   60) = (   0.1250000  -0.2500000   0.2500000), wk =   0.0156250
        k(   61) = (   0.1250000  -0.2500000   0.3750000), wk =   0.0312500
        k(   62) = (   0.1250000  -0.2500000  -0.5000000), wk =   0.0312500
        k(   63) = (   0.1250000  -0.2500000  -0.3750000), wk =   0.0312500
        k(   64) = (   0.1250000  -0.2500000  -0.2500000), wk =   0.0312500
        k(   65) = (   0.1250000  -0.2500000  -0.1250000), wk =   0.0156250
        k(   66) = (   0.1250000  -0.1250000   0.1250000), wk =   0.0078125
        k(   67) = (   0.1250000  -0.1250000   0.2500000), wk =   0.0156250
        k(   68) = (   0.1250000  -0.1250000   0.3750000), wk =   0.0156250
        k(   69) = (   0.1250000  -0.1250000  -0.5000000), wk =   0.0156250
        k(   70) = (   0.1250000  -0.1250000  -0.3750000), wk =   0.0156250
        k(   71) = (   0.1250000  -0.1250000  -0.2500000), wk =   0.0156250
        k(   72) = (   0.1250000  -0.1250000  -0.1250000), wk =   0.0078125
        k(   73) = (   0.2500000   0.2500000   0.2500000), wk =   0.0078125
        k(   74) = (   0.2500000   0.2500000  -0.2500000), wk =   0.0078125
        k(   75) = (   0.2500000   0.3750000  -0.3750000), wk =   0.0156250
        k(   76) = (   0.2500000   0.3750000  -0.2500000), wk =   0.0156250
        k(   77) = (   0.2500000  -0.5000000  -0.5000000), wk =   0.0156250
        k(   78) = (   0.2500000  -0.5000000  -0.3750000), wk =   0.0312500
        k(   79) = (   0.2500000  -0.5000000  -0.2500000), wk =   0.0156250
        k(   80) = (   0.2500000  -0.3750000   0.3750000), wk =   0.0156250
        k(   81) = (   0.2500000  -0.3750000  -0.5000000), wk =   0.0312500
        k(   82) = (   0.2500000  -0.3750000  -0.3750000), wk =   0.0312500
        k(   83) = (   0.2500000  -0.3750000  -0.2500000), wk =   0.0156250
        k(   84) = (   0.2500000  -0.2500000   0.2500000), wk =   0.0078125
        k(   85) = (   0.2500000  -0.2500000   0.3750000), wk =   0.0156250
        k(   86) = (   0.2500000  -0.2500000  -0.5000000), wk =   0.0156250
        k(   87) = (   0.2500000  -0.2500000  -0.3750000), wk =   0.0156250
        k(   88) = (   0.2500000  -0.2500000  -0.2500000), wk =   0.0078125
        k(   89) = (   0.3750000   0.3750000  -0.3750000), wk =   0.0078125
        k(   90) = (   0.3750000  -0.5000000  -0.5000000), wk =   0.0156250
        k(   91) = (   0.3750000  -0.5000000  -0.3750000), wk =   0.0156250
        k(   92) = (   0.3750000  -0.3750000   0.3750000), wk =   0.0078125
        k(   93) = (   0.3750000  -0.3750000  -0.5000000), wk =   0.0156250
        k(   94) = (   0.3750000  -0.3750000  -0.3750000), wk =   0.0078125
        k(   95) = (  -0.5000000  -0.5000000  -0.5000000), wk =   0.0039062

     Dense  grid:   384583 G-vectors     FFT dimensions: ( 144, 144, 144)

     Smooth grid:    97215 G-vectors     FFT dimensions: (  90,  90,  90)

     Dynamical RAM for                 wfc:       0.08 MB

     Dynamical RAM for     wfc (w. buffer):       7.78 MB

     Dynamical RAM for           str. fact:       0.37 MB

     Dynamical RAM for           local pot:       0.00 MB

     Dynamical RAM for          nlocal pot:       0.16 MB

     Dynamical RAM for                qrad:       8.33 MB

     Dynamical RAM for          rho,v,vnew:       1.79 MB

     Dynamical RAM for               rhoin:       0.60 MB

     Dynamical RAM for            rho*nmix:       1.96 MB

     Dynamical RAM for           G-vectors:       0.47 MB

     Dynamical RAM for          h,s,v(r/c):       0.08 MB

     Dynamical RAM for          <psi|beta>:       0.01 MB

     Dynamical RAM for                 psi:       0.16 MB

     Dynamical RAM for                hpsi:       0.16 MB

     Dynamical RAM for                spsi:       0.16 MB

     Dynamical RAM for      wfcinit/wfcrot:       0.21 MB

     Dynamical RAM for           addusdens:      22.98 MB

     Dynamical RAM for          addusforce:      23.30 MB

     Dynamical RAM for         addusstress:      24.57 MB

     Estimated static dynamical RAM per process >      24.33 MB

     Estimated max dynamical RAM per process >      48.90 MB

     Estimated total dynamical RAM >       2.29 GB

     Initial potential from superposition of free atoms

     starting charge   32.99867, renormalised to   33.00000
     Starting wfcs are   25 randomized atomic wfcs
     Checking if some PAW data can be deallocated... 
       PAW data deallocated on   36 nodes for type:  1
       PAW data deallocated on   24 nodes for type:  2
       PAW data deallocated on   36 nodes for type:  3

     total cpu time spent up to now is        3.4 secs

     Self-consistent Calculation

     iteration #  1     ecut=   120.00 Ry     beta= 0.70
     Davidson diagonalization with overlap
     ethr =  1.00E-02,  avg # of iterations =  2.3

     total cpu time spent up to now is        8.2 secs

     total energy              =    -534.52413452 Ry
     estimated scf accuracy    <       0.76467685 Ry

     iteration #  2     ecut=   120.00 Ry     beta= 0.70
     Davidson diagonalization with overlap
     ethr =  2.32E-03,  avg # of iterations =  3.6

     total cpu time spent up to now is       13.9 secs

     total energy              =    -533.65994797 Ry
     estimated scf accuracy    <       8.22619224 Ry

     iteration #  3     ecut=   120.00 Ry     beta= 0.70
     Davidson diagonalization with overlap
     ethr =  2.32E-03,  avg # of iterations =  3.5

     total cpu time spent up to now is       19.1 secs

     total energy              =    -534.97351116 Ry
     estimated scf accuracy    <       0.12118977 Ry

     iteration #  4     ecut=   120.00 Ry     beta= 0.70
     Davidson diagonalization with overlap
     ethr =  3.67E-04,  avg # of iterations =  1.4

     total cpu time spent up to now is       23.5 secs

     total energy              =    -534.96775593 Ry
     estimated scf accuracy    <       0.05829925 Ry

     iteration #  5     ecut=   120.00 Ry     beta= 0.70
     Davidson diagonalization with overlap
     ethr =  1.77E-04,  avg # of iterations =  1.5

     total cpu time spent up to now is       27.7 secs

     total energy              =    -534.96362255 Ry
     estimated scf accuracy    <       0.02406546 Ry

     iteration #  6     ecut=   120.00 Ry     beta= 0.70
     Davidson diagonalization with overlap
     ethr =  7.29E-05,  avg # of iterations =  2.0

     total cpu time spent up to now is       32.2 secs

     total energy              =    -534.96627416 Ry
     estimated scf accuracy    <       0.00066031 Ry

     iteration #  7     ecut=   120.00 Ry     beta= 0.70
     Davidson diagonalization with overlap
     ethr =  2.00E-06,  avg # of iterations =  3.7

     total cpu time spent up to now is       37.9 secs

     total energy              =    -534.96647886 Ry
     estimated scf accuracy    <       0.00018247 Ry

     iteration #  8     ecut=   120.00 Ry     beta= 0.70
     Davidson diagonalization with overlap
     ethr =  5.53E-07,  avg # of iterations =  1.7

     total cpu time spent up to now is       42.3 secs

     total energy              =    -534.96648617 Ry
     estimated scf accuracy    <       0.00002159 Ry

     iteration #  9     ecut=   120.00 Ry     beta= 0.70
     Davidson diagonalization with overlap
     ethr =  6.54E-08,  avg # of iterations =  2.5

     total cpu time spent up to now is       47.0 secs

     total energy              =    -534.96649154 Ry
     estimated scf accuracy    <       0.00000044 Ry

     iteration # 10     ecut=   120.00 Ry     beta= 0.70
     Davidson diagonalization with overlap
     ethr =  1.34E-09,  avg # of iterations =  4.1

     total cpu time spent up to now is       53.2 secs

     total energy              =    -534.96649180 Ry
     estimated scf accuracy    <       0.00000001 Ry

     iteration # 11     ecut=   120.00 Ry     beta= 0.70
     Davidson diagonalization with overlap
     ethr =  4.53E-11,  avg # of iterations =  3.8

     total cpu time spent up to now is       59.1 secs

     total energy              =    -534.96649180 Ry
     estimated scf accuracy    <          1.1E-09 Ry

     iteration # 12     ecut=   120.00 Ry     beta= 0.70
     Davidson diagonalization with overlap
     ethr =  3.32E-12,  avg # of iterations =  2.6

     total cpu time spent up to now is       64.2 secs

     total energy              =    -534.96649180 Ry
     estimated scf accuracy    <          2.8E-10 Ry

     iteration # 13     ecut=   120.00 Ry     beta= 0.70
     Davidson diagonalization with overlap
     ethr =  8.46E-13,  avg # of iterations =  2.1

     total cpu time spent up to now is       69.0 secs

     End of self-consistent calculation

          k = 0.0000 0.0000 0.0000 ( 12131 PWs)   bands (ev):

   -49.8393 -26.0472 -25.7935 -25.7198 -12.3731  -9.5211  -8.8318   0.6123
     2.4620   2.7392   2.8729   3.0103   3.4628   3.9431   4.2037   4.2829
     5.5004   7.2179   7.3590   8.6418   9.3907

     occupation numbers 
     1.0000   1.0000   1.0000   1.0000   1.0000   1.0000   1.0000   1.0000
     1.0000   1.0000   1.0000   1.0000   1.0000   1.0000   1.0000   1.0000
     1.0000  -0.0000  -0.0000  -0.0000  -0.0000

          k = 0.2496 0.2147 0.0000 ( 12121 PWs)   bands (ev):

   -49.8367 -26.0722 -25.7869 -25.7509 -12.1779  -9.4125  -8.8395   0.8241
     2.1241   2.2520   2.4511   2.9965   3.2899   3.5034   3.8855   4.0365
     5.9342   7.5276   7.6041   8.7461  10.0936

     occupation numbers 
     1.0000   1.0000   1.0000   1.0000   1.0000   1.0000   1.0000   1.0000
     1.0000   1.0000   1.0000   1.0000   1.0000   1.0000   1.0000   1.0000
     1.0000  -0.0000  -0.0000  -0.0000  -0.0000

          k = 0.4991 0.4293 0.0000 ( 12152 PWs)   bands (ev):

   -49.8303 -26.1310 -25.8248 -25.7710 -11.6790  -9.1351  -8.8616   1.1179
     1.3990   1.7354   1.8939   2.0097   2.1842   2.9200   3.8473   4.0143
     6.8051   8.1659   8.2782   9.1554  11.1518

     occupation numbers 
     1.0000   1.0000   1.0000   1.0000   1.0000   1.0000   1.0000   1.0000
     1.0000   1.0000   1.0000   1.0000   1.0000   1.0000   1.0000   1.0000
     0.5907  -0.0000  -0.0000  -0.0000  -0.0000

          k = 0.7487 0.6440 0.0000 ( 12176 PWs)   bands (ev):

   -49.8240 -26.1874 -25.8974 -25.7551 -11.1294  -8.8888  -8.8306  -0.0625
     0.9814   1.2617   1.6629   1.7810   2.1822   2.3078   3.5233   3.9762
     7.8627   8.8541   9.0640   9.5719  11.3814

     occupation numbers 
     1.0000   1.0000   1.0000   1.0000   1.0000   1.0000   1.0000   1.0000
     1.0000   1.0000   1.0000   1.0000   1.0000   1.0000   1.0000   1.0000
    -0.0000  -0.0000  -0.0000  -0.0000  -0.0000

          k =-0.9983-0.8586 0.0000 ( 12140 PWs)   bands (ev):

   -49.8214 -26.2101 -25.9270 -25.7485 -10.8821  -8.9016  -8.6940  -0.5512
     0.6080   0.9539   1.7484   1.8270   1.9868   2.5683   3.2682   3.8806
     8.4623   9.1852   9.3787   9.7640  11.4055

     occupation numbers 
     1.0000   1.0000   1.0000   1.0000   1.0000   1.0000   1.0000   1.0000
     1.0000   1.0000   1.0000   1.0000   1.0000   1.0000   1.0000   1.0000
    -0.0000  -0.0000  -0.0000  -0.0000  -0.0000

          k = 0.2496 0.0000 0.0677 ( 12148 PWs)   bands (ev):

   -49.8372 -26.0446 -25.7879 -25.7518 -12.3558  -9.4318  -8.8448   0.8021
     2.2461   2.6639   2.9522   3.0634   3.1022   3.8042   3.9347   4.1228
     5.9186   7.1272   7.2989   8.7261   9.7699

     occupation numbers 
     1.0000   1.0000   1.0000   1.0000   1.0000   1.0000   1.0000   1.0000
     1.0000   1.0000   1.0000   1.0000   1.0000   1.0000   1.0000   1.0000
     1.0000  -0.0000  -0.0000  -0.0000  -0.0000

          k = 0.4991 0.2147 0.0677 ( 12153 PWs)   bands (ev):

   -49.8315 -26.0660 -25.8272 -25.7733 -12.1368  -9.1922  -8.8633   1.2320
     1.9006   2.0803   2.2403   2.4909   2.8969   3.0636   3.8723   4.0717
     6.7541   7.3232   7.4434   9.1580  10.5552

     occupation numbers 
     1.0000   1.0000   1.0000   1.0000   1.0000   1.0000   1.0000   1.0000
     1.0000   1.0000   1.0000   1.0000   1.0000   1.0000   1.0000   1.0000
     1.0034  -0.0000  -0.0000  -0.0000  -0.0000

          k = 0.7487 0.4293 0.0677 ( 12179 PWs)   bands (ev):

   -49.8252 -26.1243 -25.8999 -25.7574 -11.6395  -8.9138  -8.8670   1.0952
     1.2415   1.4459   1.6799   1.9096   2.2585   2.5439   3.7136   4.1149
     7.7165   8.0642   8.1756   9.6492  11.1275

     occupation numbers 
     1.0000   1.0000   1.0000   1.0000   1.0000   1.0000   1.0000   1.0000
     1.0000   1.0000   1.0000   1.0000   1.0000   1.0000   1.0000   1.0000
    -0.0000  -0.0000  -0.0000  -0.0000  -0.0000

          k = 0.9983 0.6440 0.0677 ( 12173 PWs)   bands (ev):

   -49.8218 -26.1844 -25.9281 -25.7494 -11.1139  -8.9136  -8.7074  -0.0497
     0.7518   0.9298   1.5568   1.9383   2.2153   2.5986   3.3431   3.9459
     8.4503   8.7811   9.0228   9.7479  11.2807

     occupation numbers 
     1.0000   1.0000   1.0000   1.0000   1.0000   1.0000   1.0000   1.0000
     1.0000   1.0000   1.0000   1.0000   1.0000   1.0000   1.0000   1.0000
    -0.0000  -0.0000  -0.0000  -0.0000  -0.0000

          k =-0.7487-0.8586 0.0677 ( 12172 PWs)   bands (ev):

   -49.8235 -26.2132 -25.8963 -25.7541 -10.8969  -8.9075  -8.7848  -0.5620
     0.7946   1.2425   1.4359   1.8081   2.3262   2.3985   3.4323   3.8235
     7.9141   9.2360   9.4263   9.4845  11.3407

     occupation numbers 
     1.0000   1.0000   1.0000   1.0000   1.0000   1.0000   1.0000   1.0000
     1.0000   1.0000   1.0000   1.0000   1.0000   1.0000   1.0000   1.0000
    -0.0000  -0.0000  -0.0000  -0.0000  -0.0000

          k =-0.4991-0.6440 0.0677 ( 12166 PWs)   bands (ev):

   -49.8291 -26.1946 -25.8225 -25.7686 -11.1662  -9.0593  -8.8800  -0.0917
     1.3265   1.4646   1.5674   1.8762   2.1330   2.9277   3.7160   3.8074
     6.8816   8.9648   9.0540   9.2224  11.4246

     occupation numbers 
     1.0000   1.0000   1.0000   1.0000   1.0000   1.0000   1.0000   1.0000
     1.0000   1.0000   1.0000   1.0000   1.0000   1.0000   1.0000   1.0000
    -0.0268  -0.0000  -0.0000  -0.0000  -0.0000

          k =-0.2496-0.4293 0.0677 ( 12135 PWs)   bands (ev):

   -49.8355 -26.1377 -25.7845 -25.7487 -11.7182  -9.3442  -8.8531   0.9141
     1.1395   1.4975   2.2491   2.5243   3.1805   3.4055   3.7288   3.9178
     5.9987   8.3763   8.4064   8.7817  10.6501

     occupation numbers 
     1.0000   1.0000   1.0000   1.0000   1.0000   1.0000   1.0000   1.0000
     1.0000   1.0000   1.0000   1.0000   1.0000   1.0000   1.0000   1.0000
     1.0000  -0.0000  -0.0000  -0.0000  -0.0000

          k = 0.0000-0.2147 0.0677 ( 12112 PWs)   bands (ev):

   -49.8388 -26.0748 -25.7925 -25.7189 -12.1949  -9.4908  -8.8405   0.6649
     2.0648   2.4396   2.4845   3.2989   3.3550   3.7553   3.9573   4.1585
     5.5291   7.6432   7.6691   8.6713   9.7261

     occupation numbers 
     1.0000   1.0000   1.0000   1.0000   1.0000   1.0000   1.0000   1.0000
     1.0000   1.0000   1.0000   1.0000   1.0000   1.0000   1.0000   1.0000
     1.0000  -0.0000  -0.0000  -0.0000  -0.0000

          k = 0.4991 0.0000 0.1354 ( 12156 PWs)   bands (ev):

   -49.8320 -26.0386 -25.8282 -25.7743 -12.3141  -9.2090  -8.8710   1.1799
     1.9227   2.0209   2.4789   3.0541   3.3271   3.4679   3.7886   3.9117
     6.7830   6.9396   7.0995   9.0994  10.1176

     occupation numbers 
     1.0000   1.0000   1.0000   1.0000   1.0000   1.0000   1.0000   1.0000
     1.0000   1.0000   1.0000   1.0000   1.0000   1.0000   1.0000   1.0000
     0.8310  -0.0119  -0.0000  -0.0000  -0.0000

          k = 0.7487 0.2147 0.1354 ( 12169 PWs)   bands (ev):

   -49.8263 -26.0597 -25.9025 -25.7597 -12.0958  -8.9740  -8.8659   1.0760
     1.4563   1.8249   2.0136   2.6224   2.7689   3.1422   3.8345   4.0173
     7.0940   7.2323   7.8471   9.6392  10.4541

     occupation numbers 
     1.0000   1.0000   1.0000   1.0000   1.0000   1.0000   1.0000   1.0000
     1.0000   1.0000   1.0000   1.0000   1.0000   1.0000   1.0000   1.0000
    -0.0000  -0.0000  -0.0000  -0.0000  -0.0000

          k = 0.9983 0.4293 0.1354 ( 12163 PWs)   bands (ev):

   -49.8230 -26.1215 -25.9307 -25.7517 -11.6231  -8.9423  -8.7391   0.7653
     1.2199   1.2487   1.4264   1.9479   2.6346   2.8138   3.5527   4.0456
     7.8535   8.1243   8.4527   9.7313  10.9013

     occupation numbers 
     1.0000   1.0000   1.0000   1.0000   1.0000   1.0000   1.0000   1.0000
     1.0000   1.0000   1.0000   1.0000   1.0000   1.0000   1.0000   1.0000
    -0.0000  -0.0000  -0.0000  -0.0000  -0.0000

          k = 1.2479 0.6440 0.1354 ( 12184 PWs)   bands (ev):

   -49.8240 -26.1874 -25.8974 -25.7551 -11.1291  -8.9447  -8.7707  -0.0628
     0.9248   1.1544   1.3334   1.9112   2.5085   2.5765   3.5035   3.8069
     7.9308   8.8380   9.0692   9.4093  11.1838

     occupation numbers 
     1.0000   1.0000   1.0000   1.0000   1.0000   1.0000   1.0000   1.0000
     1.0000   1.0000   1.0000   1.0000   1.0000   1.0000   1.0000   1.0000
    -0.0000  -0.0000  -0.0000  -0.0000  -0.0000

          k =-0.4991-0.8586 0.1354 ( 12184 PWs)   bands (ev):

   -49.8287 -26.2205 -25.8215 -25.7676 -10.9319  -8.9937  -8.9230  -0.5878
     1.1781   1.2241   1.7208   1.7991   2.1785   2.9593   3.5796   3.7478
     6.9357   8.9558   9.4221   9.5223  11.4690

     occupation numbers 
     1.0000   1.0000   1.0000   1.0000   1.0000   1.0000   1.0000   1.0000
     1.0000   1.0000   1.0000   1.0000   1.0000   1.0000   1.0000   1.0000
    -0.0140  -0.0000  -0.0000  -0.0000  -0.0000

          k =-0.2496-0.6440 0.1354 ( 12161 PWs)   bands (ev):

   -49.8343 -26.2017 -25.7821 -25.7465 -11.2025  -9.2545  -8.8928  -0.1200
     0.9536   1.2472   2.0126   2.2582   2.9720   3.3165   3.5269   3.9378
     6.0674   8.7609   9.2249   9.2565  11.0506

     occupation numbers 
     1.0000   1.0000   1.0000   1.0000   1.0000   1.0000   1.0000   1.0000
     1.0000   1.0000   1.0000   1.0000   1.0000   1.0000   1.0000   1.0000
     1.0000  -0.0000  -0.0000  -0.0000  -0.0000

          k = 0.0000-0.4293 0.1354 ( 12137 PWs)   bands (ev):

   -49.8376 -26.1405 -25.7901 -25.7168 -11.7343  -9.4111  -8.8694   0.7772
     1.1169   1.4416   2.5410   2.9098   3.0125   3.5489   3.9542   4.0074
     5.5843   8.4282   8.5379   8.7433  10.3252

     occupation numbers 
     1.0000   1.0000   1.0000   1.0000   1.0000   1.0000   1.0000   1.0000
     1.0000   1.0000   1.0000   1.0000   1.0000   1.0000   1.0000   1.0000
     1.0000  -0.0000  -0.0000  -0.0000  -0.0000

          k = 0.2496-0.2147 0.1354 ( 12130 PWs)   bands (ev):

   -49.8367 -26.0722 -25.7869 -25.7509 -12.1776  -9.3934  -8.8625   0.8802
     2.1393   2.2477   2.4615   2.9590   3.2041   3.4976   3.8624   4.0678
     5.9577   7.5216   7.6217   8.7282  10.1588

     occupation numbers 
     1.0000   1.0000   1.0000   1.0000   1.0000   1.0000   1.0000   1.0000
     1.0000   1.0000   1.0000   1.0000   1.0000   1.0000   1.0000   1.0000
     1.0000  -0.0000  -0.0000  -0.0000  -0.0000

          k = 0.7487 0.0000 0.2031 ( 12173 PWs)   bands (ev):

   -49.8268 -26.0325 -25.9035 -25.7607 -12.2726  -9.0121  -8.8506   1.0067
     1.3312   1.9948   2.0932   3.1733   3.4441   3.5831   3.7342   3.7603
     6.7839   6.7982   7.8347   9.5426   9.9828

     occupation numbers 
     1.0000   1.0000   1.0000   1.0000   1.0000   1.0000   1.0000   1.0000
     1.0000   1.0000   1.0000   1.0000   1.0000   1.0000   1.0000   1.0000
     0.8232   0.6736  -0.0000  -0.0000  -0.0000

          k = 0.9983 0.2147 0.2031 ( 12179 PWs)   bands (ev):

   -49.8242 -26.0571 -25.9334 -25.7540 -12.0788  -8.9707  -8.7703   0.6942
     1.3320   1.7693   1.9260   2.6956   2.9034   3.4060   3.8032   3.9319
     7.0335   7.1246   8.4292   9.6712  10.3134

     occupation numbers 
     1.0000   1.0000   1.0000   1.0000   1.0000   1.0000   1.0000   1.0000
     1.0000   1.0000   1.0000   1.0000   1.0000   1.0000   1.0000   1.0000
    -0.0000  -0.0000  -0.0000  -0.0000  -0.0000

          k = 1.2479 0.4293 0.2031 ( 12170 PWs)   bands (ev):

   -49.8252 -26.1243 -25.8999 -25.7574 -11.6393  -8.9870  -8.7881   1.0042
     1.1859   1.2972   1.3985   2.0982   2.6477   2.8079   3.6924   3.9539
     7.8569   7.9899   8.1801   9.4012  10.8624

     occupation numbers 
     1.0000   1.0000   1.0000   1.0000   1.0000   1.0000   1.0000   1.0000
     1.0000   1.0000   1.0000   1.0000   1.0000   1.0000   1.0000   1.0000
    -0.0000  -0.0000  -0.0000  -0.0000  -0.0000

          k = 1.4974 0.6440 0.2031 ( 12175 PWs)   bands (ev):

   -49.8291 -26.1946 -25.8225 -25.7686 -11.1657  -9.0244  -8.9157  -0.0929
     1.2556   1.3226   1.6936   1.8452   2.2838   3.0072   3.5560   3.8709
     6.9402   8.8534   9.1198   9.1583  11.3591

     occupation numbers 
     1.0000   1.0000   1.0000   1.0000   1.0000   1.0000   1.0000   1.0000
     1.0000   1.0000   1.0000   1.0000   1.0000   1.0000   1.0000   1.0000
    -0.0116  -0.0000  -0.0000  -0.0000  -0.0000

          k =-0.2496-0.8586 0.2031 ( 12167 PWs)   bands (ev):

   -49.8338 -26.2278 -25.7811 -25.7456 -10.9663  -9.1902  -8.9401  -0.6134
     0.8403   1.4182   1.7751   2.1697   2.8858   3.2218   3.4783   3.9650
     6.1043   8.7755   9.5744   9.6030  11.2114

     occupation numbers 
     1.0000   1.0000   1.0000   1.0000   1.0000   1.0000   1.0000   1.0000
     1.0000   1.0000   1.0000   1.0000   1.0000   1.0000   1.0000   1.0000
     1.0000  -0.0000  -0.0000  -0.0000  -0.0000

          k = 0.0000-0.6440 0.2031 ( 12156 PWs)   bands (ev):

   -49.8364 -26.2047 -25.7877 -25.7147 -11.2172  -9.3165  -8.9168  -0.1320
     0.7852   1.2387   2.4051   2.5653   2.6045   3.4561   3.9213   3.9870
     5.6381   8.8142   9.2275   9.3637  10.7879

     occupation numbers 
     1.0000   1.0000   1.0000   1.0000   1.0000   1.0000   1.0000   1.0000
     1.0000   1.0000   1.0000   1.0000   1.0000   1.0000   1.0000   1.0000
     1.0000  -0.0000  -0.0000  -0.0000  -0.0000

          k = 0.2496-0.4293 0.2031 ( 12155 PWs)   bands (ev):

   -49.8355 -26.1377 -25.7845 -25.7487 -11.7178  -9.3098  -8.8935   0.9616
     1.1622   1.5926   2.1745   2.5447   2.9581   3.4615   3.5786   4.0761
     6.0283   8.3967   8.4043   8.7568  10.7504

     occupation numbers 
     1.0000   1.0000   1.0000   1.0000   1.0000   1.0000   1.0000   1.0000
     1.0000   1.0000   1.0000   1.0000   1.0000   1.0000   1.0000   1.0000
     1.0000  -0.0000  -0.0000  -0.0000  -0.0000

          k = 0.4991-0.2147 0.2031 ( 12152 PWs)   bands (ev):

   -49.8315 -26.0660 -25.8272 -25.7733 -12.1365  -9.1780  -8.8779   1.2052
     1.8845   1.9424   2.3091   2.5239   2.9367   3.1613   3.8442   4.0837
     6.8094   7.2889   7.4577   9.0272  10.4979

     occupation numbers 
     1.0000   1.0000   1.0000   1.0000   1.0000   1.0000   1.0000   1.0000
     1.0000   1.0000   1.0000   1.0000   1.0000   1.0000   1.0000   1.0000
     0.5380  -0.0000  -0.0000  -0.0000  -0.0000

          k =-0.9983 0.0000-0.2708 ( 12202 PWs)   bands (ev):

   -49.8247 -26.0300 -25.9344 -25.7550 -12.2555  -8.9824  -8.7830   0.6603
     1.3118   1.8862   2.0437   3.3072   3.4171   3.5039   3.7862   3.9211
     6.6080   6.7468   8.4167   9.5358  10.0280

     occupation numbers 
     1.0000   1.0000   1.0000   1.0000   1.0000   1.0000   1.0000   1.0000
     1.0000   1.0000   1.0000   1.0000   1.0000   1.0000   1.0000   1.0000
     1.0001   1.0212  -0.0000  -0.0000  -0.0000

          k =-0.7487 0.2147-0.2708 ( 12174 PWs)   bands (ev):

   -49.8263 -26.0597 -25.9025 -25.7597 -12.0957  -9.0149  -8.8212   0.9944
     1.2670   1.8247   2.1560   2.6429   2.8948   3.2529   3.8093   4.0112
     7.0831   7.2262   7.8772   9.4581  10.3209

     occupation numbers 
     1.0000   1.0000   1.0000   1.0000   1.0000   1.0000   1.0000   1.0000
     1.0000   1.0000   1.0000   1.0000   1.0000   1.0000   1.0000   1.0000
    -0.0000  -0.0000  -0.0000  -0.0000  -0.0000

          k =-0.4991 0.4293-0.2708 ( 12174 PWs)   bands (ev):

   -49.8303 -26.1310 -25.8248 -25.7710 -11.6784  -9.1084  -8.8892   1.0992
     1.3074   1.6908   1.8867   1.9360   2.4012   3.0789   3.6945   4.0592
     6.8886   8.1365   8.3021   8.9831  11.0562

     occupation numbers 
     1.0000   1.0000   1.0000   1.0000   1.0000   1.0000   1.0000   1.0000
     1.0000   1.0000   1.0000   1.0000   1.0000   1.0000   1.0000   1.0000
    -0.0335  -0.0000  -0.0000  -0.0000  -0.0000

          k =-0.2496 0.6440-0.2708 ( 12165 PWs)   bands (ev):

   -49.8343 -26.2017 -25.7821 -25.7465 -11.2021  -9.2179  -8.9338  -0.1212
     0.9466   1.4632   1.8436   2.2690   2.8810   3.2727   3.4990   4.0212
     6.0893   8.7662   9.2137   9.2589  11.1184

     occupation numbers 
     1.0000   1.0000   1.0000   1.0000   1.0000   1.0000   1.0000   1.0000
     1.0000   1.0000   1.0000   1.0000   1.0000   1.0000   1.0000   1.0000
     1.0000  -0.0000  -0.0000  -0.0000  -0.0000

          k =-1.9966-0.8586-0.2708 ( 12134 PWs)   bands (ev):

   -49.8359 -26.2308 -25.7867 -25.7139 -10.9803  -9.2685  -8.9476  -0.6240
     0.6869   1.3303   2.1180   2.4398   2.6285   3.4147   3.8915   3.9836
     5.6606   8.8443   9.5781   9.7014  10.9581

     occupation numbers 
     1.0000   1.0000   1.0000   1.0000   1.0000   1.0000   1.0000   1.0000
     1.0000   1.0000   1.0000   1.0000   1.0000   1.0000   1.0000   1.0000
     1.0000  -0.0000  -0.0000  -0.0000  -0.0000

          k = 0.4991 0.4293 0.1354 ( 12160 PWs)   bands (ev):

   -49.8303 -26.1310 -25.8248 -25.7710 -11.6788  -9.1279  -8.8691   1.1119
     1.3640   1.7509   1.8373   2.0637   2.1915   2.9815   3.7958   4.0347
     6.8287   8.1525   8.2886   9.1056  11.1281

     occupation numbers 
     1.0000   1.0000   1.0000   1.0000   1.0000   1.0000   1.0000   1.0000
     1.0000   1.0000   1.0000   1.0000   1.0000   1.0000   1.0000   1.0000
     0.3048  -0.0000  -0.0000  -0.0000  -0.0000

          k = 0.7487 0.6440 0.1354 ( 12164 PWs)   bands (ev):

   -49.8240 -26.1874 -25.8974 -25.7551 -11.1293  -8.9041  -8.8147  -0.0626
     0.9744   1.2271   1.6408   1.7390   2.2796   2.3562   3.5173   3.9490
     7.8749   8.8420   9.0640   9.5532  11.3627

     occupation numbers 
     1.0000   1.0000   1.0000   1.0000   1.0000   1.0000   1.0000   1.0000
     1.0000   1.0000   1.0000   1.0000   1.0000   1.0000   1.0000   1.0000
    -0.0000  -0.0000  -0.0000  -0.0000  -0.0000

          k = 0.9983 0.8586 0.1354 ( 12170 PWs)   bands (ev):

   -49.8214 -26.2101 -25.9270 -25.7485 -10.8821  -8.9016  -8.6941  -0.5512
     0.6226   0.9237   1.7710   1.8590   1.9530   2.5802   3.2245   3.9088
     8.4640   9.1869   9.3885   9.7351  11.3864

     occupation numbers 
     1.0000   1.0000   1.0000   1.0000   1.0000   1.0000   1.0000   1.0000
     1.0000   1.0000   1.0000   1.0000   1.0000   1.0000   1.0000   1.0000
    -0.0000  -0.0000  -0.0000  -0.0000  -0.0000

          k = 0.0000 0.0000 0.1354 ( 12125 PWs)   bands (ev):

   -49.8393 -26.0472 -25.7935 -25.7198 -12.3728  -9.4983  -8.8608   0.6906
     2.4862   2.7076   2.8473   3.0638   3.4491   3.8242   4.1571   4.2477
     5.5182   7.2181   7.3891   8.6935   9.4830

     occupation numbers 
     1.0000   1.0000   1.0000   1.0000   1.0000   1.0000   1.0000   1.0000
     1.0000   1.0000   1.0000   1.0000   1.0000   1.0000   1.0000   1.0000
     1.0000  -0.0000  -0.0000  -0.0000  -0.0000

          k = 0.7487 0.4293 0.2031 ( 12170 PWs)   bands (ev):

   -49.8252 -26.1243 -25.8999 -25.7574 -11.6394  -8.9556  -8.8228   1.0550
     1.2128   1.4168   1.4945   1.9873   2.4658   2.6475   3.7012   4.0561
     7.7700   8.0328   8.1770   9.5491  11.0209

     occupation numbers 
     1.0000   1.0000   1.0000   1.0000   1.0000   1.0000   1.0000   1.0000
     1.0000   1.0000   1.0000   1.0000   1.0000   1.0000   1.0000   1.0000
    -0.0000  -0.0000  -0.0000  -0.0000  -0.0000

          k = 0.9983 0.6440 0.2031 ( 12179 PWs)   bands (ev):

   -49.8218 -26.1844 -25.9281 -25.7494 -11.1139  -8.9136  -8.7074  -0.0497
     0.7854   0.8763   1.6389   1.8494   2.2285   2.6377   3.2896   3.9755
     8.4585   8.7769   9.0296   9.7160  11.2713

     occupation numbers 
     1.0000   1.0000   1.0000   1.0000   1.0000   1.0000   1.0000   1.0000
     1.0000   1.0000   1.0000   1.0000   1.0000   1.0000   1.0000   1.0000
    -0.0000  -0.0000  -0.0000  -0.0000  -0.0000

          k = 1.2479 0.8586 0.2031 ( 12154 PWs)   bands (ev):

   -49.8235 -26.2132 -25.8963 -25.7541 -10.8969  -8.9075  -8.7849  -0.5620
     0.7982   1.2094   1.5364   1.7015   2.3612   2.4077   3.4286   3.8180
     7.9150   9.1975   9.4329   9.5154  11.3796

     occupation numbers 
     1.0000   1.0000   1.0000   1.0000   1.0000   1.0000   1.0000   1.0000
     1.0000   1.0000   1.0000   1.0000   1.0000   1.0000   1.0000   1.0000
    -0.0000  -0.0000  -0.0000  -0.0000  -0.0000

          k =-0.4991-0.6440 0.2031 ( 12177 PWs)   bands (ev):

   -49.8291 -26.1946 -25.8225 -25.7686 -11.1660  -9.0468  -8.8928  -0.0922
     1.2935   1.3918   1.6097   1.9227   2.1560   2.9692   3.6282   3.8545
     6.9051   8.8918   9.1166   9.1881  11.4064

     occupation numbers 
     1.0000   1.0000   1.0000   1.0000   1.0000   1.0000   1.0000   1.0000
     1.0000   1.0000   1.0000   1.0000   1.0000   1.0000   1.0000   1.0000
    -0.0331  -0.0000  -0.0000  -0.0000  -0.0000

          k = 0.0000-0.2147 0.2031 ( 12117 PWs)   bands (ev):

   -49.8388 -26.0748 -25.7925 -25.7189 -12.1943  -9.4469  -8.8952   0.8089
     2.1049   2.4372   2.5281   3.1487   3.2844   3.5652   4.0601   4.0883
     5.5455   7.6428   7.6921   8.7596   9.9091

     occupation numbers 
     1.0000   1.0000   1.0000   1.0000   1.0000   1.0000   1.0000   1.0000
     1.0000   1.0000   1.0000   1.0000   1.0000   1.0000   1.0000   1.0000
     1.0000  -0.0000  -0.0000  -0.0000  -0.0000

          k = 0.2496 0.0000 0.2031 ( 12145 PWs)   bands (ev):

   -49.8372 -26.0447 -25.7879 -25.7518 -12.3553  -9.3936  -8.8909   0.9206
     2.2509   2.5878   2.8887   3.0463   3.1788   3.7029   3.9616   4.0513
     5.9715   7.1073   7.3456   8.6986   9.8670

     occupation numbers 
     1.0000   1.0000   1.0000   1.0000   1.0000   1.0000   1.0000   1.0000
     1.0000   1.0000   1.0000   1.0000   1.0000   1.0000   1.0000   1.0000
     1.0000  -0.0000  -0.0000  -0.0000  -0.0000

          k = 0.9983 0.4293 0.2708 ( 12166 PWs)   bands (ev):

   -49.8230 -26.1215 -25.9307 -25.7517 -11.6231  -8.9423  -8.7391   0.7522
     1.2196   1.2473   1.5048   1.8567   2.6231   2.8717   3.5259   4.0539
     7.8624   8.1259   8.4460   9.7085  10.9203

     occupation numbers 
     1.0000   1.0000   1.0000   1.0000   1.0000   1.0000   1.0000   1.0000
     1.0000   1.0000   1.0000   1.0000   1.0000   1.0000   1.0000   1.0000
    -0.0000  -0.0000  -0.0000  -0.0000  -0.0000

          k = 1.2479 0.6440 0.2708 ( 12163 PWs)   bands (ev):

   -49.8240 -26.1874 -25.8974 -25.7551 -11.1292  -8.9277  -8.7894  -0.0627
     0.9540   1.1697   1.4813   1.8171   2.4209   2.4706   3.5064   3.8807
     7.9037   8.8270   9.0660   9.4932  11.2900

     occupation numbers 
     1.0000   1.0000   1.0000   1.0000   1.0000   1.0000   1.0000   1.0000
     1.0000   1.0000   1.0000   1.0000   1.0000   1.0000   1.0000   1.0000
    -0.0000  -0.0000  -0.0000  -0.0000  -0.0000

          k = 1.4974 0.8586 0.2708 ( 12186 PWs)   bands (ev):

   -49.8287 -26.2205 -25.8215 -25.7676 -10.9319  -8.9937  -8.9230  -0.5878
     1.1942   1.2075   1.7074   1.8070   2.1934   2.9473   3.5713   3.7595
     6.9353   8.9462   9.4419   9.5136  11.4810

     occupation numbers 
     1.0000   1.0000   1.0000   1.0000   1.0000   1.0000   1.0000   1.0000
     1.0000   1.0000   1.0000   1.0000   1.0000   1.0000   1.0000   1.0000
    -0.0142  -0.0000  -0.0000  -0.0000  -0.0000

          k = 0.0000-0.4293 0.2708 ( 12158 PWs)   bands (ev):

   -49.8376 -26.1405 -25.7901 -25.7168 -11.7335  -9.3530  -8.9388   0.8929
     1.1481   1.5775   2.5886   2.6209   2.9055   3.3849   3.9243   4.1565
     5.5964   8.4192   8.5367   8.8321  10.5424

     occupation numbers 
     1.0000   1.0000   1.0000   1.0000   1.0000   1.0000   1.0000   1.0000
     1.0000   1.0000   1.0000   1.0000   1.0000   1.0000   1.0000   1.0000
     1.0000  -0.0000  -0.0000  -0.0000  -0.0000

          k = 0.2496-0.2147 0.2708 ( 12146 PWs)   bands (ev):

   -49.8367 -26.0722 -25.7869 -25.7509 -12.1770  -9.3390  -8.9267   1.0413
     2.1067   2.2762   2.4761   2.8365   3.1163   3.4564   3.7870   4.1165
     6.0128   7.5133   7.6521   8.7189  10.2813

     occupation numbers 
     1.0000   1.0000   1.0000   1.0000   1.0000   1.0000   1.0000   1.0000
     1.0000   1.0000   1.0000   1.0000   1.0000   1.0000   1.0000   1.0000
     1.0000  -0.0000  -0.0000  -0.0000  -0.0000

          k = 0.4991 0.0000 0.2708 ( 12154 PWs)   bands (ev):

   -49.8320 -26.0386 -25.8282 -25.7743 -12.3137  -9.1895  -8.8911   1.1626
     1.7819   2.0214   2.5641   2.9886   3.4485   3.5476   3.8515   3.8687
     6.8508   6.8894   7.1134   8.9175  10.0380

     occupation numbers 
     1.0000   1.0000   1.0000   1.0000   1.0000   1.0000   1.0000   1.0000
     1.0000   1.0000   1.0000   1.0000   1.0000   1.0000   1.0000   1.0000
     0.0974  -0.0339  -0.0000  -0.0000  -0.0000

          k =-1.9966-0.6440-0.2031 ( 12169 PWs)   bands (ev):

   -49.8364 -26.2047 -25.7877 -25.7147 -11.2167  -9.2661  -8.9742  -0.1336
     0.8483   1.3885   2.1981   2.5651   2.6340   3.2616   3.8691   4.1473
     5.6444   8.8662   9.2187   9.3630  10.9066

     occupation numbers 
     1.0000   1.0000   1.0000   1.0000   1.0000   1.0000   1.0000   1.0000
     1.0000   1.0000   1.0000   1.0000   1.0000   1.0000   1.0000   1.0000
     1.0000  -0.0000  -0.0000  -0.0000  -0.0000

          k =-1.7470-0.4293-0.2031 ( 12164 PWs)   bands (ev):

   -49.8355 -26.1377 -25.7845 -25.7487 -11.7171  -9.2453  -8.9665   1.0156
     1.2521   1.7372   1.9960   2.5364   2.8770   3.3802   3.4251   4.2220
     6.0705   8.3823   8.4122   8.7740  10.8699

     occupation numbers 
     1.0000   1.0000   1.0000   1.0000   1.0000   1.0000   1.0000   1.0000
     1.0000   1.0000   1.0000   1.0000   1.0000   1.0000   1.0000   1.0000
     1.0000  -0.0000  -0.0000  -0.0000  -0.0000

          k =-1.4974-0.2147-0.2031 ( 12140 PWs)   bands (ev):

   -49.8315 -26.0660 -25.8272 -25.7734 -12.1361  -9.1552  -8.9014   1.1942
     1.6755   1.9701   2.3827   2.5459   3.0367   3.2489   3.7873   4.1079
     6.8974   7.2557   7.4648   8.8522  10.3977

     occupation numbers 
     1.0000   1.0000   1.0000   1.0000   1.0000   1.0000   1.0000   1.0000
     1.0000   1.0000   1.0000   1.0000   1.0000   1.0000   1.0000   1.0000
    -0.0354  -0.0000  -0.0000  -0.0000  -0.0000

          k =-1.2479 0.0000-0.2031 ( 12202 PWs)   bands (ev):

   -49.8268 -26.0325 -25.9035 -25.7607 -12.2725  -9.0475  -8.8106   0.9304
     1.1503   2.0137   2.2735   3.1302   3.5595   3.5722   3.7952   3.8477
     6.7423   6.7753   7.8840   9.3386   9.8464

     occupation numbers 
     1.0000   1.0000   1.0000   1.0000   1.0000   1.0000   1.0000   1.0000
     1.0000   1.0000   1.0000   1.0000   1.0000   1.0000   1.0000   1.0000
     1.0281   0.8946  -0.0000  -0.0000  -0.0000

          k = 0.0000 0.8586-0.1354 ( 12137 PWs)   bands (ev):

   -49.8359 -26.2308 -25.7867 -25.7139 -10.9803  -9.2685  -8.9476  -0.6240
     0.7415   1.1803   2.3358   2.4399   2.6284   3.1827   3.8915   4.0990
     5.6561   8.8443   9.5880   9.7013  10.9160

     occupation numbers 
     1.0000   1.0000   1.0000   1.0000   1.0000   1.0000   1.0000   1.0000
     1.0000   1.0000   1.0000   1.0000   1.0000   1.0000   1.0000   1.0000
     1.0000  -0.0000  -0.0000  -0.0000  -0.0000

          k =-1.7470-0.6440-0.1354 ( 12171 PWs)   bands (ev):

   -49.8343 -26.2017 -25.7821 -25.7465 -11.2017  -9.1656  -8.9906  -0.1224
     1.0348   1.4545   1.8635   2.2212   2.9257   3.1776   3.3416   4.1508
     6.1078   8.7591   9.2309   9.2581  11.1734

     occupation numbers 
     1.0000   1.0000   1.0000   1.0000   1.0000   1.0000   1.0000   1.0000
     1.0000   1.0000   1.0000   1.0000   1.0000   1.0000   1.0000   1.0000
     1.0000  -0.0000  -0.0000  -0.0000  -0.0000

          k =-1.4974-0.4293-0.1354 ( 12163 PWs)   bands (ev):

   -49.8303 -26.1310 -25.8248 -25.7710 -11.6781  -9.0844  -8.9139   1.0907
     1.2723   1.6251   1.7930   1.9917   2.6080   3.1197   3.6033   4.0716
     6.9530   8.1450   8.2995   8.8566  10.9653

     occupation numbers 
     1.0000   1.0000   1.0000   1.0000   1.0000   1.0000   1.0000   1.0000
     1.0000   1.0000   1.0000   1.0000   1.0000   1.0000   1.0000   1.0000
    -0.0064  -0.0000  -0.0000  -0.0000  -0.0000

          k =-1.2479-0.2147-0.1354 ( 12175 PWs)   bands (ev):

   -49.8263 -26.0597 -25.9025 -25.7597 -12.0955  -9.0420  -8.7901   0.9386
     1.1152   1.7947   2.2948   2.6435   3.0109   3.3691   3.8087   3.9757
     7.0701   7.2215   7.9209   9.2827  10.1738

     occupation numbers 
     1.0000   1.0000   1.0000   1.0000   1.0000   1.0000   1.0000   1.0000
     1.0000   1.0000   1.0000   1.0000   1.0000   1.0000   1.0000   1.0000
    -0.0000  -0.0000  -0.0000  -0.0000  -0.0000

          k =-0.9983 0.0000-0.1354 ( 12175 PWs)   bands (ev):

   -49.8247 -26.0300 -25.9344 -25.7550 -12.2555  -8.9823  -8.7830   0.6783
     1.2578   1.9077   2.0690   3.3070   3.4176   3.5178   3.7577   3.9207
     6.6147   6.7399   8.4201   9.6035   9.9517

     occupation numbers 
     1.0000   1.0000   1.0000   1.0000   1.0000   1.0000   1.0000   1.0000
     1.0000   1.0000   1.0000   1.0000   1.0000   1.0000   1.0000   1.0000
     1.0002   1.0307  -0.0000  -0.0000  -0.0000

          k = 0.0000 0.6440-0.0677 ( 12143 PWs)   bands (ev):

   -49.8364 -26.2047 -25.7877 -25.7147 -11.2176  -9.3447  -8.8837  -0.1309
     0.8313   1.0150   2.5676   2.5826   2.8021   3.2212   3.9574   4.0288
     5.6289   8.7775   9.2485   9.3639  10.6653

     occupation numbers 
     1.0000   1.0000   1.0000   1.0000   1.0000   1.0000   1.0000   1.0000
     1.0000   1.0000   1.0000   1.0000   1.0000   1.0000   1.0000   1.0000
     1.0000  -0.0000  -0.0000  -0.0000  -0.0000

          k = 0.2496 0.8586-0.0677 ( 12173 PWs)   bands (ev):

   -49.8338 -26.2278 -25.7811 -25.7456 -10.9663  -9.1901  -8.9401  -0.6134
     0.9133   1.2189   1.9488   2.1438   2.9878   3.1505   3.3552   4.0381
     6.1005   8.7744   9.5876   9.5993  11.2018

     occupation numbers 
     1.0000   1.0000   1.0000   1.0000   1.0000   1.0000   1.0000   1.0000
     1.0000   1.0000   1.0000   1.0000   1.0000   1.0000   1.0000   1.0000
     1.0000  -0.0000  -0.0000  -0.0000  -0.0000

          k =-1.4974-0.6440-0.0677 ( 12172 PWs)   bands (ev):

   -49.8291 -26.1946 -25.8225 -25.7686 -11.1655  -8.9992  -8.9412  -0.0934
     1.2276   1.2967   1.7546   1.7781   2.3688   3.0297   3.5150   3.8706
     6.9663   8.8544   9.0538   9.1767  11.3103

     occupation numbers 
     1.0000   1.0000   1.0000   1.0000   1.0000   1.0000   1.0000   1.0000
     1.0000   1.0000   1.0000   1.0000   1.0000   1.0000   1.0000   1.0000
    -0.0031  -0.0000  -0.0000  -0.0000  -0.0000

          k =-1.2479-0.4293-0.0677 ( 12169 PWs)   bands (ev):

   -49.8252 -26.1243 -25.8999 -25.7574 -11.6391  -9.0037  -8.7690   0.9808
     1.1500   1.1988   1.3877   2.1671   2.7621   2.9144   3.7142   3.8461
     7.9288   7.9606   8.1833   9.2899  10.7439

     occupation numbers 
     1.0000   1.0000   1.0000   1.0000   1.0000   1.0000   1.0000   1.0000
     1.0000   1.0000   1.0000   1.0000   1.0000   1.0000   1.0000   1.0000
    -0.0000  -0.0000  -0.0000  -0.0000  -0.0000

          k =-0.9983-0.2147-0.0677 ( 12179 PWs)   bands (ev):

   -49.8242 -26.0571 -25.9334 -25.7540 -12.0788  -8.9707  -8.7703   0.7203
     1.2616   1.7172   2.0567   2.6920   2.8936   3.3673   3.8210   3.9307
     7.0297   7.1220   8.4350   9.7414  10.2327

     occupation numbers 
     1.0000   1.0000   1.0000   1.0000   1.0000   1.0000   1.0000   1.0000
     1.0000   1.0000   1.0000   1.0000   1.0000   1.0000   1.0000   1.0000
    -0.0000  -0.0000  -0.0000  -0.0000  -0.0000

          k =-0.7487 0.0000-0.0677 ( 12188 PWs)   bands (ev):

   -49.8268 -26.0325 -25.9035 -25.7606 -12.2728  -8.9681  -8.8979   1.0780
     1.5379   1.8231   2.0333   3.2100   3.3593   3.6117   3.6721   3.6904
     6.8015   6.8255   7.8062   9.7080  10.0536

     occupation numbers 
     1.0000   1.0000   1.0000   1.0000   1.0000   1.0000   1.0000   1.0000
     1.0000   1.0000   1.0000   1.0000   1.0000   1.0000   1.0000   1.0000
     0.6349   0.3408  -0.0000  -0.0000  -0.0000

          k = 0.0000 0.4293 0.0000 ( 12139 PWs)   bands (ev):

   -49.8376 -26.1405 -25.7901 -25.7168 -11.7346  -9.4312  -8.8446   0.7309
     1.1129   1.3884   2.5229   2.9111   3.3687   3.3950   3.8852   4.0411
     5.5790   8.4380   8.5389   8.7059  10.2294

     occupation numbers 
     1.0000   1.0000   1.0000   1.0000   1.0000   1.0000   1.0000   1.0000
     1.0000   1.0000   1.0000   1.0000   1.0000   1.0000   1.0000   1.0000
     1.0000  -0.0000  -0.0000  -0.0000  -0.0000

          k = 0.2496 0.6440 0.0000 ( 12153 PWs)   bands (ev):

   -49.8343 -26.2017 -25.7821 -25.7465 -11.2027  -9.2674  -8.8780  -0.1195
     1.0562   1.0622   2.1002   2.2276   3.1492   3.2011   3.5027   3.9378
     6.0572   8.7550   9.2447   9.2483  11.0183

     occupation numbers 
     1.0000   1.0000   1.0000   1.0000   1.0000   1.0000   1.0000   1.0000
     1.0000   1.0000   1.0000   1.0000   1.0000   1.0000   1.0000   1.0000
     1.0000  -0.0000  -0.0000  -0.0000  -0.0000

          k = 0.4991 0.8586 0.0000 ( 12181 PWs)   bands (ev):

   -49.8287 -26.2205 -25.8215 -25.7676 -10.9319  -8.9936  -8.9230  -0.5878
     1.1699   1.2327   1.7445   1.7807   2.1644   2.9708   3.5898   3.7342
     6.9361   8.9660   9.4042   9.5287  11.4570

     occupation numbers 
     1.0000   1.0000   1.0000   1.0000   1.0000   1.0000   1.0000   1.0000
     1.0000   1.0000   1.0000   1.0000   1.0000   1.0000   1.0000   1.0000
    -0.0138  -0.0000  -0.0000  -0.0000  -0.0000

          k =-1.2479-0.6440 0.0000 ( 12181 PWs)   bands (ev):

   -49.8240 -26.1874 -25.8974 -25.7551 -11.1291  -8.9508  -8.7639  -0.0628
     0.9098   1.1744   1.2581   1.9519   2.5437   2.6090   3.5071   3.7731
     7.9413   8.8541   9.0693   9.3660  11.1309

     occupation numbers 
     1.0000   1.0000   1.0000   1.0000   1.0000   1.0000   1.0000   1.0000
     1.0000   1.0000   1.0000   1.0000   1.0000   1.0000   1.0000   1.0000
    -0.0000  -0.0000  -0.0000  -0.0000  -0.0000

          k =-0.9983-0.4293 0.0000 ( 12173 PWs)   bands (ev):

   -49.8230 -26.1215 -25.9307 -25.7517 -11.6231  -8.9423  -8.7391   0.7796
     1.2206   1.2511   1.3635   2.0244   2.6668   2.7338   3.5784   4.0368
     7.8449   8.1227   8.4591   9.7551  10.8809

     occupation numbers 
     1.0000   1.0000   1.0000   1.0000   1.0000   1.0000   1.0000   1.0000
     1.0000   1.0000   1.0000   1.0000   1.0000   1.0000   1.0000   1.0000
    -0.0000  -0.0000  -0.0000  -0.0000  -0.0000

          k =-0.7487-0.2147 0.0000 ( 12171 PWs)   bands (ev):

   -49.8263 -26.0597 -25.9025 -25.7597 -12.0959  -8.9367  -8.9049   1.1178
     1.6337   1.6838   2.0068   2.5845   2.7264   3.1001   3.8500   4.0130
     7.0981   7.2351   7.8378   9.7176  10.5043

     occupation numbers 
     1.0000   1.0000   1.0000   1.0000   1.0000   1.0000   1.0000   1.0000
     1.0000   1.0000   1.0000   1.0000   1.0000   1.0000   1.0000   1.0000
    -0.0000  -0.0000  -0.0000  -0.0000  -0.0000

          k =-0.4991 0.0000 0.0000 ( 12159 PWs)   bands (ev):

   -49.8320 -26.0386 -25.8282 -25.7743 -12.3143  -9.2164  -8.8633   1.1944
     1.8891   2.1485   2.4034   3.1024   3.2593   3.4350   3.7589   3.9259
     6.7582   6.9652   7.0888   9.1811  10.1441

     occupation numbers 
     1.0000   1.0000   1.0000   1.0000   1.0000   1.0000   1.0000   1.0000
     1.0000   1.0000   1.0000   1.0000   1.0000   1.0000   1.0000   1.0000
     0.9895  -0.0034  -0.0000  -0.0000  -0.0000

          k = 0.9983 0.8586 0.2708 ( 12188 PWs)   bands (ev):

   -49.8214 -26.2101 -25.9270 -25.7485 -10.8821  -8.9015  -8.6941  -0.5512
     0.6400   0.8917   1.8057   1.8909   1.9078   2.5914   3.1828   3.9342
     8.4656   9.1887   9.3999   9.7052  11.3676

     occupation numbers 
     1.0000   1.0000   1.0000   1.0000   1.0000   1.0000   1.0000   1.0000
     1.0000   1.0000   1.0000   1.0000   1.0000   1.0000   1.0000   1.0000
    -0.0000  -0.0000  -0.0000  -0.0000  -0.0000

          k = 0.0000 0.0000 0.2708 ( 12121 PWs)   bands (ev):

   -49.8393 -26.0472 -25.7935 -25.7198 -12.3720  -9.4326  -8.9414   0.9127
     2.5511   2.5793   2.8129   3.1770   3.4078   3.5803   4.0346   4.1665
     5.5433   7.2184   7.4606   8.8178   9.6905

     occupation numbers 
     1.0000   1.0000   1.0000   1.0000   1.0000   1.0000   1.0000   1.0000
     1.0000   1.0000   1.0000   1.0000   1.0000   1.0000   1.0000   1.0000
     1.0000  -0.0000  -0.0000  -0.0000  -0.0000

          k = 0.0000-0.2147 0.3385 ( 12164 PWs)   bands (ev):

   -49.8388 -26.0748 -25.7926 -25.7189 -12.1934  -9.3644  -8.9929   1.0676
     2.1595   2.4323   2.5993   2.7736   3.2556   3.4553   3.9902   4.0876
     5.5626   7.6424   7.7343   8.8840  10.1516

     occupation numbers 
     1.0000   1.0000   1.0000   1.0000   1.0000   1.0000   1.0000   1.0000
     1.0000   1.0000   1.0000   1.0000   1.0000   1.0000   1.0000   1.0000
     1.0000  -0.0000  -0.0000  -0.0000  -0.0000

          k = 0.2496 0.0000 0.3385 ( 12138 PWs)   bands (ev):

   -49.8372 -26.0447 -25.7879 -25.7518 -12.3546  -9.3235  -8.9721   1.1432
     2.1079   2.5776   2.8458   2.9610   3.3166   3.6557   3.9118   3.9292
     6.0340   7.0898   7.4002   8.7098   9.9476

     occupation numbers 
     1.0000   1.0000   1.0000   1.0000   1.0000   1.0000   1.0000   1.0000
     1.0000   1.0000   1.0000   1.0000   1.0000   1.0000   1.0000   1.0000
     1.0000  -0.0000  -0.0000  -0.0000  -0.0000

          k =-1.9966-0.4293-0.1354 ( 12189 PWs)   bands (ev):

   -49.8376 -26.1405 -25.7902 -25.7168 -11.7328  -9.2638  -9.0393   0.9855
     1.2745   1.6929   2.3267   2.6438   2.8984   3.1203   3.8378   4.3115
     5.6073   8.4269   8.5363   8.9198  10.7410

     occupation numbers 
     1.0000   1.0000   1.0000   1.0000   1.0000   1.0000   1.0000   1.0000
     1.0000   1.0000   1.0000   1.0000   1.0000   1.0000   1.0000   1.0000
     1.0000  -0.0000  -0.0000  -0.0000  -0.0000

          k =-1.7470-0.2147-0.1354 ( 12147 PWs)   bands (ev):

   -49.8367 -26.0722 -25.7870 -25.7509 -12.1763  -9.2587  -9.0166   1.2842
     1.9215   2.3533   2.4558   2.7757   3.0843   3.3920   3.6997   4.1404
     6.0641   7.5081   7.6725   8.7484  10.3619

     occupation numbers 
     1.0000   1.0000   1.0000   1.0000   1.0000   1.0000   1.0000   1.0000
     1.0000   1.0000   1.0000   1.0000   1.0000   1.0000   1.0000   1.0000
     1.0000  -0.0000  -0.0000  -0.0000  -0.0000

          k =-1.4974 0.0000-0.1354 ( 12156 PWs)   bands (ev):

   -49.8320 -26.0386 -25.8282 -25.7744 -12.3133  -9.1669  -8.9144   1.1755
     1.5850   2.0910   2.6140   2.9450   3.5768   3.6357   3.7970   3.8958
     6.8468   6.9317   7.1199   8.7491   9.9412

     occupation numbers 
     1.0000   1.0000   1.0000   1.0000   1.0000   1.0000   1.0000   1.0000
     1.0000   1.0000   1.0000   1.0000   1.0000   1.0000   1.0000   1.0000
     0.1271  -0.0163  -0.0000  -0.0000  -0.0000

          k = 0.0000 1.0733-0.0677 ( 12170 PWs)   bands (ev):

   -49.8364 -26.2047 -25.7877 -25.7147 -11.2163  -9.2130  -9.0323  -0.1346
     1.0099   1.2546   2.3724   2.5653   2.6558   2.8977   3.8311   4.2952
     5.6445   8.9032   9.2249   9.3622  10.9452

     occupation numbers 
     1.0000   1.0000   1.0000   1.0000   1.0000   1.0000   1.0000   1.0000
     1.0000   1.0000   1.0000   1.0000   1.0000   1.0000   1.0000   1.0000
     1.0000  -0.0000  -0.0000  -0.0000  -0.0000

          k =-1.7470-0.4293-0.0677 ( 12175 PWs)   bands (ev):

   -49.8355 -26.1377 -25.7846 -25.7487 -11.7166  -9.1597  -9.0580   1.0371
     1.4382   1.6990   1.9086   2.4807   2.9666   3.2238   3.3350   4.3036
     6.1005   8.3601   8.4133   8.8149  10.9403

     occupation numbers 
     1.0000   1.0000   1.0000   1.0000   1.0000   1.0000   1.0000   1.0000
     1.0000   1.0000   1.0000   1.0000   1.0000   1.0000   1.0000   1.0000
     1.0000  -0.0000  -0.0000  -0.0000  -0.0000

          k =-1.4974-0.2147-0.0677 ( 12154 PWs)   bands (ev):

   -49.8315 -26.0660 -25.8272 -25.7734 -12.1358  -9.1362  -8.9210   1.2141
     1.5260   1.9763   2.4458   2.5481   3.1177   3.3089   3.7219   4.1303
     6.9653   7.2444   7.4616   8.7322  10.3155

     occupation numbers 
     1.0000   1.0000   1.0000   1.0000   1.0000   1.0000   1.0000   1.0000
     1.0000   1.0000   1.0000   1.0000   1.0000   1.0000   1.0000   1.0000
    -0.0033  -0.0000  -0.0000  -0.0000  -0.0000

          k =-1.2479 0.0000-0.0677 ( 12165 PWs)   bands (ev):

   -49.8268 -26.0325 -25.9035 -25.7607 -12.2723  -9.0666  -8.7882   0.8960
     1.0355   2.0156   2.3833   3.1038   3.5687   3.6476   3.8301   3.9019
     6.7090   6.7624   7.9279   9.2046   9.7327

     occupation numbers 
     1.0000   1.0000   1.0000   1.0000   1.0000   1.0000   1.0000   1.0000
     1.0000   1.0000   1.0000   1.0000   1.0000   1.0000   1.0000   1.0000
     1.0267   0.9720  -0.0000  -0.0000  -0.0000

          k = 0.0000 0.8586 0.0000 ( 12151 PWs)   bands (ev):

   -49.8359 -26.2308 -25.7867 -25.7139 -10.9803  -9.2684  -8.9477  -0.6240
     0.8458   1.0056   2.4400   2.6283   2.7269   2.7860   3.8916   4.1810
     5.6516   8.8442   9.5981   9.7012  10.8752

     occupation numbers 
     1.0000   1.0000   1.0000   1.0000   1.0000   1.0000   1.0000   1.0000
     1.0000   1.0000   1.0000   1.0000   1.0000   1.0000   1.0000   1.0000
     1.0000  -0.0000  -0.0000  -0.0000  -0.0000

          k = 0.2496 1.0733 0.0000 ( 12164 PWs)   bands (ev):

   -49.8343 -26.2017 -25.7821 -25.7465 -11.2015  -9.1287  -9.0293  -0.1228
     1.1502   1.3034   2.0002   2.1466   3.0128   3.1083   3.2326   4.2049
     6.1144   8.7533   9.2469   9.2554  11.1928

     occupation numbers 
     1.0000   1.0000   1.0000   1.0000   1.0000   1.0000   1.0000   1.0000
     1.0000   1.0000   1.0000   1.0000   1.0000   1.0000   1.0000   1.0000
     1.0000  -0.0000  -0.0000  -0.0000  -0.0000

          k =-1.4974-0.4293 0.0000 ( 12157 PWs)   bands (ev):

   -49.8303 -26.1310 -25.8248 -25.7710 -11.6779  -9.0721  -8.9264   1.0892
     1.2621   1.5918   1.7561   2.0244   2.7032   3.1154   3.5666   4.0754
     6.9811   8.1611   8.2884   8.8028  10.9226

     occupation numbers 
     1.0000   1.0000   1.0000   1.0000   1.0000   1.0000   1.0000   1.0000
     1.0000   1.0000   1.0000   1.0000   1.0000   1.0000   1.0000   1.0000
    -0.0013  -0.0000  -0.0000  -0.0000  -0.0000

          k =-1.2479-0.2147 0.0000 ( 12169 PWs)   bands (ev):

   -49.8263 -26.0597 -25.9025 -25.7597 -12.0954  -9.0514  -8.7790   0.9263
     1.0509   1.7841   2.3460   2.6423   3.0577   3.4153   3.8279   3.9417
     7.0640   7.2200   7.9444   9.2101  10.1091

     occupation numbers 
     1.0000   1.0000   1.0000   1.0000   1.0000   1.0000   1.0000   1.0000
     1.0000   1.0000   1.0000   1.0000   1.0000   1.0000   1.0000   1.0000
    -0.0000  -0.0000  -0.0000  -0.0000  -0.0000

          k =-0.9983 0.0000 0.0000 ( 12191 PWs)   bands (ev):

   -49.8247 -26.0300 -25.9344 -25.7550 -12.2555  -8.9823  -8.7830   0.6987
     1.2062   1.9214   2.0976   3.3067   3.4181   3.5364   3.7243   3.9203
     6.6223   6.7323   8.4234   9.7605   9.7863

     occupation numbers 
     1.0000   1.0000   1.0000   1.0000   1.0000   1.0000   1.0000   1.0000
     1.0000   1.0000   1.0000   1.0000   1.0000   1.0000   1.0000   1.0000
     1.0003   1.0351  -0.0000  -0.0000  -0.0000

          k = 0.0000 0.0000 0.4061 ( 12117 PWs)   bands (ev):

   -49.8393 -26.0472 -25.7936 -25.7198 -12.3712  -9.3336  -9.0553   1.2306
     2.3100   2.6293   2.7915   3.3080   3.3495   3.4057   3.8834   4.0915
     5.5521   7.2188   7.5306   8.9419   9.8717

     occupation numbers 
     1.0000   1.0000   1.0000   1.0000   1.0000   1.0000   1.0000   1.0000
     1.0000   1.0000   1.0000   1.0000   1.0000   1.0000   1.0000   1.0000
     1.0000  -0.0000  -0.0000  -0.0000  -0.0000

          k =-1.9966-0.2147-0.0677 ( 12164 PWs)   bands (ev):

   -49.8388 -26.0748 -25.7926 -25.7189 -12.1928  -9.2568  -9.1111   1.3441
     2.1525   2.4121   2.4898   2.6600   3.2253   3.3879   3.9219   4.0900
     5.5708   7.6422   7.7696   8.9718  10.3094

     occupation numbers 
     1.0000   1.0000   1.0000   1.0000   1.0000   1.0000   1.0000   1.0000
     1.0000   1.0000   1.0000   1.0000   1.0000   1.0000   1.0000   1.0000
     1.0000  -0.0000  -0.0000  -0.0000  -0.0000

          k =-1.7470 0.0000-0.0677 ( 12142 PWs)   bands (ev):

   -49.8372 -26.0447 -25.7880 -25.7518 -12.3540  -9.2419  -9.0615   1.4383
     1.8050   2.6749   2.8247   2.8623   3.4423   3.6548   3.8058   3.8453
     6.0696   7.0813   7.4346   8.7468   9.9729

     occupation numbers 
     1.0000   1.0000   1.0000   1.0000   1.0000   1.0000   1.0000   1.0000
     1.0000   1.0000   1.0000   1.0000   1.0000   1.0000   1.0000   1.0000
     1.0000  -0.0000  -0.0000  -0.0000  -0.0000

          k = 0.0000 1.2879 0.0000 ( 12185 PWs)   bands (ev):

   -49.8376 -26.1405 -25.7902 -25.7168 -11.7325  -9.1638  -9.1439   1.0072
     1.4255   1.6466   2.2626   2.6700   2.8939   2.9756   3.8006   4.3656
     5.6116   8.4342   8.5363   8.9560  10.8176

     occupation numbers 
     1.0000   1.0000   1.0000   1.0000   1.0000   1.0000   1.0000   1.0000
     1.0000   1.0000   1.0000   1.0000   1.0000   1.0000   1.0000   1.0000
     1.0000  -0.0000  -0.0000  -0.0000  -0.0000

          k =-1.7470-0.2147 0.0000 ( 12152 PWs)   bands (ev):

   -49.8367 -26.0722 -25.7870 -25.7509 -12.1760  -9.1958  -9.0835   1.5010
     1.7109   2.4041   2.4266   2.7831   3.0739   3.3564   3.6610   4.1461
     6.0840   7.5063   7.6792   8.7704  10.3844

     occupation numbers 
     1.0000   1.0000   1.0000   1.0000   1.0000   1.0000   1.0000   1.0000
     1.0000   1.0000   1.0000   1.0000   1.0000   1.0000   1.0000   1.0000
     1.0000  -0.0000  -0.0000  -0.0000  -0.0000

          k =-1.4974 0.0000 0.0000 ( 12179 PWs)   bands (ev):

   -49.8320 -26.0386 -25.8282 -25.7744 -12.3131  -9.1562  -8.9254   1.1975
     1.4954   2.1172   2.6307   2.9300   3.6781   3.6840   3.7102   3.9057
     6.8305   6.9700   7.1213   8.6815   9.8967

     occupation numbers 
     1.0000   1.0000   1.0000   1.0000   1.0000   1.0000   1.0000   1.0000
     1.0000   1.0000   1.0000   1.0000   1.0000   1.0000   1.0000   1.0000
     0.2846  -0.0025  -0.0000  -0.0000  -0.0000

          k =-1.9966-1.7173-0.5415 ( 12132 PWs)   bands (ev):

   -49.8393 -26.0472 -25.7936 -25.7198 -12.3709  -9.2476  -9.1474   1.4519
     2.0929   2.6680   2.7845   3.3178   3.3546   3.3826   3.7991   4.0625
     5.5526   7.2190   7.5593   8.9933   9.9376

     occupation numbers 
     1.0000   1.0000   1.0000   1.0000   1.0000   1.0000   1.0000   1.0000
     1.0000   1.0000   1.0000   1.0000   1.0000   1.0000   1.0000   1.0000
     1.0000  -0.0000  -0.0000  -0.0000  -0.0000

     the Fermi energy is     6.8125 ev

!    total energy              =    -534.96649180 Ry

     total all-electron energy =     -9636.856734 Ry
     estimated scf accuracy    <          2.5E-12 Ry
     smearing contrib. (-TS)   =      -0.00001841 Ry
     internal energy E=F+TS    =    -534.96647340 Ry

     The total energy is F=E-TS. E is the sum of the following terms:
     one-electron contribution =     -93.95756127 Ry
     hartree contribution      =      61.22506610 Ry
     xc contribution           =     -39.53454774 Ry
     ewald contribution        =    -135.48921389 Ry
     one-center paw contrib.   =    -327.21021659 Ry
      -> PAW hartree energy AE =      29.07242211 Ry
      -> PAW hartree energy PS =     -29.04236360 Ry
      -> PAW xc energy AE      =     -17.03511574 Ry
      -> PAW xc energy PS      =       7.41097920 Ry
      -> total E_H with PAW    =      61.25512460 Ry
      -> total E_XC with PAW   =     -49.15868428 Ry

     convergence has been achieved in  13 iterations

     Forces acting on atoms (cartesian axes, Ry/au):

     atom    1 type  1   force =     0.00000000    0.00000000    0.00000000
     atom    2 type  2   force =     0.00000000    0.00000000    0.03673007
     atom    3 type  2   force =     0.00000000    0.00000000   -0.03673007
     atom    4 type  3   force =     0.00000000    0.00000000    0.00000000
     The non-local contrib.  to forces
     atom    1 type  1   force =    -0.00000000   -0.00000000    0.00000000
     atom    2 type  2   force =     0.00000000    0.00000000    0.06283666
     atom    3 type  2   force =     0.00000000    0.00000000   -0.06283666
     atom    4 type  3   force =    -0.00000000   -0.00000000    0.00000000
     The ionic contribution  to forces
     atom    1 type  1   force =    -0.00000000   -0.00000000    0.00000000
     atom    2 type  2   force =     0.00000001    0.00000000  -10.07462875
     atom    3 type  2   force =    -0.00000001   -0.00000000   10.07462875
     atom    4 type  3   force =    -0.00000000   -0.00000000    0.00000000
     The local contribution  to forces
     atom    1 type  1   force =     0.00000000    0.00000000    0.00000000
     atom    2 type  2   force =     0.00000002   -0.00000003   10.04696641
     atom    3 type  2   force =    -0.00000002    0.00000003  -10.04696641
     atom    4 type  3   force =     0.00000000    0.00000000    0.00000000
     The core correction contribution to forces
     atom    1 type  1   force =     0.00000000    0.00000000    0.00000000
     atom    2 type  2   force =    -0.00000000    0.00000000    0.00155398
     atom    3 type  2   force =     0.00000000   -0.00000000   -0.00155398
     atom    4 type  3   force =     0.00000000    0.00000000    0.00000000
     The Hubbard contrib.    to forces
     atom    1 type  1   force =     0.00000000    0.00000000    0.00000000
     atom    2 type  2   force =     0.00000000    0.00000000    0.00000000
     atom    3 type  2   force =     0.00000000    0.00000000    0.00000000
     atom    4 type  3   force =     0.00000000    0.00000000    0.00000000
     The SCF correction term to forces
     atom    1 type  1   force =    -0.00000000   -0.00000000   -0.00000000
     atom    2 type  2   force =     0.00000000   -0.00000000    0.00000177
     atom    3 type  2   force =    -0.00000000    0.00000000   -0.00000177
     atom    4 type  3   force =    -0.00000000   -0.00000000   -0.00000000

     Total force =     0.051944     Total SCF correction =     0.000002


     Computing stress (Cartesian axis) and pressure

          total   stress  (Ry/bohr**3)                   (kbar)     P=      -39.35
  -0.00026449   0.00000000   0.00000000          -38.91        0.00        0.00
  -0.00000000  -0.00026270  -0.00000000           -0.00      -38.64       -0.00
  -0.00000000  -0.00000000  -0.00027521           -0.00       -0.00      -40.48

     kinetic stress (kbar)  14739.51     -0.00      0.00
                                0.00  14854.18      0.00
                               -0.00      0.00  14756.71

     local   stress (kbar) -18872.59     -0.00      0.00
                               -0.00 -24260.73      0.00
                                0.00      0.00   4126.05

     nonloc. stress (kbar)   8011.42      0.00      0.00
                               -0.00   7930.71     -0.00
                               -0.00      0.00   8005.14

     hartree stress (kbar)   8368.23     -0.00     -0.00
                               -0.00  10129.10      0.00
                               -0.00      0.00  -2060.03

     exc-cor stress (kbar)  -1131.10      0.00     -0.00
                                0.00  -1121.05     -0.00
                               -0.00     -0.00  -1130.54

     corecor stress (kbar)  -2029.26     -0.00      0.00
                               -0.00  -2029.41      0.00
                                0.00      0.00  -2029.12

     ewald   stress (kbar)  -9125.13      0.00     -0.00
                                0.00  -5541.44     -0.00
                               -0.00     -0.00 -21708.70

     hubbard stress (kbar)      0.00      0.00      0.00
                                0.00      0.00      0.00
                                0.00      0.00      0.00

     DFT-D   stress (kbar)      0.00      0.00      0.00
                                0.00      0.00      0.00
                                0.00      0.00      0.00

     XDM     stress (kbar)      0.00      0.00      0.00
                                0.00      0.00      0.00
                                0.00      0.00      0.00

     dft-nl  stress (kbar)      0.00      0.00      0.00
                                0.00      0.00      0.00
                                0.00      0.00      0.00

     TS-vdW  stress (kbar)      0.00      0.00      0.00
                                0.00      0.00      0.00
                                0.00      0.00      0.00



     Writing output data file /zfs_data/gutierre/Scratch/Cl2NbO/smearing/8x8x8/0.005/tmp/Cl2NbO.save/
 
     init_run     :      3.00s CPU      3.11s WALL (       1 calls)
     electrons    :     63.77s CPU     65.62s WALL (       1 calls)
     forces       :      0.75s CPU      0.78s WALL (       1 calls)
     stress       :      1.72s CPU      1.78s WALL (       1 calls)

     Called by init_run:
     wfcinit      :      1.81s CPU      1.88s WALL (       1 calls)
     wfcinit:atom :      0.01s CPU      0.02s WALL (      95 calls)
     wfcinit:wfcr :      1.74s CPU      1.79s WALL (      95 calls)
     potinit      :      0.36s CPU      0.38s WALL (       1 calls)
     hinit0       :      0.47s CPU      0.48s WALL (       1 calls)

     Called by electrons:
     c_bands      :     49.27s CPU     50.69s WALL (      13 calls)
     sum_band     :     11.30s CPU     11.62s WALL (      13 calls)
     v_of_rho     :      1.25s CPU      1.30s WALL (      14 calls)
     v_h          :      0.10s CPU      0.10s WALL (      14 calls)
     v_xc         :      1.31s CPU      1.36s WALL (      16 calls)
     newd         :      1.08s CPU      1.09s WALL (      14 calls)
     PAW_pot      :      0.73s CPU      0.74s WALL (      14 calls)
     mix_rho      :      0.18s CPU      0.19s WALL (      13 calls)

     Called by c_bands:
     init_us_2    :      0.66s CPU      0.71s WALL (    2755 calls)
     cegterg      :     47.85s CPU     49.18s WALL (    1235 calls)

     Called by sum_band:
     sum_band:wei :      0.03s CPU      0.04s WALL (      13 calls)
     sum_band:loo :     10.06s CPU     10.33s WALL (      13 calls)
     sum_band:buf :      0.09s CPU      0.10s WALL (    1235 calls)
     sum_band:ini :      0.32s CPU      0.33s WALL (    1235 calls)
     sum_band:cal :      0.33s CPU      0.34s WALL (    1235 calls)
     sum_band:bec :      0.04s CPU      0.04s WALL (    1235 calls)
     addusdens    :      1.05s CPU      1.09s WALL (      13 calls)
     addusd:skk   :      0.01s CPU      0.01s WALL (      39 calls)
     addusd:dgemm :      0.32s CPU      0.35s WALL (      39 calls)
     addusd:qvan2 :      0.68s CPU      0.69s WALL (      39 calls)

     Called by *egterg:
     cdiaghg      :      2.60s CPU      2.79s WALL (    4532 calls)
     cegterg:over :      0.92s CPU      0.94s WALL (    3297 calls)
     cegterg:upda :      0.29s CPU      0.30s WALL (    3297 calls)
     cegterg:last :      0.46s CPU      0.47s WALL (    2434 calls)
     h_psi        :     44.03s CPU     45.16s WALL (    4627 calls)
     s_psi        :      0.31s CPU      0.32s WALL (    4627 calls)
     g_psi        :      0.06s CPU      0.06s WALL (    3297 calls)

     Called by h_psi:
     h_psi:calbec :      1.08s CPU      1.10s WALL (    4627 calls)
     vloc_psi     :     42.30s CPU     43.39s WALL (    4627 calls)
     add_vuspsi   :      0.49s CPU      0.50s WALL (    4627 calls)

     General routines
     calbec       :      1.45s CPU      1.48s WALL (    6337 calls)
     fft          :      1.07s CPU      1.08s WALL (     205 calls)
     ffts         :      0.02s CPU      0.02s WALL (      27 calls)
     fftw         :     46.37s CPU     47.63s WALL (  157247 calls)
     interpolate  :      0.10s CPU      0.10s WALL (      14 calls)
 
     Parallel routines
     fft_scatt_xy :      6.22s CPU      6.34s WALL (  157479 calls)
     fft_scatt_yz :     20.57s CPU     21.17s WALL (  157479 calls)

     PAW routines
     PAW_pot      :      0.73s CPU      0.74s WALL (      14 calls)
     PAW_symme    :      0.01s CPU      0.01s WALL (      27 calls)
 
     PWSCF        :   1m10.09s CPU   1m13.20s WALL

 
   This run was terminated on:  17:51:45  18May2022            

=------------------------------------------------------------------------------=
   JOB DONE.
=------------------------------------------------------------------------------=
