
     Program PWSCF v.6.7MaX starts on 18May2022 at 17:37:33 

     This program is part of the open-source Quantum ESPRESSO suite
     for quantum simulation of materials; please cite
         "P. Giannozzi et al., J. Phys.:Condens. Matter 21 395502 (2009);
         "P. Giannozzi et al., J. Phys.:Condens. Matter 29 465901 (2017);
          URL http://www.quantum-espresso.org", 
     in publications or presentations arising from this work. More details at
     http://www.quantum-espresso.org/quote

     Parallel version (MPI), running on    48 processors

     MPI processes distributed on     1 nodes
     R & G space division:  proc/nbgrp/npool/nimage =      48
     Waiting for input...
     Reading input from standard input

     Current dimensions of program PWSCF are:
     Max number of different atomic species (ntypx) = 10
     Max number of k-points (npk) =  40000
     Max angular momentum in pseudopotentials (lmaxx) =  3
     file O.pbe-nl-kjpaw_psl.1.0.0.UPF: wavefunction(s)  2S 2P renormalized
     file Cl.pbe-nl-kjpaw_psl.1.0.0.UPF: wavefunction(s)  3S renormalized
     file Nb.pbe-spn-kjpaw_psl.1.0.0.UPF: wavefunction(s)  4S 4P 4D renormalized

     Subspace diagonalization in iterative solution of the eigenvalue problem:
     a serial algorithm will be used

     Message from routine setup:
     using ibrav=0 with symmetry is DISCOURAGED, use correct ibrav instead
 
     Parallelization info
     --------------------
     sticks:   dense  smooth     PW     G-vecs:    dense   smooth      PW
     Min         226      90     28                 8011     2025     357
     Max         227      91     29                 8013     2026     359
     Sum       10861    4353   1363               384583    97215   17183
 


     bravais-lattice index     =            0
     lattice parameter (alat)  =      12.6717  a.u.
     unit-cell volume          =     547.9313 (a.u.)^3
     number of atoms/cell      =            4
     number of atomic types    =            3
     number of electrons       =        33.00
     number of Kohn-Sham states=           21
     kinetic-energy cutoff     =     120.0000  Ry
     charge density cutoff     =    1200.0000  Ry
     scf convergence threshold =      1.0E-10
     mixing beta               =       0.7000
     number of iterations used =            8  plain     mixing
     Exchange-correlation= SLA  PW   PBX  PBC
                           (   1   4   3   4   0   0   0)

     celldm(1)=  12.671676  celldm(2)=   0.000000  celldm(3)=   0.000000
     celldm(4)=   0.000000  celldm(5)=   0.000000  celldm(6)=   0.000000

     crystal axes: (cart. coord. in units of alat)
               a(1) = (  -0.250426   0.291161   0.923316 )  
               a(2) = (   0.250426  -0.291161   0.923316 )  
               a(3) = (   0.250426   0.291161  -0.923316 )  

     reciprocal axes: (cart. coord. in units 2 pi/alat)
               b(1) = (  0.000000  1.717261  0.541527 )  
               b(2) = (  1.996594  0.000000  0.541527 )  
               b(3) = (  1.996594  1.717261  0.000000 )  


     PseudoPot. # 1 for O  read from file:
     /zfs_data/gutierre/Scratch/Cl2NbO/smearing/12x12x12/0.010/pseudo/O.pbe-nl-kjpaw_psl.1.0.0.UPF
     MD5 check sum: df3ddea38124b4e5de5e1084591730e4
     Pseudo is Projector augmented-wave + core cor, Zval =  6.0
     Generated using 'atomic' code by A. Dal Corso  v.6.7MaX
     Shape of augmentation charge: PSQ
     Using radial grid of 1095 points,  4 beta functions with: 
                l(1) =   0
                l(2) =   0
                l(3) =   1
                l(4) =   1
     Q(r) pseudized with 0 coefficients 


     PseudoPot. # 2 for Cl read from file:
     /zfs_data/gutierre/Scratch/Cl2NbO/smearing/12x12x12/0.010/pseudo/Cl.pbe-nl-kjpaw_psl.1.0.0.UPF
     MD5 check sum: 8cf6bde52c08f6236e0f72a8870677af
     Pseudo is Projector augmented-wave + core cor, Zval =  7.0
     Generated using 'atomic' code by A. Dal Corso  v.6.7MaX
     Shape of augmentation charge: PSQ
     Using radial grid of 1157 points,  4 beta functions with: 
                l(1) =   0
                l(2) =   0
                l(3) =   1
                l(4) =   1
     Q(r) pseudized with 0 coefficients 


     PseudoPot. # 3 for Nb read from file:
     /zfs_data/gutierre/Scratch/Cl2NbO/smearing/12x12x12/0.010/pseudo/Nb.pbe-spn-kjpaw_psl.1.0.0.UPF
     MD5 check sum: 1ec1a3aa7bf3cbf7f7e0d720422bce7a
     Pseudo is Projector augmented-wave + core cor, Zval = 13.0
     Generated using 'atomic' code by A. Dal Corso  v.6.7MaX
     Shape of augmentation charge: PSQ
     Using radial grid of 1227 points,  6 beta functions with: 
                l(1) =   0
                l(2) =   0
                l(3) =   1
                l(4) =   1
                l(5) =   2
                l(6) =   2
     Q(r) pseudized with 0 coefficients 


     atomic species   valence    mass     pseudopotential
        O              6.00    15.99940     O ( 1.00)
        Cl             7.00    35.45150     Cl( 1.00)
        Nb            13.00    92.90637     Nb( 1.00)

      8 Sym. Ops., with inversion, found


                                    s                        frac. trans.

      isym =  1     identity                                     

 cryst.   s( 1) = (     1          0          0      )
                  (     0          1          0      )
                  (     0          0          1      )

 cart.    s( 1) = (  1.0000000  0.0000000  0.0000000 )
                  (  0.0000000  1.0000000  0.0000000 )
                  (  0.0000000  0.0000000  1.0000000 )


      isym =  2     180 deg rotation - cart. axis [0,0,1]        

 cryst.   s( 2) = (     0          1          0      )
                  (     1          0          0      )
                  (    -1         -1         -1      )

 cart.    s( 2) = ( -1.0000000  0.0000000  0.0000000 )
                  (  0.0000000 -1.0000000  0.0000000 )
                  (  0.0000000  0.0000000  1.0000000 )


      isym =  3     180 deg rotation - cart. axis [0,1,0]        

 cryst.   s( 3) = (     0          0          1      )
                  (    -1         -1         -1      )
                  (     1          0          0      )

 cart.    s( 3) = ( -1.0000000  0.0000000  0.0000000 )
                  (  0.0000000  1.0000000  0.0000000 )
                  (  0.0000000  0.0000000 -1.0000000 )


      isym =  4     180 deg rotation - cart. axis [1,0,0]        

 cryst.   s( 4) = (    -1         -1         -1      )
                  (     0          0          1      )
                  (     0          1          0      )

 cart.    s( 4) = (  1.0000000  0.0000000  0.0000000 )
                  (  0.0000000 -1.0000000  0.0000000 )
                  (  0.0000000  0.0000000 -1.0000000 )


      isym =  5     inversion                                    

 cryst.   s( 5) = (    -1          0          0      )
                  (     0         -1          0      )
                  (     0          0         -1      )

 cart.    s( 5) = ( -1.0000000  0.0000000  0.0000000 )
                  (  0.0000000 -1.0000000  0.0000000 )
                  (  0.0000000  0.0000000 -1.0000000 )


      isym =  6     inv. 180 deg rotation - cart. axis [0,0,1]   

 cryst.   s( 6) = (     0         -1          0      )
                  (    -1          0          0      )
                  (     1          1          1      )

 cart.    s( 6) = (  1.0000000  0.0000000  0.0000000 )
                  (  0.0000000  1.0000000  0.0000000 )
                  (  0.0000000  0.0000000 -1.0000000 )


      isym =  7     inv. 180 deg rotation - cart. axis [0,1,0]   

 cryst.   s( 7) = (     0          0         -1      )
                  (     1          1          1      )
                  (    -1          0          0      )

 cart.    s( 7) = (  1.0000000  0.0000000  0.0000000 )
                  (  0.0000000 -1.0000000  0.0000000 )
                  (  0.0000000  0.0000000  1.0000000 )


      isym =  8     inv. 180 deg rotation - cart. axis [1,0,0]   

 cryst.   s( 8) = (     1          1          1      )
                  (     0          0         -1      )
                  (     0         -1          0      )

 cart.    s( 8) = ( -1.0000000  0.0000000  0.0000000 )
                  (  0.0000000  1.0000000  0.0000000 )
                  (  0.0000000  0.0000000  1.0000000 )


   Cartesian axes

     site n.     atom                  positions (alat units)
         1           O   tau(   1) = (   0.0000000   0.2911613   0.0000000  )
         2           Cl  tau(   2) = (  -0.0000000   0.2911613   0.6365338  )
         3           Cl  tau(   3) = (   0.2504264  -0.0000000   0.2867819  )
         4           Nb  tau(   4) = (   0.0000000   0.0000000   0.0000000  )

   Crystallographic axes

     site n.     atom                  positions (cryst. coord.)
         1           O   tau(   1) = (  0.5000000  0.0000000  0.5000000  )
         2           Cl  tau(   2) = (  0.8447000  0.3447000  0.5000000  )
         3           Cl  tau(   3) = (  0.1553000  0.6553000  0.5000000  )
         4           Nb  tau(   4) = (  0.0000000  0.0000000  0.0000000  )

     number of k points=   280  Methfessel-Paxton smearing, width (Ry)=  0.0100
                       cart. coord. in units 2pi/alat
        k(    1) = (   0.0000000   0.0000000   0.0000000), wk =   0.0011574
        k(    2) = (   0.1663829   0.1431051   0.0000000), wk =   0.0046296
        k(    3) = (   0.3327657   0.2862102   0.0000000), wk =   0.0046296
        k(    4) = (   0.4991486   0.4293153   0.0000000), wk =   0.0046296
        k(    5) = (   0.6655314   0.5724204   0.0000000), wk =   0.0046296
        k(    6) = (   0.8319143   0.7155256   0.0000000), wk =   0.0046296
        k(    7) = (  -0.9982971  -0.8586307   0.0000000), wk =   0.0023148
        k(    8) = (   0.1663829   0.0000000   0.0451272), wk =   0.0046296
        k(    9) = (   0.3327657   0.1431051   0.0451272), wk =   0.0092593
        k(   10) = (   0.4991486   0.2862102   0.0451272), wk =   0.0092593
        k(   11) = (   0.6655314   0.4293153   0.0451272), wk =   0.0092593
        k(   12) = (   0.8319143   0.5724204   0.0451272), wk =   0.0092593
        k(   13) = (   0.9982971   0.7155256   0.0451272), wk =   0.0092593
        k(   14) = (  -0.8319143  -0.8586307   0.0451272), wk =   0.0092593
        k(   15) = (  -0.6655314  -0.7155256   0.0451272), wk =   0.0092593
        k(   16) = (  -0.4991486  -0.5724204   0.0451272), wk =   0.0092593
        k(   17) = (  -0.3327657  -0.4293153   0.0451272), wk =   0.0092593
        k(   18) = (  -0.1663829  -0.2862102   0.0451272), wk =   0.0092593
        k(   19) = (  -0.0000000  -0.1431051   0.0451272), wk =   0.0046296
        k(   20) = (   0.3327657   0.0000000   0.0902544), wk =   0.0046296
        k(   21) = (   0.4991486   0.1431051   0.0902544), wk =   0.0092593
        k(   22) = (   0.6655314   0.2862102   0.0902544), wk =   0.0092593
        k(   23) = (   0.8319143   0.4293153   0.0902544), wk =   0.0092593
        k(   24) = (   0.9982971   0.5724204   0.0902544), wk =   0.0092593
        k(   25) = (   1.1646800   0.7155256   0.0902544), wk =   0.0092593
        k(   26) = (  -0.6655314  -0.8586307   0.0902544), wk =   0.0092593
        k(   27) = (  -0.4991486  -0.7155256   0.0902544), wk =   0.0092593
        k(   28) = (  -0.3327657  -0.5724204   0.0902544), wk =   0.0092593
        k(   29) = (  -0.1663829  -0.4293153   0.0902544), wk =   0.0092593
        k(   30) = (   0.0000000  -0.2862102   0.0902544), wk =   0.0046296
        k(   31) = (   0.1663829  -0.1431051   0.0902544), wk =   0.0092593
        k(   32) = (   0.4991486   0.0000000   0.1353817), wk =   0.0046296
        k(   33) = (   0.6655314   0.1431051   0.1353817), wk =   0.0092593
        k(   34) = (   0.8319143   0.2862102   0.1353817), wk =   0.0092593
        k(   35) = (   0.9982971   0.4293153   0.1353817), wk =   0.0092593
        k(   36) = (   1.1646800   0.5724204   0.1353817), wk =   0.0092593
        k(   37) = (   1.3310629   0.7155256   0.1353817), wk =   0.0092593
        k(   38) = (  -0.4991486  -0.8586307   0.1353817), wk =   0.0092593
        k(   39) = (  -0.3327657  -0.7155256   0.1353817), wk =   0.0092593
        k(   40) = (  -0.1663829  -0.5724204   0.1353817), wk =   0.0092593
        k(   41) = (   0.0000000  -0.4293153   0.1353817), wk =   0.0046296
        k(   42) = (   0.1663829  -0.2862102   0.1353817), wk =   0.0092593
        k(   43) = (   0.3327657  -0.1431051   0.1353817), wk =   0.0092593
        k(   44) = (   0.6655314   0.0000000   0.1805089), wk =   0.0046296
        k(   45) = (   0.8319143   0.1431051   0.1805089), wk =   0.0092593
        k(   46) = (   0.9982971   0.2862102   0.1805089), wk =   0.0092593
        k(   47) = (   1.1646800   0.4293153   0.1805089), wk =   0.0092593
        k(   48) = (   1.3310629   0.5724204   0.1805089), wk =   0.0092593
        k(   49) = (   1.4974457   0.7155256   0.1805089), wk =   0.0092593
        k(   50) = (  -0.3327657  -0.8586307   0.1805089), wk =   0.0092593
        k(   51) = (  -0.1663829  -0.7155256   0.1805089), wk =   0.0092593
        k(   52) = (  -0.0000000  -0.5724204   0.1805089), wk =   0.0046296
        k(   53) = (   0.1663829  -0.4293153   0.1805089), wk =   0.0092593
        k(   54) = (   0.3327657  -0.2862102   0.1805089), wk =   0.0092593
        k(   55) = (   0.4991486  -0.1431051   0.1805089), wk =   0.0092593
        k(   56) = (   0.8319143   0.0000000   0.2256361), wk =   0.0046296
        k(   57) = (   0.9982971   0.1431051   0.2256361), wk =   0.0092593
        k(   58) = (   1.1646800   0.2862102   0.2256361), wk =   0.0092593
        k(   59) = (   1.3310629   0.4293153   0.2256361), wk =   0.0092593
        k(   60) = (   1.4974457   0.5724204   0.2256361), wk =   0.0092593
        k(   61) = (   1.6638286   0.7155256   0.2256361), wk =   0.0092593
        k(   62) = (  -0.1663829  -0.8586307   0.2256361), wk =   0.0092593
        k(   63) = (   0.0000000  -0.7155256   0.2256361), wk =   0.0046296
        k(   64) = (   0.1663829  -0.5724204   0.2256361), wk =   0.0092593
        k(   65) = (   0.3327657  -0.4293153   0.2256361), wk =   0.0092593
        k(   66) = (   0.4991486  -0.2862102   0.2256361), wk =   0.0092593
        k(   67) = (   0.6655314  -0.1431051   0.2256361), wk =   0.0092593
        k(   68) = (  -0.9982971   0.0000000  -0.2707633), wk =   0.0023148
        k(   69) = (  -0.8319143   0.1431051  -0.2707633), wk =   0.0092593
        k(   70) = (  -0.6655314   0.2862102  -0.2707633), wk =   0.0092593
        k(   71) = (  -0.4991486   0.4293153  -0.2707633), wk =   0.0092593
        k(   72) = (  -0.3327657   0.5724204  -0.2707633), wk =   0.0092593
        k(   73) = (  -0.1663829   0.7155256  -0.2707633), wk =   0.0092593
        k(   74) = (  -1.9965943  -0.8586307  -0.2707633), wk =   0.0023148
        k(   75) = (   0.3327657   0.2862102   0.0902544), wk =   0.0092593
        k(   76) = (   0.4991486   0.4293153   0.0902544), wk =   0.0092593
        k(   77) = (   0.6655314   0.5724204   0.0902544), wk =   0.0092593
        k(   78) = (   0.8319143   0.7155256   0.0902544), wk =   0.0092593
        k(   79) = (   0.9982971   0.8586307   0.0902544), wk =   0.0046296
        k(   80) = (  -0.0000000  -0.0000000   0.0902544), wk =   0.0023148
        k(   81) = (   0.4991486   0.2862102   0.1353817), wk =   0.0092593
        k(   82) = (   0.6655314   0.4293153   0.1353817), wk =   0.0092593
        k(   83) = (   0.8319143   0.5724204   0.1353817), wk =   0.0092593
        k(   84) = (   0.9982971   0.7155256   0.1353817), wk =   0.0092593
        k(   85) = (   1.1646800   0.8586307   0.1353817), wk =   0.0092593
        k(   86) = (  -0.6655314  -0.7155256   0.1353817), wk =   0.0092593
        k(   87) = (  -0.4991486  -0.5724204   0.1353817), wk =   0.0092593
        k(   88) = (  -0.3327657  -0.4293153   0.1353817), wk =   0.0092593
        k(   89) = (   0.0000000  -0.1431051   0.1353817), wk =   0.0046296
        k(   90) = (   0.1663829  -0.0000000   0.1353817), wk =   0.0046296
        k(   91) = (   0.6655314   0.2862102   0.1805089), wk =   0.0092593
        k(   92) = (   0.8319143   0.4293153   0.1805089), wk =   0.0092593
        k(   93) = (   0.9982971   0.5724204   0.1805089), wk =   0.0092593
        k(   94) = (   1.1646800   0.7155256   0.1805089), wk =   0.0092593
        k(   95) = (   1.3310629   0.8586307   0.1805089), wk =   0.0092593
        k(   96) = (  -0.4991486  -0.7155256   0.1805089), wk =   0.0092593
        k(   97) = (  -0.3327657  -0.5724204   0.1805089), wk =   0.0092593
        k(   98) = (   0.0000000  -0.2862102   0.1805089), wk =   0.0046296
        k(   99) = (   0.1663829  -0.1431051   0.1805089), wk =   0.0092593
        k(  100) = (   0.3327657  -0.0000000   0.1805089), wk =   0.0046296
        k(  101) = (   0.8319143   0.2862102   0.2256361), wk =   0.0092593
        k(  102) = (   0.9982971   0.4293153   0.2256361), wk =   0.0092593
        k(  103) = (   1.1646800   0.5724204   0.2256361), wk =   0.0092593
        k(  104) = (   1.3310629   0.7155256   0.2256361), wk =   0.0092593
        k(  105) = (   1.4974457   0.8586307   0.2256361), wk =   0.0092593
        k(  106) = (  -0.3327657  -0.7155256   0.2256361), wk =   0.0092593
        k(  107) = (  -0.0000000  -0.4293153   0.2256361), wk =   0.0046296
        k(  108) = (   0.1663829  -0.2862102   0.2256361), wk =   0.0092593
        k(  109) = (   0.3327657  -0.1431051   0.2256361), wk =   0.0092593
        k(  110) = (   0.4991486  -0.0000000   0.2256361), wk =   0.0046296
        k(  111) = (   0.9982971   0.2862102   0.2707633), wk =   0.0046296
        k(  112) = (   1.1646800   0.4293153   0.2707633), wk =   0.0092593
        k(  113) = (   1.3310629   0.5724204   0.2707633), wk =   0.0092593
        k(  114) = (   1.4974457   0.7155256   0.2707633), wk =   0.0092593
        k(  115) = (   1.6638286   0.8586307   0.2707633), wk =   0.0046296
        k(  116) = (   0.0000000  -0.5724204   0.2707633), wk =   0.0046296
        k(  117) = (   0.1663829  -0.4293153   0.2707633), wk =   0.0092593
        k(  118) = (   0.3327657  -0.2862102   0.2707633), wk =   0.0092593
        k(  119) = (   0.4991486  -0.1431051   0.2707633), wk =   0.0092593
        k(  120) = (   0.6655314  -0.0000000   0.2707633), wk =   0.0046296
        k(  121) = (  -0.6655314   0.4293153  -0.2256361), wk =   0.0092593
        k(  122) = (  -0.4991486   0.5724204  -0.2256361), wk =   0.0092593
        k(  123) = (  -1.9965943  -0.7155256  -0.2256361), wk =   0.0046296
        k(  124) = (  -1.8302114  -0.5724204  -0.2256361), wk =   0.0092593
        k(  125) = (  -1.6638286  -0.4293153  -0.2256361), wk =   0.0092593
        k(  126) = (  -1.4974457  -0.2862102  -0.2256361), wk =   0.0092593
        k(  127) = (  -1.3310629  -0.1431051  -0.2256361), wk =   0.0092593
        k(  128) = (  -1.1646800  -0.0000000  -0.2256361), wk =   0.0046296
        k(  129) = (  -0.4991486   0.4293153  -0.1805089), wk =   0.0092593
        k(  130) = (   0.0000000   0.8586307  -0.1805089), wk =   0.0046296
        k(  131) = (  -1.8302114  -0.7155256  -0.1805089), wk =   0.0092593
        k(  132) = (  -1.6638286  -0.5724204  -0.1805089), wk =   0.0092593
        k(  133) = (  -1.4974457  -0.4293153  -0.1805089), wk =   0.0092593
        k(  134) = (  -1.3310629  -0.2862102  -0.1805089), wk =   0.0092593
        k(  135) = (  -1.1646800  -0.1431051  -0.1805089), wk =   0.0092593
        k(  136) = (  -0.9982971  -0.0000000  -0.1805089), wk =   0.0046296
        k(  137) = (  -0.0000000   0.7155256  -0.1353817), wk =   0.0046296
        k(  138) = (   0.1663829   0.8586307  -0.1353817), wk =   0.0092593
        k(  139) = (  -1.6638286  -0.7155256  -0.1353817), wk =   0.0092593
        k(  140) = (  -1.4974457  -0.5724204  -0.1353817), wk =   0.0092593
        k(  141) = (  -1.3310629  -0.4293153  -0.1353817), wk =   0.0092593
        k(  142) = (  -1.1646800  -0.2862102  -0.1353817), wk =   0.0092593
        k(  143) = (  -0.9982971  -0.1431051  -0.1353817), wk =   0.0092593
        k(  144) = (  -0.8319143  -0.0000000  -0.1353817), wk =   0.0046296
        k(  145) = (   0.0000000   0.5724204  -0.0902544), wk =   0.0046296
        k(  146) = (   0.1663829   0.7155256  -0.0902544), wk =   0.0092593
        k(  147) = (   0.3327657   0.8586307  -0.0902544), wk =   0.0092593
        k(  148) = (  -1.4974457  -0.7155256  -0.0902544), wk =   0.0092593
        k(  149) = (  -1.3310629  -0.5724204  -0.0902544), wk =   0.0092593
        k(  150) = (  -1.1646800  -0.4293153  -0.0902544), wk =   0.0092593
        k(  151) = (  -0.9982971  -0.2862102  -0.0902544), wk =   0.0092593
        k(  152) = (  -0.8319143  -0.1431051  -0.0902544), wk =   0.0092593
        k(  153) = (  -0.6655314  -0.0000000  -0.0902544), wk =   0.0046296
        k(  154) = (   0.0000000   0.4293153  -0.0451272), wk =   0.0046296
        k(  155) = (   0.1663829   0.5724204  -0.0451272), wk =   0.0092593
        k(  156) = (   0.3327657   0.7155256  -0.0451272), wk =   0.0092593
        k(  157) = (   0.4991486   0.8586307  -0.0451272), wk =   0.0092593
        k(  158) = (  -1.3310629  -0.7155256  -0.0451272), wk =   0.0092593
        k(  159) = (  -1.1646800  -0.5724204  -0.0451272), wk =   0.0092593
        k(  160) = (  -0.9982971  -0.4293153  -0.0451272), wk =   0.0092593
        k(  161) = (  -0.8319143  -0.2862102  -0.0451272), wk =   0.0092593
        k(  162) = (  -0.6655314  -0.1431051  -0.0451272), wk =   0.0092593
        k(  163) = (  -0.4991486  -0.0000000  -0.0451272), wk =   0.0046296
        k(  164) = (  -0.0000000   0.2862102  -0.0000000), wk =   0.0023148
        k(  165) = (   0.1663829   0.4293153  -0.0000000), wk =   0.0046296
        k(  166) = (   0.3327657   0.5724204  -0.0000000), wk =   0.0046296
        k(  167) = (   0.4991486   0.7155256  -0.0000000), wk =   0.0046296
        k(  168) = (   0.6655314   0.8586307  -0.0000000), wk =   0.0046296
        k(  169) = (  -1.1646800  -0.7155256  -0.0000000), wk =   0.0046296
        k(  170) = (  -0.9982971  -0.5724204  -0.0000000), wk =   0.0046296
        k(  171) = (  -0.8319143  -0.4293153  -0.0000000), wk =   0.0046296
        k(  172) = (  -0.6655314  -0.2862102  -0.0000000), wk =   0.0046296
        k(  173) = (  -0.4991486  -0.1431051  -0.0000000), wk =   0.0046296
        k(  174) = (  -0.3327657  -0.0000000  -0.0000000), wk =   0.0023148
        k(  175) = (   0.6655314   0.5724204   0.1805089), wk =   0.0092593
        k(  176) = (   0.8319143   0.7155256   0.1805089), wk =   0.0092593
        k(  177) = (   0.9982971   0.8586307   0.1805089), wk =   0.0046296
        k(  178) = (   0.0000000   0.0000000   0.1805089), wk =   0.0023148
        k(  179) = (   0.8319143   0.5724204   0.2256361), wk =   0.0092593
        k(  180) = (   0.9982971   0.7155256   0.2256361), wk =   0.0092593
        k(  181) = (   1.1646800   0.8586307   0.2256361), wk =   0.0092593
        k(  182) = (   1.3310629   1.0017358   0.2256361), wk =   0.0092593
        k(  183) = (   0.0000000  -0.1431051   0.2256361), wk =   0.0046296
        k(  184) = (   0.1663829   0.0000000   0.2256361), wk =   0.0046296
        k(  185) = (   0.9982971   0.5724204   0.2707633), wk =   0.0046296
        k(  186) = (   1.1646800   0.7155256   0.2707633), wk =   0.0092593
        k(  187) = (   1.3310629   0.8586307   0.2707633), wk =   0.0046296
        k(  188) = (  -0.0000000  -0.2862102   0.2707633), wk =   0.0046296
        k(  189) = (   0.1663829  -0.1431051   0.2707633), wk =   0.0092593
        k(  190) = (   0.3327657   0.0000000   0.2707633), wk =   0.0046296
        k(  191) = (   0.0000000  -0.4293153   0.3158905), wk =   0.0046296
        k(  192) = (   0.1663829  -0.2862102   0.3158905), wk =   0.0092593
        k(  193) = (   0.3327657  -0.1431051   0.3158905), wk =   0.0092593
        k(  194) = (   0.4991486   0.0000000   0.3158905), wk =   0.0046296
        k(  195) = (  -1.9965943  -0.5724204  -0.1805089), wk =   0.0046296
        k(  196) = (  -1.8302114  -0.4293153  -0.1805089), wk =   0.0092593
        k(  197) = (  -1.6638286  -0.2862102  -0.1805089), wk =   0.0092593
        k(  198) = (  -1.4974457  -0.1431051  -0.1805089), wk =   0.0092593
        k(  199) = (  -1.3310629   0.0000000  -0.1805089), wk =   0.0046296
        k(  200) = (   0.0000000   1.0017358  -0.1353817), wk =   0.0046296
        k(  201) = (  -1.8302114  -0.5724204  -0.1353817), wk =   0.0092593
        k(  202) = (  -1.6638286  -0.4293153  -0.1353817), wk =   0.0092593
        k(  203) = (  -1.4974457  -0.2862102  -0.1353817), wk =   0.0092593
        k(  204) = (  -1.3310629  -0.1431051  -0.1353817), wk =   0.0092593
        k(  205) = (  -1.1646800   0.0000000  -0.1353817), wk =   0.0046296
        k(  206) = (  -0.0000000   0.8586307  -0.0902544), wk =   0.0046296
        k(  207) = (   0.1663829   1.0017358  -0.0902544), wk =   0.0092593
        k(  208) = (  -1.6638286  -0.5724204  -0.0902544), wk =   0.0092593
        k(  209) = (  -1.4974457  -0.4293153  -0.0902544), wk =   0.0092593
        k(  210) = (  -1.3310629  -0.2862102  -0.0902544), wk =   0.0092593
        k(  211) = (  -1.1646800  -0.1431051  -0.0902544), wk =   0.0092593
        k(  212) = (  -0.9982971   0.0000000  -0.0902544), wk =   0.0046296
        k(  213) = (   0.0000000   0.7155256  -0.0451272), wk =   0.0046296
        k(  214) = (   0.1663829   0.8586307  -0.0451272), wk =   0.0092593
        k(  215) = (   0.3327657   1.0017358  -0.0451272), wk =   0.0092593
        k(  216) = (  -1.4974457  -0.5724204  -0.0451272), wk =   0.0092593
        k(  217) = (  -1.3310629  -0.4293153  -0.0451272), wk =   0.0092593
        k(  218) = (  -1.1646800  -0.2862102  -0.0451272), wk =   0.0092593
        k(  219) = (  -0.9982971  -0.1431051  -0.0451272), wk =   0.0092593
        k(  220) = (  -0.8319143   0.0000000  -0.0451272), wk =   0.0046296
        k(  221) = (   0.0000000   0.5724204   0.0000000), wk =   0.0023148
        k(  222) = (   0.1663829   0.7155256   0.0000000), wk =   0.0046296
        k(  223) = (   0.3327657   0.8586307   0.0000000), wk =   0.0046296
        k(  224) = (   0.4991486   1.0017358   0.0000000), wk =   0.0046296
        k(  225) = (  -1.3310629  -0.5724204   0.0000000), wk =   0.0046296
        k(  226) = (  -1.1646800  -0.4293153   0.0000000), wk =   0.0046296
        k(  227) = (  -0.9982971  -0.2862102   0.0000000), wk =   0.0046296
        k(  228) = (  -0.8319143  -0.1431051   0.0000000), wk =   0.0046296
        k(  229) = (  -0.6655314   0.0000000   0.0000000), wk =   0.0023148
        k(  230) = (   0.9982971   0.8586307   0.2707633), wk =   0.0023148
        k(  231) = (   0.0000000   0.0000000   0.2707633), wk =   0.0023148
        k(  232) = (  -0.0000000  -0.1431051   0.3158905), wk =   0.0046296
        k(  233) = (   0.1663829   0.0000000   0.3158905), wk =   0.0046296
        k(  234) = (   0.0000000  -0.2862102   0.3610178), wk =   0.0046296
        k(  235) = (   0.1663829  -0.1431051   0.3610178), wk =   0.0092593
        k(  236) = (   0.3327657   0.0000000   0.3610178), wk =   0.0046296
        k(  237) = (  -1.9965943  -0.4293153  -0.1353817), wk =   0.0046296
        k(  238) = (  -1.8302114  -0.2862102  -0.1353817), wk =   0.0092593
        k(  239) = (  -1.6638286  -0.1431051  -0.1353817), wk =   0.0092593
        k(  240) = (  -1.4974457   0.0000000  -0.1353817), wk =   0.0046296
        k(  241) = (   0.0000000   1.1448409  -0.0902544), wk =   0.0046296
        k(  242) = (  -1.8302114  -0.4293153  -0.0902544), wk =   0.0092593
        k(  243) = (  -1.6638286  -0.2862102  -0.0902544), wk =   0.0092593
        k(  244) = (  -1.4974457  -0.1431051  -0.0902544), wk =   0.0092593
        k(  245) = (  -1.3310629   0.0000000  -0.0902544), wk =   0.0046296
        k(  246) = (  -0.0000000   1.0017358  -0.0451272), wk =   0.0046296
        k(  247) = (   0.1663829   1.1448409  -0.0451272), wk =   0.0092593
        k(  248) = (  -1.6638286  -0.4293153  -0.0451272), wk =   0.0092593
        k(  249) = (  -1.4974457  -0.2862102  -0.0451272), wk =   0.0092593
        k(  250) = (  -1.3310629  -0.1431051  -0.0451272), wk =   0.0092593
        k(  251) = (  -1.1646800   0.0000000  -0.0451272), wk =   0.0046296
        k(  252) = (   0.0000000   0.8586307   0.0000000), wk =   0.0023148
        k(  253) = (   0.1663829   1.0017358   0.0000000), wk =   0.0046296
        k(  254) = (   0.3327657   1.1448409   0.0000000), wk =   0.0046296
        k(  255) = (  -1.4974457  -0.4293153   0.0000000), wk =   0.0046296
        k(  256) = (  -1.3310629  -0.2862102   0.0000000), wk =   0.0046296
        k(  257) = (  -1.1646800  -0.1431051   0.0000000), wk =   0.0046296
        k(  258) = (  -0.9982971   0.0000000   0.0000000), wk =   0.0023148
        k(  259) = (  -0.0000000  -0.0000000   0.3610178), wk =   0.0023148
        k(  260) = (   0.0000000  -0.1431051   0.4061450), wk =   0.0046296
        k(  261) = (   0.1663829  -0.0000000   0.4061450), wk =   0.0046296
        k(  262) = (  -1.9965943  -0.2862102  -0.0902544), wk =   0.0046296
        k(  263) = (  -1.8302114  -0.1431051  -0.0902544), wk =   0.0092593
        k(  264) = (  -1.6638286  -0.0000000  -0.0902544), wk =   0.0046296
        k(  265) = (   0.0000000   1.2879460  -0.0451272), wk =   0.0046296
        k(  266) = (  -1.8302114  -0.2862102  -0.0451272), wk =   0.0092593
        k(  267) = (  -1.6638286  -0.1431051  -0.0451272), wk =   0.0092593
        k(  268) = (  -1.4974457  -0.0000000  -0.0451272), wk =   0.0046296
        k(  269) = (  -0.0000000   1.1448409  -0.0000000), wk =   0.0023148
        k(  270) = (   0.1663829   1.2879460  -0.0000000), wk =   0.0046296
        k(  271) = (  -1.6638286  -0.2862102  -0.0000000), wk =   0.0046296
        k(  272) = (  -1.4974457  -0.1431051  -0.0000000), wk =   0.0046296
        k(  273) = (  -1.3310629  -0.0000000  -0.0000000), wk =   0.0023148
        k(  274) = (   0.0000000   0.0000000   0.4512722), wk =   0.0023148
        k(  275) = (  -1.9965943  -0.1431051  -0.0451272), wk =   0.0046296
        k(  276) = (  -1.8302114   0.0000000  -0.0451272), wk =   0.0046296
        k(  277) = (   0.0000000   1.4310511   0.0000000), wk =   0.0023148
        k(  278) = (  -1.8302114  -0.1431051   0.0000000), wk =   0.0046296
        k(  279) = (  -1.6638286   0.0000000   0.0000000), wk =   0.0023148
        k(  280) = (  -1.9965943  -1.7172613  -0.5415266), wk =   0.0011574

                       cryst. coord.
        k(    1) = (   0.0000000   0.0000000   0.0000000), wk =   0.0011574
        k(    2) = (  -0.0000000   0.0000000   0.0833333), wk =   0.0046296
        k(    3) = (  -0.0000000   0.0000000   0.1666667), wk =   0.0046296
        k(    4) = (   0.0000000   0.0000000   0.2500000), wk =   0.0046296
        k(    5) = (  -0.0000000   0.0000000   0.3333333), wk =   0.0046296
        k(    6) = (  -0.0000000   0.0000000   0.4166667), wk =   0.0046296
        k(    7) = (   0.0000000   0.0000000  -0.5000000), wk =   0.0023148
        k(    8) = (   0.0000000   0.0833333  -0.0000000), wk =   0.0046296
        k(    9) = (   0.0000000   0.0833333   0.0833333), wk =   0.0092593
        k(   10) = (  -0.0000000   0.0833333   0.1666667), wk =   0.0092593
        k(   11) = (   0.0000000   0.0833333   0.2500000), wk =   0.0092593
        k(   12) = (  -0.0000000   0.0833333   0.3333333), wk =   0.0092593
        k(   13) = (  -0.0000000   0.0833333   0.4166667), wk =   0.0092593
        k(   14) = (   0.0000000   0.0833333  -0.5000000), wk =   0.0092593
        k(   15) = (   0.0000000   0.0833333  -0.4166667), wk =   0.0092593
        k(   16) = (   0.0000000   0.0833333  -0.3333333), wk =   0.0092593
        k(   17) = (   0.0000000   0.0833333  -0.2500000), wk =   0.0092593
        k(   18) = (   0.0000000   0.0833333  -0.1666667), wk =   0.0092593
        k(   19) = (   0.0000000   0.0833333  -0.0833333), wk =   0.0046296
        k(   20) = (   0.0000000   0.1666667  -0.0000000), wk =   0.0046296
        k(   21) = (   0.0000000   0.1666667   0.0833333), wk =   0.0092593
        k(   22) = (   0.0000000   0.1666667   0.1666667), wk =   0.0092593
        k(   23) = (   0.0000000   0.1666667   0.2500000), wk =   0.0092593
        k(   24) = (  -0.0000000   0.1666667   0.3333333), wk =   0.0092593
        k(   25) = (  -0.0000000   0.1666667   0.4166667), wk =   0.0092593
        k(   26) = (   0.0000000   0.1666667  -0.5000000), wk =   0.0092593
        k(   27) = (   0.0000000   0.1666667  -0.4166667), wk =   0.0092593
        k(   28) = (   0.0000000   0.1666667  -0.3333333), wk =   0.0092593
        k(   29) = (   0.0000000   0.1666667  -0.2500000), wk =   0.0092593
        k(   30) = (   0.0000000   0.1666667  -0.1666667), wk =   0.0046296
        k(   31) = (   0.0000000   0.1666667  -0.0833333), wk =   0.0092593
        k(   32) = (   0.0000000   0.2500000   0.0000000), wk =   0.0046296
        k(   33) = (   0.0000000   0.2500000   0.0833333), wk =   0.0092593
        k(   34) = (  -0.0000000   0.2500000   0.1666667), wk =   0.0092593
        k(   35) = (   0.0000000   0.2500000   0.2500000), wk =   0.0092593
        k(   36) = (   0.0000000   0.2500000   0.3333333), wk =   0.0092593
        k(   37) = (  -0.0000000   0.2500000   0.4166667), wk =   0.0092593
        k(   38) = (   0.0000000   0.2500000  -0.5000000), wk =   0.0092593
        k(   39) = (   0.0000000   0.2500000  -0.4166667), wk =   0.0092593
        k(   40) = (   0.0000000   0.2500000  -0.3333333), wk =   0.0092593
        k(   41) = (   0.0000000   0.2500000  -0.2500000), wk =   0.0046296
        k(   42) = (   0.0000000   0.2500000  -0.1666667), wk =   0.0092593
        k(   43) = (   0.0000000   0.2500000  -0.0833333), wk =   0.0092593
        k(   44) = (   0.0000000   0.3333333  -0.0000000), wk =   0.0046296
        k(   45) = (   0.0000000   0.3333333   0.0833333), wk =   0.0092593
        k(   46) = (   0.0000000   0.3333333   0.1666667), wk =   0.0092593
        k(   47) = (   0.0000000   0.3333333   0.2500000), wk =   0.0092593
        k(   48) = (   0.0000000   0.3333333   0.3333333), wk =   0.0092593
        k(   49) = (   0.0000000   0.3333333   0.4166667), wk =   0.0092593
        k(   50) = (   0.0000000   0.3333333  -0.5000000), wk =   0.0092593
        k(   51) = (   0.0000000   0.3333333  -0.4166667), wk =   0.0092593
        k(   52) = (   0.0000000   0.3333333  -0.3333333), wk =   0.0046296
        k(   53) = (   0.0000000   0.3333333  -0.2500000), wk =   0.0092593
        k(   54) = (   0.0000000   0.3333333  -0.1666667), wk =   0.0092593
        k(   55) = (   0.0000000   0.3333333  -0.0833333), wk =   0.0092593
        k(   56) = (  -0.0000000   0.4166667   0.0000000), wk =   0.0046296
        k(   57) = (   0.0000000   0.4166667   0.0833333), wk =   0.0092593
        k(   58) = (  -0.0000000   0.4166667   0.1666667), wk =   0.0092593
        k(   59) = (  -0.0000000   0.4166667   0.2500000), wk =   0.0092593
        k(   60) = (  -0.0000000   0.4166667   0.3333333), wk =   0.0092593
        k(   61) = (  -0.0000000   0.4166667   0.4166667), wk =   0.0092593
        k(   62) = (   0.0000000   0.4166667  -0.5000000), wk =   0.0092593
        k(   63) = (   0.0000000   0.4166667  -0.4166667), wk =   0.0046296
        k(   64) = (   0.0000000   0.4166667  -0.3333333), wk =   0.0092593
        k(   65) = (  -0.0000000   0.4166667  -0.2500000), wk =   0.0092593
        k(   66) = (  -0.0000000   0.4166667  -0.1666667), wk =   0.0092593
        k(   67) = (  -0.0000000   0.4166667  -0.0833333), wk =   0.0092593
        k(   68) = (   0.0000000  -0.5000000   0.0000000), wk =   0.0023148
        k(   69) = (   0.0000000  -0.5000000   0.0833333), wk =   0.0092593
        k(   70) = (   0.0000000  -0.5000000   0.1666667), wk =   0.0092593
        k(   71) = (   0.0000000  -0.5000000   0.2500000), wk =   0.0092593
        k(   72) = (   0.0000000  -0.5000000   0.3333333), wk =   0.0092593
        k(   73) = (  -0.0000000  -0.5000000   0.4166667), wk =   0.0092593
        k(   74) = (   0.0000000  -0.5000000  -0.5000000), wk =   0.0023148
        k(   75) = (   0.0833333   0.0833333   0.0833333), wk =   0.0092593
        k(   76) = (   0.0833333   0.0833333   0.1666667), wk =   0.0092593
        k(   77) = (   0.0833333   0.0833333   0.2500000), wk =   0.0092593
        k(   78) = (   0.0833333   0.0833333   0.3333333), wk =   0.0092593
        k(   79) = (   0.0833333   0.0833333   0.4166667), wk =   0.0046296
        k(   80) = (   0.0833333   0.0833333  -0.0833333), wk =   0.0023148
        k(   81) = (   0.0833333   0.1666667   0.0833333), wk =   0.0092593
        k(   82) = (   0.0833333   0.1666667   0.1666667), wk =   0.0092593
        k(   83) = (   0.0833333   0.1666667   0.2500000), wk =   0.0092593
        k(   84) = (   0.0833333   0.1666667   0.3333333), wk =   0.0092593
        k(   85) = (   0.0833333   0.1666667   0.4166667), wk =   0.0092593
        k(   86) = (   0.0833333   0.1666667  -0.5000000), wk =   0.0092593
        k(   87) = (   0.0833333   0.1666667  -0.4166667), wk =   0.0092593
        k(   88) = (   0.0833333   0.1666667  -0.3333333), wk =   0.0092593
        k(   89) = (   0.0833333   0.1666667  -0.1666667), wk =   0.0046296
        k(   90) = (   0.0833333   0.1666667  -0.0833333), wk =   0.0046296
        k(   91) = (   0.0833333   0.2500000   0.0833333), wk =   0.0092593
        k(   92) = (   0.0833333   0.2500000   0.1666667), wk =   0.0092593
        k(   93) = (   0.0833333   0.2500000   0.2500000), wk =   0.0092593
        k(   94) = (   0.0833333   0.2500000   0.3333333), wk =   0.0092593
        k(   95) = (   0.0833333   0.2500000   0.4166667), wk =   0.0092593
        k(   96) = (   0.0833333   0.2500000  -0.5000000), wk =   0.0092593
        k(   97) = (   0.0833333   0.2500000  -0.4166667), wk =   0.0092593
        k(   98) = (   0.0833333   0.2500000  -0.2500000), wk =   0.0046296
        k(   99) = (   0.0833333   0.2500000  -0.1666667), wk =   0.0092593
        k(  100) = (   0.0833333   0.2500000  -0.0833333), wk =   0.0046296
        k(  101) = (   0.0833333   0.3333333   0.0833333), wk =   0.0092593
        k(  102) = (   0.0833333   0.3333333   0.1666667), wk =   0.0092593
        k(  103) = (   0.0833333   0.3333333   0.2500000), wk =   0.0092593
        k(  104) = (   0.0833333   0.3333333   0.3333333), wk =   0.0092593
        k(  105) = (   0.0833333   0.3333333   0.4166667), wk =   0.0092593
        k(  106) = (   0.0833333   0.3333333  -0.5000000), wk =   0.0092593
        k(  107) = (   0.0833333   0.3333333  -0.3333333), wk =   0.0046296
        k(  108) = (   0.0833333   0.3333333  -0.2500000), wk =   0.0092593
        k(  109) = (   0.0833333   0.3333333  -0.1666667), wk =   0.0092593
        k(  110) = (   0.0833333   0.3333333  -0.0833333), wk =   0.0046296
        k(  111) = (   0.0833333   0.4166667   0.0833333), wk =   0.0046296
        k(  112) = (   0.0833333   0.4166667   0.1666667), wk =   0.0092593
        k(  113) = (   0.0833333   0.4166667   0.2500000), wk =   0.0092593
        k(  114) = (   0.0833333   0.4166667   0.3333333), wk =   0.0092593
        k(  115) = (   0.0833333   0.4166667   0.4166667), wk =   0.0046296
        k(  116) = (   0.0833333   0.4166667  -0.4166667), wk =   0.0046296
        k(  117) = (   0.0833333   0.4166667  -0.3333333), wk =   0.0092593
        k(  118) = (   0.0833333   0.4166667  -0.2500000), wk =   0.0092593
        k(  119) = (   0.0833333   0.4166667  -0.1666667), wk =   0.0092593
        k(  120) = (   0.0833333   0.4166667  -0.0833333), wk =   0.0046296
        k(  121) = (   0.0833333  -0.5000000   0.1666667), wk =   0.0092593
        k(  122) = (   0.0833333  -0.5000000   0.2500000), wk =   0.0092593
        k(  123) = (   0.0833333  -0.5000000  -0.5000000), wk =   0.0046296
        k(  124) = (   0.0833333  -0.5000000  -0.4166667), wk =   0.0092593
        k(  125) = (   0.0833333  -0.5000000  -0.3333333), wk =   0.0092593
        k(  126) = (   0.0833333  -0.5000000  -0.2500000), wk =   0.0092593
        k(  127) = (   0.0833333  -0.5000000  -0.1666667), wk =   0.0092593
        k(  128) = (   0.0833333  -0.5000000  -0.0833333), wk =   0.0046296
        k(  129) = (   0.0833333  -0.4166667   0.1666667), wk =   0.0092593
        k(  130) = (   0.0833333  -0.4166667   0.4166667), wk =   0.0046296
        k(  131) = (   0.0833333  -0.4166667  -0.5000000), wk =   0.0092593
        k(  132) = (   0.0833333  -0.4166667  -0.4166667), wk =   0.0092593
        k(  133) = (   0.0833333  -0.4166667  -0.3333333), wk =   0.0092593
        k(  134) = (   0.0833333  -0.4166667  -0.2500000), wk =   0.0092593
        k(  135) = (   0.0833333  -0.4166667  -0.1666667), wk =   0.0092593
        k(  136) = (   0.0833333  -0.4166667  -0.0833333), wk =   0.0046296
        k(  137) = (   0.0833333  -0.3333333   0.3333333), wk =   0.0046296
        k(  138) = (   0.0833333  -0.3333333   0.4166667), wk =   0.0092593
        k(  139) = (   0.0833333  -0.3333333  -0.5000000), wk =   0.0092593
        k(  140) = (   0.0833333  -0.3333333  -0.4166667), wk =   0.0092593
        k(  141) = (   0.0833333  -0.3333333  -0.3333333), wk =   0.0092593
        k(  142) = (   0.0833333  -0.3333333  -0.2500000), wk =   0.0092593
        k(  143) = (   0.0833333  -0.3333333  -0.1666667), wk =   0.0092593
        k(  144) = (   0.0833333  -0.3333333  -0.0833333), wk =   0.0046296
        k(  145) = (   0.0833333  -0.2500000   0.2500000), wk =   0.0046296
        k(  146) = (   0.0833333  -0.2500000   0.3333333), wk =   0.0092593
        k(  147) = (   0.0833333  -0.2500000   0.4166667), wk =   0.0092593
        k(  148) = (   0.0833333  -0.2500000  -0.5000000), wk =   0.0092593
        k(  149) = (   0.0833333  -0.2500000  -0.4166667), wk =   0.0092593
        k(  150) = (   0.0833333  -0.2500000  -0.3333333), wk =   0.0092593
        k(  151) = (   0.0833333  -0.2500000  -0.2500000), wk =   0.0092593
        k(  152) = (   0.0833333  -0.2500000  -0.1666667), wk =   0.0092593
        k(  153) = (   0.0833333  -0.2500000  -0.0833333), wk =   0.0046296
        k(  154) = (   0.0833333  -0.1666667   0.1666667), wk =   0.0046296
        k(  155) = (   0.0833333  -0.1666667   0.2500000), wk =   0.0092593
        k(  156) = (   0.0833333  -0.1666667   0.3333333), wk =   0.0092593
        k(  157) = (   0.0833333  -0.1666667   0.4166667), wk =   0.0092593
        k(  158) = (   0.0833333  -0.1666667  -0.5000000), wk =   0.0092593
        k(  159) = (   0.0833333  -0.1666667  -0.4166667), wk =   0.0092593
        k(  160) = (   0.0833333  -0.1666667  -0.3333333), wk =   0.0092593
        k(  161) = (   0.0833333  -0.1666667  -0.2500000), wk =   0.0092593
        k(  162) = (   0.0833333  -0.1666667  -0.1666667), wk =   0.0092593
        k(  163) = (   0.0833333  -0.1666667  -0.0833333), wk =   0.0046296
        k(  164) = (   0.0833333  -0.0833333   0.0833333), wk =   0.0023148
        k(  165) = (   0.0833333  -0.0833333   0.1666667), wk =   0.0046296
        k(  166) = (   0.0833333  -0.0833333   0.2500000), wk =   0.0046296
        k(  167) = (   0.0833333  -0.0833333   0.3333333), wk =   0.0046296
        k(  168) = (   0.0833333  -0.0833333   0.4166667), wk =   0.0046296
        k(  169) = (   0.0833333  -0.0833333  -0.5000000), wk =   0.0046296
        k(  170) = (   0.0833333  -0.0833333  -0.4166667), wk =   0.0046296
        k(  171) = (   0.0833333  -0.0833333  -0.3333333), wk =   0.0046296
        k(  172) = (   0.0833333  -0.0833333  -0.2500000), wk =   0.0046296
        k(  173) = (   0.0833333  -0.0833333  -0.1666667), wk =   0.0046296
        k(  174) = (   0.0833333  -0.0833333  -0.0833333), wk =   0.0023148
        k(  175) = (   0.1666667   0.1666667   0.1666667), wk =   0.0092593
        k(  176) = (   0.1666667   0.1666667   0.2500000), wk =   0.0092593
        k(  177) = (   0.1666667   0.1666667   0.3333333), wk =   0.0046296
        k(  178) = (   0.1666667   0.1666667  -0.1666667), wk =   0.0023148
        k(  179) = (   0.1666667   0.2500000   0.1666667), wk =   0.0092593
        k(  180) = (   0.1666667   0.2500000   0.2500000), wk =   0.0092593
        k(  181) = (   0.1666667   0.2500000   0.3333333), wk =   0.0092593
        k(  182) = (   0.1666667   0.2500000   0.4166667), wk =   0.0092593
        k(  183) = (   0.1666667   0.2500000  -0.2500000), wk =   0.0046296
        k(  184) = (   0.1666667   0.2500000  -0.1666667), wk =   0.0046296
        k(  185) = (   0.1666667   0.3333333   0.1666667), wk =   0.0046296
        k(  186) = (   0.1666667   0.3333333   0.2500000), wk =   0.0092593
        k(  187) = (   0.1666667   0.3333333   0.3333333), wk =   0.0046296
        k(  188) = (   0.1666667   0.3333333  -0.3333333), wk =   0.0046296
        k(  189) = (   0.1666667   0.3333333  -0.2500000), wk =   0.0092593
        k(  190) = (   0.1666667   0.3333333  -0.1666667), wk =   0.0046296
        k(  191) = (   0.1666667   0.4166667  -0.4166667), wk =   0.0046296
        k(  192) = (   0.1666667   0.4166667  -0.3333333), wk =   0.0092593
        k(  193) = (   0.1666667   0.4166667  -0.2500000), wk =   0.0092593
        k(  194) = (   0.1666667   0.4166667  -0.1666667), wk =   0.0046296
        k(  195) = (   0.1666667  -0.5000000  -0.5000000), wk =   0.0046296
        k(  196) = (   0.1666667  -0.5000000  -0.4166667), wk =   0.0092593
        k(  197) = (   0.1666667  -0.5000000  -0.3333333), wk =   0.0092593
        k(  198) = (   0.1666667  -0.5000000  -0.2500000), wk =   0.0092593
        k(  199) = (   0.1666667  -0.5000000  -0.1666667), wk =   0.0046296
        k(  200) = (   0.1666667  -0.4166667   0.4166667), wk =   0.0046296
        k(  201) = (   0.1666667  -0.4166667  -0.5000000), wk =   0.0092593
        k(  202) = (   0.1666667  -0.4166667  -0.4166667), wk =   0.0092593
        k(  203) = (   0.1666667  -0.4166667  -0.3333333), wk =   0.0092593
        k(  204) = (   0.1666667  -0.4166667  -0.2500000), wk =   0.0092593
        k(  205) = (   0.1666667  -0.4166667  -0.1666667), wk =   0.0046296
        k(  206) = (   0.1666667  -0.3333333   0.3333333), wk =   0.0046296
        k(  207) = (   0.1666667  -0.3333333   0.4166667), wk =   0.0092593
        k(  208) = (   0.1666667  -0.3333333  -0.5000000), wk =   0.0092593
        k(  209) = (   0.1666667  -0.3333333  -0.4166667), wk =   0.0092593
        k(  210) = (   0.1666667  -0.3333333  -0.3333333), wk =   0.0092593
        k(  211) = (   0.1666667  -0.3333333  -0.2500000), wk =   0.0092593
        k(  212) = (   0.1666667  -0.3333333  -0.1666667), wk =   0.0046296
        k(  213) = (   0.1666667  -0.2500000   0.2500000), wk =   0.0046296
        k(  214) = (   0.1666667  -0.2500000   0.3333333), wk =   0.0092593
        k(  215) = (   0.1666667  -0.2500000   0.4166667), wk =   0.0092593
        k(  216) = (   0.1666667  -0.2500000  -0.5000000), wk =   0.0092593
        k(  217) = (   0.1666667  -0.2500000  -0.4166667), wk =   0.0092593
        k(  218) = (   0.1666667  -0.2500000  -0.3333333), wk =   0.0092593
        k(  219) = (   0.1666667  -0.2500000  -0.2500000), wk =   0.0092593
        k(  220) = (   0.1666667  -0.2500000  -0.1666667), wk =   0.0046296
        k(  221) = (   0.1666667  -0.1666667   0.1666667), wk =   0.0023148
        k(  222) = (   0.1666667  -0.1666667   0.2500000), wk =   0.0046296
        k(  223) = (   0.1666667  -0.1666667   0.3333333), wk =   0.0046296
        k(  224) = (   0.1666667  -0.1666667   0.4166667), wk =   0.0046296
        k(  225) = (   0.1666667  -0.1666667  -0.5000000), wk =   0.0046296
        k(  226) = (   0.1666667  -0.1666667  -0.4166667), wk =   0.0046296
        k(  227) = (   0.1666667  -0.1666667  -0.3333333), wk =   0.0046296
        k(  228) = (   0.1666667  -0.1666667  -0.2500000), wk =   0.0046296
        k(  229) = (   0.1666667  -0.1666667  -0.1666667), wk =   0.0023148
        k(  230) = (   0.2500000   0.2500000   0.2500000), wk =   0.0023148
        k(  231) = (   0.2500000   0.2500000  -0.2500000), wk =   0.0023148
        k(  232) = (   0.2500000   0.3333333  -0.3333333), wk =   0.0046296
        k(  233) = (   0.2500000   0.3333333  -0.2500000), wk =   0.0046296
        k(  234) = (   0.2500000   0.4166667  -0.4166667), wk =   0.0046296
        k(  235) = (   0.2500000   0.4166667  -0.3333333), wk =   0.0092593
        k(  236) = (   0.2500000   0.4166667  -0.2500000), wk =   0.0046296
        k(  237) = (   0.2500000  -0.5000000  -0.5000000), wk =   0.0046296
        k(  238) = (   0.2500000  -0.5000000  -0.4166667), wk =   0.0092593
        k(  239) = (   0.2500000  -0.5000000  -0.3333333), wk =   0.0092593
        k(  240) = (   0.2500000  -0.5000000  -0.2500000), wk =   0.0046296
        k(  241) = (   0.2500000  -0.4166667   0.4166667), wk =   0.0046296
        k(  242) = (   0.2500000  -0.4166667  -0.5000000), wk =   0.0092593
        k(  243) = (   0.2500000  -0.4166667  -0.4166667), wk =   0.0092593
        k(  244) = (   0.2500000  -0.4166667  -0.3333333), wk =   0.0092593
        k(  245) = (   0.2500000  -0.4166667  -0.2500000), wk =   0.0046296
        k(  246) = (   0.2500000  -0.3333333   0.3333333), wk =   0.0046296
        k(  247) = (   0.2500000  -0.3333333   0.4166667), wk =   0.0092593
        k(  248) = (   0.2500000  -0.3333333  -0.5000000), wk =   0.0092593
        k(  249) = (   0.2500000  -0.3333333  -0.4166667), wk =   0.0092593
        k(  250) = (   0.2500000  -0.3333333  -0.3333333), wk =   0.0092593
        k(  251) = (   0.2500000  -0.3333333  -0.2500000), wk =   0.0046296
        k(  252) = (   0.2500000  -0.2500000   0.2500000), wk =   0.0023148
        k(  253) = (   0.2500000  -0.2500000   0.3333333), wk =   0.0046296
        k(  254) = (   0.2500000  -0.2500000   0.4166667), wk =   0.0046296
        k(  255) = (   0.2500000  -0.2500000  -0.5000000), wk =   0.0046296
        k(  256) = (   0.2500000  -0.2500000  -0.4166667), wk =   0.0046296
        k(  257) = (   0.2500000  -0.2500000  -0.3333333), wk =   0.0046296
        k(  258) = (   0.2500000  -0.2500000  -0.2500000), wk =   0.0023148
        k(  259) = (   0.3333333   0.3333333  -0.3333333), wk =   0.0023148
        k(  260) = (   0.3333333   0.4166667  -0.4166667), wk =   0.0046296
        k(  261) = (   0.3333333   0.4166667  -0.3333333), wk =   0.0046296
        k(  262) = (   0.3333333  -0.5000000  -0.5000000), wk =   0.0046296
        k(  263) = (   0.3333333  -0.5000000  -0.4166667), wk =   0.0092593
        k(  264) = (   0.3333333  -0.5000000  -0.3333333), wk =   0.0046296
        k(  265) = (   0.3333333  -0.4166667   0.4166667), wk =   0.0046296
        k(  266) = (   0.3333333  -0.4166667  -0.5000000), wk =   0.0092593
        k(  267) = (   0.3333333  -0.4166667  -0.4166667), wk =   0.0092593
        k(  268) = (   0.3333333  -0.4166667  -0.3333333), wk =   0.0046296
        k(  269) = (   0.3333333  -0.3333333   0.3333333), wk =   0.0023148
        k(  270) = (   0.3333333  -0.3333333   0.4166667), wk =   0.0046296
        k(  271) = (   0.3333333  -0.3333333  -0.5000000), wk =   0.0046296
        k(  272) = (   0.3333333  -0.3333333  -0.4166667), wk =   0.0046296
        k(  273) = (   0.3333333  -0.3333333  -0.3333333), wk =   0.0023148
        k(  274) = (   0.4166667   0.4166667  -0.4166667), wk =   0.0023148
        k(  275) = (   0.4166667  -0.5000000  -0.5000000), wk =   0.0046296
        k(  276) = (   0.4166667  -0.5000000  -0.4166667), wk =   0.0046296
        k(  277) = (   0.4166667  -0.4166667   0.4166667), wk =   0.0023148
        k(  278) = (   0.4166667  -0.4166667  -0.5000000), wk =   0.0046296
        k(  279) = (   0.4166667  -0.4166667  -0.4166667), wk =   0.0023148
        k(  280) = (  -0.5000000  -0.5000000  -0.5000000), wk =   0.0011574

     Dense  grid:   384583 G-vectors     FFT dimensions: ( 144, 144, 144)

     Smooth grid:    97215 G-vectors     FFT dimensions: (  90,  90,  90)

     Dynamical RAM for                 wfc:       0.08 MB

     Dynamical RAM for     wfc (w. buffer):      22.78 MB

     Dynamical RAM for           str. fact:       0.37 MB

     Dynamical RAM for           local pot:       0.00 MB

     Dynamical RAM for          nlocal pot:       0.16 MB

     Dynamical RAM for                qrad:       8.33 MB

     Dynamical RAM for          rho,v,vnew:       1.79 MB

     Dynamical RAM for               rhoin:       0.60 MB

     Dynamical RAM for            rho*nmix:       1.96 MB

     Dynamical RAM for           G-vectors:       0.47 MB

     Dynamical RAM for          h,s,v(r/c):       0.08 MB

     Dynamical RAM for          <psi|beta>:       0.01 MB

     Dynamical RAM for                 psi:       0.16 MB

     Dynamical RAM for                hpsi:       0.16 MB

     Dynamical RAM for                spsi:       0.16 MB

     Dynamical RAM for      wfcinit/wfcrot:       0.21 MB

     Dynamical RAM for           addusdens:      22.98 MB

     Dynamical RAM for          addusforce:      23.30 MB

     Dynamical RAM for         addusstress:      24.57 MB

     Estimated static dynamical RAM per process >      39.32 MB

     Estimated max dynamical RAM per process >      63.90 MB

     Estimated total dynamical RAM >       3.00 GB

     Initial potential from superposition of free atoms

     starting charge   32.99867, renormalised to   33.00000
     Starting wfcs are   25 randomized atomic wfcs
     Checking if some PAW data can be deallocated... 
       PAW data deallocated on   36 nodes for type:  1
       PAW data deallocated on   24 nodes for type:  2
       PAW data deallocated on   36 nodes for type:  3

     total cpu time spent up to now is        7.0 secs

     Self-consistent Calculation

     iteration #  1     ecut=   120.00 Ry     beta= 0.70
     Davidson diagonalization with overlap
     ethr =  1.00E-02,  avg # of iterations =  2.3

     total cpu time spent up to now is       20.3 secs

     total energy              =    -534.52766379 Ry
     estimated scf accuracy    <       0.76295146 Ry

     iteration #  2     ecut=   120.00 Ry     beta= 0.70
     Davidson diagonalization with overlap
     ethr =  2.31E-03,  avg # of iterations =  3.6

     total cpu time spent up to now is       36.2 secs

     total energy              =    -533.60212560 Ry
     estimated scf accuracy    <       8.54452287 Ry

     iteration #  3     ecut=   120.00 Ry     beta= 0.70
     Davidson diagonalization with overlap
     ethr =  2.31E-03,  avg # of iterations =  3.5

     total cpu time spent up to now is       50.9 secs

     total energy              =    -534.97563557 Ry
     estimated scf accuracy    <       0.12679925 Ry

     iteration #  4     ecut=   120.00 Ry     beta= 0.70
     Davidson diagonalization with overlap
     ethr =  3.84E-04,  avg # of iterations =  1.3

     total cpu time spent up to now is       62.8 secs

     total energy              =    -534.96759293 Ry
     estimated scf accuracy    <       0.06170379 Ry

     iteration #  5     ecut=   120.00 Ry     beta= 0.70
     Davidson diagonalization with overlap
     ethr =  1.87E-04,  avg # of iterations =  1.5

     total cpu time spent up to now is       74.9 secs

     total energy              =    -534.96479341 Ry
     estimated scf accuracy    <       0.02246605 Ry

     iteration #  6     ecut=   120.00 Ry     beta= 0.70
     Davidson diagonalization with overlap
     ethr =  6.81E-05,  avg # of iterations =  2.0

     total cpu time spent up to now is       87.2 secs

     total energy              =    -534.96692741 Ry
     estimated scf accuracy    <       0.00095289 Ry

     iteration #  7     ecut=   120.00 Ry     beta= 0.70
     Davidson diagonalization with overlap
     ethr =  2.89E-06,  avg # of iterations =  3.2

     total cpu time spent up to now is      102.2 secs

     total energy              =    -534.96718782 Ry
     estimated scf accuracy    <       0.00017499 Ry

     iteration #  8     ecut=   120.00 Ry     beta= 0.70
     Davidson diagonalization with overlap
     ethr =  5.30E-07,  avg # of iterations =  1.8

     total cpu time spent up to now is      114.5 secs

     total energy              =    -534.96719345 Ry
     estimated scf accuracy    <       0.00002451 Ry

     iteration #  9     ecut=   120.00 Ry     beta= 0.70
     Davidson diagonalization with overlap
     ethr =  7.43E-08,  avg # of iterations =  2.4

     total cpu time spent up to now is      128.1 secs

     total energy              =    -534.96719993 Ry
     estimated scf accuracy    <       0.00000109 Ry

     iteration # 10     ecut=   120.00 Ry     beta= 0.70
     Davidson diagonalization with overlap
     ethr =  3.29E-09,  avg # of iterations =  3.7

     total cpu time spent up to now is      143.5 secs

     total energy              =    -534.96720029 Ry
     estimated scf accuracy    <       0.00000004 Ry

     iteration # 11     ecut=   120.00 Ry     beta= 0.70
     Davidson diagonalization with overlap
     ethr =  1.08E-10,  avg # of iterations =  4.0

     total cpu time spent up to now is      160.6 secs

     total energy              =    -534.96720030 Ry
     estimated scf accuracy    <          2.6E-09 Ry

     iteration # 12     ecut=   120.00 Ry     beta= 0.70
     Davidson diagonalization with overlap
     ethr =  7.83E-12,  avg # of iterations =  3.0

     total cpu time spent up to now is      176.7 secs

     total energy              =    -534.96720031 Ry
     estimated scf accuracy    <          6.2E-10 Ry

     iteration # 13     ecut=   120.00 Ry     beta= 0.70
     Davidson diagonalization with overlap
     ethr =  1.88E-12,  avg # of iterations =  2.0

     total cpu time spent up to now is      189.9 secs

     End of self-consistent calculation

          k = 0.0000 0.0000 0.0000 ( 12131 PWs)   bands (ev):

   -49.8568 -26.0889 -25.8015 -25.7177 -12.3977  -9.5111  -8.8215   0.6241
     2.4724   2.7323   2.8751   2.9906   3.4523   3.9425   4.1986   4.2849
     5.5074   7.2021   7.3416   8.6494   9.3775

     occupation numbers 
     1.0000   1.0000   1.0000   1.0000   1.0000   1.0000   1.0000   1.0000
     1.0000   1.0000   1.0000   1.0000   1.0000   1.0000   1.0000   1.0000
     1.0000  -0.0001  -0.0000  -0.0000  -0.0000

          k = 0.1664 0.1431 0.0000 ( 12121 PWs)   bands (ev):

   -49.8556 -26.1004 -25.7985 -25.7319 -12.3092  -9.4618  -8.8249   0.7198
     2.3219   2.3731   2.7351   3.2148   3.2416   3.8862   3.9018   4.0975
     5.7257   7.3540   7.4516   8.6876   9.7216

     occupation numbers 
     1.0000   1.0000   1.0000   1.0000   1.0000   1.0000   1.0000   1.0000
     1.0000   1.0000   1.0000   1.0000   1.0000   1.0000   1.0000   1.0000
     1.0000  -0.0000  -0.0000  -0.0000  -0.0000

          k = 0.3328 0.2862 0.0000 ( 12128 PWs)   bands (ev):

   -49.8524 -26.1313 -25.7903 -25.7704 -12.0609  -9.3235  -8.8351   0.9894
     1.9450   2.0323   2.1375   2.6743   3.0639   3.2563   3.8818   4.0085
     6.1993   7.7037   7.7693   8.8610  10.4807

     occupation numbers 
     1.0000   1.0000   1.0000   1.0000   1.0000   1.0000   1.0000   1.0000
     1.0000   1.0000   1.0000   1.0000   1.0000   1.0000   1.0000   1.0000
     1.0000  -0.0000  -0.0000  -0.0000  -0.0000

          k = 0.4991 0.4293 0.0000 ( 12152 PWs)   bands (ev):

   -49.8479 -26.1725 -25.8225 -25.7790 -11.7039  -9.1248  -8.8511   1.0915
     1.4053   1.7270   1.9030   2.0005   2.1917   2.9297   3.8431   4.0127
     6.8127   8.1520   8.2590   9.1620  11.1414

     occupation numbers 
     1.0000   1.0000   1.0000   1.0000   1.0000   1.0000   1.0000   1.0000
     1.0000   1.0000   1.0000   1.0000   1.0000   1.0000   1.0000   1.0000
     0.4373  -0.0000  -0.0000  -0.0000  -0.0000

          k = 0.6655 0.5724 0.0000 ( 12170 PWs)   bands (ev):

   -49.8434 -26.2126 -25.8738 -25.7678 -11.3216  -8.9127  -8.8697   0.2535
     1.2308   1.5010   1.6668   1.7724   1.9816   2.5114   3.6525   4.0030
     7.5185   8.6273   8.8077   9.4594  11.3748

     occupation numbers 
     1.0000   1.0000   1.0000   1.0000   1.0000   1.0000   1.0000   1.0000
     1.0000   1.0000   1.0000   1.0000   1.0000   1.0000   1.0000   1.0000
    -0.0000  -0.0000  -0.0000  -0.0000  -0.0000

          k = 0.8319 0.7155 0.0000 ( 12159 PWs)   bands (ev):

   -49.8401 -26.2412 -25.9110 -25.7596 -11.0218  -8.8850  -8.7468  -0.3585
     0.7676   1.0984   1.6830   1.8096   2.1460   2.3902   3.3998   3.9356
     8.1752   9.0144   9.2214   9.6751  11.3680

     occupation numbers 
     1.0000   1.0000   1.0000   1.0000   1.0000   1.0000   1.0000   1.0000
     1.0000   1.0000   1.0000   1.0000   1.0000   1.0000   1.0000   1.0000
    -0.0000  -0.0000  -0.0000  -0.0000  -0.0000

          k =-0.9983-0.8586 0.0000 ( 12140 PWs)   bands (ev):

   -49.8389 -26.2516 -25.9245 -25.7566 -10.9070  -8.8909  -8.6834  -0.5822
     0.5986   0.9591   1.7517   1.8371   1.9750   2.5817   3.2727   3.8798
     8.4676   9.1713   9.3605   9.7686  11.3991

     occupation numbers 
     1.0000   1.0000   1.0000   1.0000   1.0000   1.0000   1.0000   1.0000
     1.0000   1.0000   1.0000   1.0000   1.0000   1.0000   1.0000   1.0000
    -0.0000  -0.0000  -0.0000  -0.0000  -0.0000

          k = 0.1664 0.0000 0.0451 ( 12128 PWs)   bands (ev):

   -49.8559 -26.0877 -25.7989 -25.7323 -12.3898  -9.4705  -8.8275   0.7117
     2.3657   2.7041   2.9126   3.0127   3.3056   3.9130   4.0398   4.1616
     5.7168   7.1604   7.3151   8.6812   9.5703

     occupation numbers 
     1.0000   1.0000   1.0000   1.0000   1.0000   1.0000   1.0000   1.0000
     1.0000   1.0000   1.0000   1.0000   1.0000   1.0000   1.0000   1.0000
     1.0000  -0.0006  -0.0000  -0.0000  -0.0000

          k = 0.3328 0.1431 0.0451 ( 12145 PWs)   bands (ev):

   -49.8530 -26.0972 -25.7915 -25.7716 -12.2879  -9.3522  -8.8364   0.9439
     2.1301   2.3675   2.7484   2.8002   3.1670   3.4419   3.8756   4.0706
     6.1751   7.2375   7.3686   8.8451  10.1012

     occupation numbers 
     1.0000   1.0000   1.0000   1.0000   1.0000   1.0000   1.0000   1.0000
     1.0000   1.0000   1.0000   1.0000   1.0000   1.0000   1.0000   1.0000
     1.0000  -0.0000  -0.0000  -0.0000  -0.0000

          k = 0.4991 0.2862 0.0451 ( 12149 PWs)   bands (ev):

   -49.8487 -26.1268 -25.8242 -25.7807 -12.0323  -9.1665  -8.8510   1.2741
     1.8999   1.9898   2.0798   2.2041   2.5754   2.9969   3.8788   4.0861
     6.7710   7.5582   7.6698   9.1716  10.7661

     occupation numbers 
     1.0000   1.0000   1.0000   1.0000   1.0000   1.0000   1.0000   1.0000
     1.0000   1.0000   1.0000   1.0000   1.0000   1.0000   1.0000   1.0000
     0.6907  -0.0000  -0.0000  -0.0000  -0.0000

          k = 0.6655 0.4293 0.0451 ( 12177 PWs)   bands (ev):

   -49.8442 -26.1678 -25.8756 -25.7695 -11.6761  -8.9578  -8.8675   1.1122
     1.3858   1.5941   1.7400   1.8968   2.0846   2.5997   3.7668   4.1038
     7.4530   8.0399   8.1894   9.5113  11.1739

     occupation numbers 
     1.0000   1.0000   1.0000   1.0000   1.0000   1.0000   1.0000   1.0000
     1.0000   1.0000   1.0000   1.0000   1.0000   1.0000   1.0000   1.0000
    -0.0000  -0.0000  -0.0000  -0.0000  -0.0000

          k = 0.8319 0.5724 0.0451 ( 12171 PWs)   bands (ev):

   -49.8407 -26.2090 -25.9123 -25.7608 -11.3020  -8.8885  -8.7759   0.2698
     0.9782   1.0763   1.7147   1.8323   2.2647   2.3733   3.5091   4.0360
     8.1218   8.5549   8.7633   9.7222  11.2942

     occupation numbers 
     1.0000   1.0000   1.0000   1.0000   1.0000   1.0000   1.0000   1.0000
     1.0000   1.0000   1.0000   1.0000   1.0000   1.0000   1.0000   1.0000
    -0.0000  -0.0000  -0.0000  -0.0000  -0.0000

          k = 0.9983 0.7155 0.0451 ( 12167 PWs)   bands (ev):

   -49.8391 -26.2399 -25.9250 -25.7570 -11.0148  -8.8964  -8.6896  -0.3531
     0.6668   0.9441   1.6263   1.9302   2.0753   2.5938   3.3060   3.9109
     8.4632   8.9825   9.1989   9.7597  11.3431

     occupation numbers 
     1.0000   1.0000   1.0000   1.0000   1.0000   1.0000   1.0000   1.0000
     1.0000   1.0000   1.0000   1.0000   1.0000   1.0000   1.0000   1.0000
    -0.0000  -0.0000  -0.0000  -0.0000  -0.0000

          k =-0.8319-0.8586 0.0451 ( 12162 PWs)   bands (ev):

   -49.8399 -26.2529 -25.9105 -25.7592 -10.9138  -8.8936  -8.7253  -0.5871
     0.6844   1.0901   1.5264   1.8738   2.1962   2.4650   3.3496   3.8599
     8.2013   9.1972   9.3839   9.6289  11.3318

     occupation numbers 
     1.0000   1.0000   1.0000   1.0000   1.0000   1.0000   1.0000   1.0000
     1.0000   1.0000   1.0000   1.0000   1.0000   1.0000   1.0000   1.0000
    -0.0000  -0.0000  -0.0000  -0.0000  -0.0000

          k =-0.6655-0.7155 0.0451 ( 12161 PWs)   bands (ev):

   -49.8428 -26.2450 -25.8725 -25.7666 -11.0406  -8.8842  -8.8664  -0.3728
     1.0096   1.4678   1.5136   1.7485   2.0550   2.5433   3.5620   3.8705
     7.5651   9.0892   9.2593   9.3942  11.4153

     occupation numbers 
     1.0000   1.0000   1.0000   1.0000   1.0000   1.0000   1.0000   1.0000
     1.0000   1.0000   1.0000   1.0000   1.0000   1.0000   1.0000   1.0000
    -0.0000  -0.0000  -0.0000  -0.0000  -0.0000

          k =-0.4991-0.5724 0.0451 ( 12173 PWs)   bands (ev):

   -49.8470 -26.2175 -25.8208 -25.7774 -11.3482  -9.0746  -8.8603   0.2316
     1.4237   1.5128   1.6123   1.8951   2.1514   2.9283   3.7609   3.8707
     6.8646   8.7510   8.8323   9.1496  11.3591

     occupation numbers 
     1.0000   1.0000   1.0000   1.0000   1.0000   1.0000   1.0000   1.0000
     1.0000   1.0000   1.0000   1.0000   1.0000   1.0000   1.0000   1.0000
     0.1553  -0.0000  -0.0000  -0.0000  -0.0000

          k =-0.3328-0.4293 0.0451 ( 12143 PWs)   bands (ev):

   -49.8515 -26.1773 -25.7886 -25.7689 -11.7315  -9.2764  -8.8425   1.0107
     1.1626   1.5525   2.1251   2.3272   2.9137   3.2704   3.8067   3.9090
     6.2454   8.3102   8.3261   8.8747  10.8445

     occupation numbers 
     1.0000   1.0000   1.0000   1.0000   1.0000   1.0000   1.0000   1.0000
     1.0000   1.0000   1.0000   1.0000   1.0000   1.0000   1.0000   1.0000
     1.0000  -0.0000  -0.0000  -0.0000  -0.0000

          k =-0.1664-0.2862 0.0451 ( 12113 PWs)   bands (ev):

   -49.8550 -26.1346 -25.7972 -25.7308 -12.0818  -9.4281  -8.8303   0.7719
     1.8500   2.0172   2.3837   3.0092   3.4070   3.6363   3.8513   3.9560
     5.7590   7.8417   7.8445   8.7084  10.0791

     occupation numbers 
     1.0000   1.0000   1.0000   1.0000   1.0000   1.0000   1.0000   1.0000
     1.0000   1.0000   1.0000   1.0000   1.0000   1.0000   1.0000   1.0000
     1.0000  -0.0000  -0.0000  -0.0000  -0.0000

          k =-0.0000-0.1431 0.0451 ( 12110 PWs)   bands (ev):

   -49.8566 -26.1015 -25.8010 -25.7173 -12.3170  -9.4974  -8.8253   0.6481
     2.3041   2.4827   2.7281   3.2254   3.3763   3.8734   4.0435   4.2220
     5.5217   7.4030   7.4832   8.6629   9.5427

     occupation numbers 
     1.0000   1.0000   1.0000   1.0000   1.0000   1.0000   1.0000   1.0000
     1.0000   1.0000   1.0000   1.0000   1.0000   1.0000   1.0000   1.0000
     1.0000  -0.0000  -0.0000  -0.0000  -0.0000

          k = 0.3328 0.0000 0.0903 ( 12143 PWs)   bands (ev):

   -49.8532 -26.0846 -25.7919 -25.7720 -12.3683  -9.3573  -8.8431   0.9408
     2.1356   2.5735   2.8283   2.9800   3.1187   3.6420   3.8805   4.0569
     6.1789   7.0535   7.2320   8.8226   9.9279

     occupation numbers 
     1.0000   1.0000   1.0000   1.0000   1.0000   1.0000   1.0000   1.0000
     1.0000   1.0000   1.0000   1.0000   1.0000   1.0000   1.0000   1.0000
     1.0000  -0.0128  -0.0000  -0.0000  -0.0000

          k = 0.4991 0.1431 0.0903 ( 12159 PWs)   bands (ev):

   -49.8493 -26.0929 -25.8254 -25.7819 -12.2587  -9.1928  -8.8553   1.2155
     1.9142   2.0809   2.3595   2.7684   3.1310   3.2010   3.8321   4.0119
     6.7622   7.1152   7.2373   9.1509  10.3232

     occupation numbers 
     1.0000   1.0000   1.0000   1.0000   1.0000   1.0000   1.0000   1.0000
     1.0000   1.0000   1.0000   1.0000   1.0000   1.0000   1.0000   1.0000
     0.7396  -0.0027  -0.0000  -0.0000  -0.0000

          k = 0.6655 0.2862 0.0903 ( 12171 PWs)   bands (ev):

   -49.8451 -26.1223 -25.8774 -25.7711 -12.0037  -8.9999  -8.8677   1.3209
     1.5531   1.7692   2.0607   2.1966   2.4497   2.8697   3.8452   4.0997
     7.2771   7.5529   7.6058   9.5244  10.7636

     occupation numbers 
     1.0000   1.0000   1.0000   1.0000   1.0000   1.0000   1.0000   1.0000
     1.0000   1.0000   1.0000   1.0000   1.0000   1.0000   1.0000   1.0000
    -0.0000  -0.0000  -0.0000  -0.0000  -0.0000

          k = 0.8319 0.4293 0.0903 ( 12169 PWs)   bands (ev):

   -49.8416 -26.1643 -25.9142 -25.7624 -11.6557  -8.9057  -8.8018   0.9522
     1.1911   1.3311   1.6171   1.9039   2.4452   2.5811   3.6534   4.1033
     7.8165   8.1278   8.2136   9.7490  11.0404

     occupation numbers 
     1.0000   1.0000   1.0000   1.0000   1.0000   1.0000   1.0000   1.0000
     1.0000   1.0000   1.0000   1.0000   1.0000   1.0000   1.0000   1.0000
    -0.0000  -0.0000  -0.0000  -0.0000  -0.0000

          k = 0.9983 0.5724 0.0903 ( 12177 PWs)   bands (ev):

   -49.8398 -26.2076 -25.9263 -25.7582 -11.2947  -8.9114  -8.7062   0.2758
     0.8262   0.9478   1.5083   1.9551   2.3532   2.6423   3.4047   3.9843
     8.4098   8.5330   8.7449   9.7490  11.1755

     occupation numbers 
     1.0000   1.0000   1.0000   1.0000   1.0000   1.0000   1.0000   1.0000
     1.0000   1.0000   1.0000   1.0000   1.0000   1.0000   1.0000   1.0000
    -0.0000  -0.0000  -0.0000  -0.0000  -0.0000

          k = 1.1647 0.7155 0.0903 ( 12179 PWs)   bands (ev):

   -49.8401 -26.2412 -25.9110 -25.7596 -11.0217  -8.9117  -8.7175  -0.3585
     0.7420   1.0488   1.4157   1.9357   2.3329   2.5644   3.3704   3.8442
     8.2147   9.0088   9.2212   9.5788  11.2345

     occupation numbers 
     1.0000   1.0000   1.0000   1.0000   1.0000   1.0000   1.0000   1.0000
     1.0000   1.0000   1.0000   1.0000   1.0000   1.0000   1.0000   1.0000
    -0.0000  -0.0000  -0.0000  -0.0000  -0.0000

          k =-0.6655-0.8586 0.0903 ( 12179 PWs)   bands (ev):

   -49.8426 -26.2567 -25.8721 -25.7662 -10.9321  -8.9012  -8.8369  -0.6005
     0.9107   1.3518   1.4817   1.7295   2.1970   2.6236   3.5324   3.7607
     7.5980   9.2189   9.3610   9.4417  11.3804

     occupation numbers 
     1.0000   1.0000   1.0000   1.0000   1.0000   1.0000   1.0000   1.0000
     1.0000   1.0000   1.0000   1.0000   1.0000   1.0000   1.0000   1.0000
    -0.0000  -0.0000  -0.0000  -0.0000  -0.0000

          k =-0.4991-0.7155 0.0903 ( 12183 PWs)   bands (ev):

   -49.8464 -26.2501 -25.8196 -25.7761 -11.0659  -9.0239  -8.8819  -0.3920
     1.2375   1.3392   1.6353   1.8619   2.1434   2.9508   3.6642   3.7617
     6.9116   8.9970   9.2300   9.3544  11.4523

     occupation numbers 
     1.0000   1.0000   1.0000   1.0000   1.0000   1.0000   1.0000   1.0000
     1.0000   1.0000   1.0000   1.0000   1.0000   1.0000   1.0000   1.0000
     0.0096  -0.0000  -0.0000  -0.0000  -0.0000

          k =-0.3328-0.5724 0.0903 ( 12156 PWs)   bands (ev):

   -49.8507 -26.2225 -25.7869 -25.7673 -11.3746  -9.2193  -8.8618   0.2103
     1.1334   1.3059   1.9503   2.1365   2.8480   3.2280   3.6322   3.8899
     6.2964   8.7608   8.9122   9.0098  11.1137

     occupation numbers 
     1.0000   1.0000   1.0000   1.0000   1.0000   1.0000   1.0000   1.0000
     1.0000   1.0000   1.0000   1.0000   1.0000   1.0000   1.0000   1.0000
     1.0000  -0.0000  -0.0000  -0.0000  -0.0000

          k =-0.1664-0.4293 0.0903 ( 12130 PWs)   bands (ev):

   -49.8542 -26.1807 -25.7955 -25.7293 -11.7517  -9.3752  -8.8459   0.8383
     1.0991   1.4466   2.3900   2.6818   3.2335   3.5603   3.7569   3.9249
     5.8023   8.3890   8.4593   8.7434  10.4599

     occupation numbers 
     1.0000   1.0000   1.0000   1.0000   1.0000   1.0000   1.0000   1.0000
     1.0000   1.0000   1.0000   1.0000   1.0000   1.0000   1.0000   1.0000
     1.0000  -0.0000  -0.0000  -0.0000  -0.0000

          k = 0.0000-0.2862 0.0903 ( 12119 PWs)   bands (ev):

   -49.8560 -26.1358 -25.7998 -25.7162 -12.0894  -9.4585  -8.8374   0.7138
     1.8225   2.0126   2.5112   3.1651   3.3901   3.6136   3.9248   4.1084
     5.5531   7.8705   7.9031   8.6998   9.9148

     occupation numbers 
     1.0000   1.0000   1.0000   1.0000   1.0000   1.0000   1.0000   1.0000
     1.0000   1.0000   1.0000   1.0000   1.0000   1.0000   1.0000   1.0000
     1.0000  -0.0000  -0.0000  -0.0000  -0.0000

          k = 0.1664-0.1431 0.0903 ( 12119 PWs)   bands (ev):

   -49.8556 -26.1004 -25.7985 -25.7319 -12.3091  -9.4524  -8.8367   0.7506
     2.3287   2.3756   2.7336   3.1877   3.2456   3.7817   3.9653   4.0878
     5.7359   7.3517   7.4621   8.6915   9.7615

     occupation numbers 
     1.0000   1.0000   1.0000   1.0000   1.0000   1.0000   1.0000   1.0000
     1.0000   1.0000   1.0000   1.0000   1.0000   1.0000   1.0000   1.0000
     1.0000  -0.0000  -0.0000  -0.0000  -0.0000

          k = 0.4991 0.0000 0.1354 ( 12156 PWs)   bands (ev):

   -49.8496 -26.0803 -25.8259 -25.7824 -12.3390  -9.1988  -8.8606   1.1898
     1.9294   2.0305   2.4819   3.0400   3.3257   3.4527   3.7785   3.9036
     6.7906   6.9271   7.0817   9.1063  10.0984

     occupation numbers 
     1.0000   1.0000   1.0000   1.0000   1.0000   1.0000   1.0000   1.0000
     1.0000   1.0000   1.0000   1.0000   1.0000   1.0000   1.0000   1.0000
     0.5739  -0.0139  -0.0067  -0.0000  -0.0000

          k = 0.6655 0.1431 0.1354 ( 12168 PWs)   bands (ev):

   -49.8457 -26.0885 -25.8787 -25.7723 -12.2296  -9.0316  -8.8662   1.2546
     1.4862   1.8958   2.1621   2.8115   3.0894   3.2628   3.8007   3.9472
     6.9617   7.0642   7.5025   9.4945  10.2757

     occupation numbers 
     1.0000   1.0000   1.0000   1.0000   1.0000   1.0000   1.0000   1.0000
     1.0000   1.0000   1.0000   1.0000   1.0000   1.0000   1.0000   1.0000
    -0.0350  -0.0102  -0.0000  -0.0000  -0.0000

          k = 0.8319 0.2862 0.1354 ( 12172 PWs)   bands (ev):

   -49.8424 -26.1190 -25.9160 -25.7641 -11.9827  -8.9334  -8.8162   0.9200
     1.4520   1.6731   1.9313   2.2135   2.6390   3.0080   3.7863   4.0609
     7.2743   7.4564   8.1571   9.7387  10.6100

     occupation numbers 
     1.0000   1.0000   1.0000   1.0000   1.0000   1.0000   1.0000   1.0000
     1.0000   1.0000   1.0000   1.0000   1.0000   1.0000   1.0000   1.0000
    -0.0000  -0.0000  -0.0000  -0.0000  -0.0000

          k = 0.9983 0.4293 0.1354 ( 12163 PWs)   bands (ev):

   -49.8406 -26.1631 -25.9282 -25.7599 -11.6481  -8.9317  -8.7286   0.7714
     1.2088   1.2212   1.4330   1.9574   2.6312   2.8142   3.5571   4.0444
     7.8412   8.1045   8.4581   9.7375  10.8907

     occupation numbers 
     1.0000   1.0000   1.0000   1.0000   1.0000   1.0000   1.0000   1.0000
     1.0000   1.0000   1.0000   1.0000   1.0000   1.0000   1.0000   1.0000
    -0.0000  -0.0000  -0.0000  -0.0000  -0.0000

          k = 1.1647 0.5724 0.1354 ( 12188 PWs)   bands (ev):

   -49.8407 -26.2090 -25.9123 -25.7608 -11.3018  -8.9355  -8.7243   0.2696
     0.9092   1.0224   1.3448   2.0150   2.5046   2.6747   3.4657   3.8952
     8.2143   8.5190   8.7681   9.5447  11.0714

     occupation numbers 
     1.0000   1.0000   1.0000   1.0000   1.0000   1.0000   1.0000   1.0000
     1.0000   1.0000   1.0000   1.0000   1.0000   1.0000   1.0000   1.0000
    -0.0000  -0.0000  -0.0000  -0.0000  -0.0000

          k = 1.3311 0.7155 0.1354 ( 12175 PWs)   bands (ev):

   -49.8428 -26.2450 -25.8725 -25.7666 -11.0403  -8.9301  -8.8182  -0.3731
     0.9565   1.3018   1.4311   1.7593   2.3470   2.7064   3.5750   3.7206
     7.6133   9.0495   9.2743   9.3031  11.2992

     occupation numbers 
     1.0000   1.0000   1.0000   1.0000   1.0000   1.0000   1.0000   1.0000
     1.0000   1.0000   1.0000   1.0000   1.0000   1.0000   1.0000   1.0000
    -0.0000  -0.0000  -0.0000  -0.0000  -0.0000

          k =-0.4991-0.8586 0.1354 ( 12184 PWs)   bands (ev):

   -49.8462 -26.2619 -25.8191 -25.7757 -10.9568  -8.9832  -8.9125  -0.6186
     1.1706   1.2153   1.7273   1.8059   2.1865   2.9706   3.5791   3.7459
     6.9435   8.9615   9.4080   9.5026  11.4634

     occupation numbers 
     1.0000   1.0000   1.0000   1.0000   1.0000   1.0000   1.0000   1.0000
     1.0000   1.0000   1.0000   1.0000   1.0000   1.0000   1.0000   1.0000
    -0.0285  -0.0000  -0.0000  -0.0000  -0.0000

          k =-0.3328-0.7155 0.1354 ( 12177 PWs)   bands (ev):

   -49.8501 -26.2552 -25.7857 -25.7661 -11.0909  -9.1629  -8.8926  -0.4109
     1.0018   1.3585   1.7458   2.0651   2.8302   3.1251   3.5232   3.8896
     6.3391   8.8024   9.3556   9.3926  11.2766

     occupation numbers 
     1.0000   1.0000   1.0000   1.0000   1.0000   1.0000   1.0000   1.0000
     1.0000   1.0000   1.0000   1.0000   1.0000   1.0000   1.0000   1.0000
     1.0000  -0.0000  -0.0000  -0.0000  -0.0000

          k =-0.1664-0.5724 0.1354 ( 12144 PWs)   bands (ev):

   -49.8533 -26.2261 -25.7939 -25.7277 -11.3937  -9.3130  -8.8730   0.1944
     0.9053   1.2170   2.2869   2.4599   2.9693   3.5102   3.6609   3.9567
     5.8453   8.7551   8.9758   9.0520  10.7756

     occupation numbers 
     1.0000   1.0000   1.0000   1.0000   1.0000   1.0000   1.0000   1.0000
     1.0000   1.0000   1.0000   1.0000   1.0000   1.0000   1.0000   1.0000
     1.0000  -0.0000  -0.0000  -0.0000  -0.0000

          k = 0.0000-0.4293 0.1354 ( 12137 PWs)   bands (ev):

   -49.8551 -26.1820 -25.7981 -25.7147 -11.7590  -9.4010  -8.8590   0.7859
     1.0908   1.4329   2.5515   2.8915   3.0181   3.5567   3.9485   4.0177
     5.5913   8.4091   8.5218   8.7509  10.3185

     occupation numbers 
     1.0000   1.0000   1.0000   1.0000   1.0000   1.0000   1.0000   1.0000
     1.0000   1.0000   1.0000   1.0000   1.0000   1.0000   1.0000   1.0000
     1.0000  -0.0000  -0.0000  -0.0000  -0.0000

          k = 0.1664-0.2862 0.1354 ( 12127 PWs)   bands (ev):

   -49.8550 -26.1346 -25.7973 -25.7308 -12.0816  -9.4099  -8.8526   0.8268
     1.8706   2.0218   2.3899   3.0021   3.2667   3.5840   3.8451   4.0276
     5.7719   7.8412   7.8524   8.7182  10.1552

     occupation numbers 
     1.0000   1.0000   1.0000   1.0000   1.0000   1.0000   1.0000   1.0000
     1.0000   1.0000   1.0000   1.0000   1.0000   1.0000   1.0000   1.0000
     1.0000  -0.0000  -0.0000  -0.0000  -0.0000

          k = 0.3328-0.1431 0.1354 ( 12136 PWs)   bands (ev):

   -49.8530 -26.0972 -25.7915 -25.7716 -12.2877  -9.3375  -8.8536   0.9811
     2.1391   2.3514   2.7427   2.7525   3.1680   3.4479   3.8847   4.0597
     6.2005   7.2245   7.3865   8.8045  10.1301

     occupation numbers 
     1.0000   1.0000   1.0000   1.0000   1.0000   1.0000   1.0000   1.0000
     1.0000   1.0000   1.0000   1.0000   1.0000   1.0000   1.0000   1.0000
     1.0000  -0.0001  -0.0000  -0.0000  -0.0000

          k = 0.6655 0.0000 0.1805 ( 12170 PWs)   bands (ev):

   -49.8459 -26.0760 -25.8792 -25.7728 -12.3097  -9.0479  -8.8601   1.2122
     1.4044   1.9657   2.2243   3.1149   3.4113   3.5513   3.7199   3.7511
     6.8221   6.8754   7.4956   9.4346  10.0226

     occupation numbers 
     1.0000   1.0000   1.0000   1.0000   1.0000   1.0000   1.0000   1.0000
     1.0000   1.0000   1.0000   1.0000   1.0000   1.0000   1.0000   1.0000
     0.3799   0.1113  -0.0000  -0.0000  -0.0000

          k = 0.8319 0.1431 0.1805 ( 12182 PWs)   bands (ev):

   -49.8430 -26.0853 -25.9173 -25.7653 -12.2083  -8.9615  -8.8181   0.8643
     1.3871   1.9146   1.9626   2.9279   3.0748   3.4493   3.7739   3.9149
     6.8821   6.9173   8.1390   9.6733  10.1589

     occupation numbers 
     1.0000   1.0000   1.0000   1.0000   1.0000   1.0000   1.0000   1.0000
     1.0000   1.0000   1.0000   1.0000   1.0000   1.0000   1.0000   1.0000
     0.0872  -0.0002  -0.0000  -0.0000  -0.0000

          k = 0.9983 0.2862 0.1805 ( 12170 PWs)   bands (ev):

   -49.8414 -26.1178 -25.9301 -25.7615 -11.9750  -8.9518  -8.7508   0.7262
     1.3507   1.6023   1.9384   2.2116   2.8024   3.1953   3.7298   4.0082
     7.2540   7.4161   8.4418   9.7080  10.5004

[...]

   -49.8566 -26.1015 -25.8011 -25.7173 -12.3152  -9.3137  -9.0434   1.2371
     2.2613   2.6421   2.6463   2.8016   3.2954   3.5599   3.9293   4.0142
     5.5657   7.4029   7.6110   8.9473  10.0471

     occupation numbers 
     1.0000   1.0000   1.0000   1.0000   1.0000   1.0000   1.0000   1.0000
     1.0000   1.0000   1.0000   1.0000   1.0000   1.0000   1.0000   1.0000
     1.0000  -0.0000  -0.0000  -0.0000  -0.0000

          k = 0.1664-0.0000 0.4061 ( 12140 PWs)   bands (ev):

   -49.8559 -26.0877 -25.7990 -25.7323 -12.3882  -9.2993  -9.0289   1.2744
     2.1209   2.6545   2.7999   3.1347   3.3402   3.5407   3.8638   3.9435
     5.8191   7.1391   7.4649   8.8290   9.9093

     occupation numbers 
     1.0000   1.0000   1.0000   1.0000   1.0000   1.0000   1.0000   1.0000
     1.0000   1.0000   1.0000   1.0000   1.0000   1.0000   1.0000   1.0000
     1.0000  -0.0013  -0.0000  -0.0000  -0.0000

          k =-1.9966-0.2862-0.0903 ( 12171 PWs)   bands (ev):

   -49.8560 -26.1358 -25.7999 -25.7162 -12.0875  -9.2500  -9.0785   1.2833
     1.9955   2.1040   2.3565   2.6653   3.1246   3.2403   3.8769   4.2193
     5.5885   7.9014   7.9252   8.9643  10.4759

     occupation numbers 
     1.0000   1.0000   1.0000   1.0000   1.0000   1.0000   1.0000   1.0000
     1.0000   1.0000   1.0000   1.0000   1.0000   1.0000   1.0000   1.0000
     1.0000  -0.0000  -0.0000  -0.0000  -0.0000

          k =-1.8302-0.1431-0.0903 ( 12141 PWs)   bands (ev):

   -49.8556 -26.1004 -25.7986 -25.7319 -12.3074  -9.2564  -9.0631   1.3713
     2.0126   2.5480   2.6444   2.9954   3.1145   3.5632   3.8374   3.9511
     5.8297   7.3384   7.5776   8.8551  10.1291

     occupation numbers 
     1.0000   1.0000   1.0000   1.0000   1.0000   1.0000   1.0000   1.0000
     1.0000   1.0000   1.0000   1.0000   1.0000   1.0000   1.0000   1.0000
     1.0000  -0.0000  -0.0000  -0.0000  -0.0000

          k =-1.6638-0.0000-0.0903 ( 12135 PWs)   bands (ev):

   -49.8532 -26.0846 -25.7920 -25.7720 -12.3669  -9.2154  -9.0027   1.3739
     1.7620   2.5106   2.7203   2.8456   3.4827   3.6998   3.7947   3.8276
     6.3518   6.9843   7.3280   8.6750   9.9615

     occupation numbers 
     1.0000   1.0000   1.0000   1.0000   1.0000   1.0000   1.0000   1.0000
     1.0000   1.0000   1.0000   1.0000   1.0000   1.0000   1.0000   1.0000
     1.0000  -0.0338  -0.0000  -0.0000  -0.0000

          k = 0.0000 1.2879-0.0451 ( 12182 PWs)   bands (ev):

   -49.8551 -26.1820 -25.7982 -25.7147 -11.7573  -9.1827  -9.1039   0.9850
     1.4000   1.6528   2.2758   2.6772   2.8770   2.9980   3.8143   4.3560
     5.6176   8.4141   8.5201   8.9596  10.8011

     occupation numbers 
     1.0000   1.0000   1.0000   1.0000   1.0000   1.0000   1.0000   1.0000
     1.0000   1.0000   1.0000   1.0000   1.0000   1.0000   1.0000   1.0000
     1.0000  -0.0000  -0.0000  -0.0000  -0.0000

          k =-1.8302-0.2862-0.0451 ( 12164 PWs)   bands (ev):

   -49.8550 -26.1346 -25.7973 -25.7308 -12.0799  -9.1959  -9.0935   1.3838
     1.9364   2.0778   2.1480   2.8894   2.9128   3.3052   3.6371   4.2382
     5.8495   7.8390   7.8922   8.8747  10.5510

     occupation numbers 
     1.0000   1.0000   1.0000   1.0000   1.0000   1.0000   1.0000   1.0000
     1.0000   1.0000   1.0000   1.0000   1.0000   1.0000   1.0000   1.0000
     1.0000  -0.0000  -0.0000  -0.0000  -0.0000

          k =-1.6638-0.1431-0.0451 ( 12133 PWs)   bands (ev):

   -49.8530 -26.0972 -25.7916 -25.7716 -12.2863  -9.1885  -9.0192   1.4606
     1.6546   2.5007   2.5662   2.7016   3.2827   3.4594   3.7318   4.0392
     6.3641   7.1814   7.4493   8.6867  10.1638

     occupation numbers 
     1.0000   1.0000   1.0000   1.0000   1.0000   1.0000   1.0000   1.0000
     1.0000   1.0000   1.0000   1.0000   1.0000   1.0000   1.0000   1.0000
     1.0000  -0.0003  -0.0000  -0.0000  -0.0000

          k =-1.4974-0.0000-0.0451 ( 12169 PWs)   bands (ev):

   -49.8496 -26.0803 -25.8259 -25.7824 -12.3380  -9.1471  -8.9138   1.2054
     1.5155   2.1182   2.6256   2.9213   3.6524   3.6622   3.7262   3.8990
     6.8199   6.9732   7.1037   8.6959   9.8833

     occupation numbers 
     1.0000   1.0000   1.0000   1.0000   1.0000   1.0000   1.0000   1.0000
     1.0000   1.0000   1.0000   1.0000   1.0000   1.0000   1.0000   1.0000
     0.3933  -0.0353  -0.0038  -0.0000  -0.0000

          k =-0.0000 1.1448-0.0000 ( 12185 PWs)   bands (ev):

   -49.8543 -26.2274 -25.7964 -25.7132 -11.3994  -9.1759  -9.0676   0.1813
     1.2284   1.2499   2.3938   2.6392   2.6751   2.8409   3.8205   4.3483
     5.6422   8.9341   8.9628   9.1065  10.9301

     occupation numbers 
     1.0000   1.0000   1.0000   1.0000   1.0000   1.0000   1.0000   1.0000
     1.0000   1.0000   1.0000   1.0000   1.0000   1.0000   1.0000   1.0000
     1.0000  -0.0000  -0.0000  -0.0000  -0.0000

          k = 0.1664 1.2879-0.0000 ( 12190 PWs)   bands (ev):

   -49.8542 -26.1807 -25.7956 -25.7293 -11.7500  -9.1246  -9.1219   1.0010
     1.4768   1.6402   2.0370   2.6330   2.8921   3.1620   3.5151   4.3425
     5.8707   8.3763   8.4625   8.8891  10.8826

     occupation numbers 
     1.0000   1.0000   1.0000   1.0000   1.0000   1.0000   1.0000   1.0000
     1.0000   1.0000   1.0000   1.0000   1.0000   1.0000   1.0000   1.0000
     1.0000  -0.0000  -0.0000  -0.0000  -0.0000

          k =-1.6638-0.2862-0.0000 ( 12170 PWs)   bands (ev):

   -49.8524 -26.1313 -25.7903 -25.7704 -12.0593  -9.1491  -9.0277   1.5022
     1.5438   2.1010   2.2261   2.4402   3.1180   3.1391   3.5535   4.2372
     6.3763   7.6849   7.7988   8.7198  10.5935

     occupation numbers 
     1.0000   1.0000   1.0000   1.0000   1.0000   1.0000   1.0000   1.0000
     1.0000   1.0000   1.0000   1.0000   1.0000   1.0000   1.0000   1.0000
     1.0000  -0.0000  -0.0000  -0.0000  -0.0000

          k =-1.4974-0.1431-0.0000 ( 12160 PWs)   bands (ev):

   -49.8493 -26.0929 -25.8254 -25.7820 -12.2577  -9.1354  -8.9144   1.2196
     1.5093   2.0554   2.5487   2.7617   3.3414   3.4513   3.7335   4.0712
     6.9745   7.0164   7.2574   8.7037  10.0817

     occupation numbers 
     1.0000   1.0000   1.0000   1.0000   1.0000   1.0000   1.0000   1.0000
     1.0000   1.0000   1.0000   1.0000   1.0000   1.0000   1.0000   1.0000
    -0.0352  -0.0244  -0.0000  -0.0000  -0.0000

          k =-1.3311-0.0000-0.0000 ( 12151 PWs)   bands (ev):

   -49.8459 -26.0760 -25.8792 -25.7728 -12.3092  -9.0885  -8.8117   1.0476
     1.0861   2.0373   2.4929   3.0274   3.6052   3.6591   3.8492   3.8654
     6.7153   6.8518   7.6294   8.9805   9.7471

     occupation numbers 
     1.0000   1.0000   1.0000   1.0000   1.0000   1.0000   1.0000   1.0000
     1.0000   1.0000   1.0000   1.0000   1.0000   1.0000   1.0000   1.0000
     0.9376   0.2152  -0.0000  -0.0000  -0.0000

          k = 0.0000 0.0000 0.4513 ( 12116 PWs)   bands (ev):

   -49.8568 -26.0889 -25.8016 -25.7177 -12.3957  -9.2871  -9.0849   1.3476
     2.2163   2.6601   2.7773   3.3289   3.3444   3.3604   3.8286   4.0711
     5.5588   7.2031   7.5295   8.9775   9.8913

     occupation numbers 
     1.0000   1.0000   1.0000   1.0000   1.0000   1.0000   1.0000   1.0000
     1.0000   1.0000   1.0000   1.0000   1.0000   1.0000   1.0000   1.0000
     1.0000  -0.0001  -0.0000  -0.0000  -0.0000

          k =-1.9966-0.1431-0.0451 ( 12151 PWs)   bands (ev):

   -49.8566 -26.1015 -25.8012 -25.7173 -12.3149  -9.2426  -9.1197   1.4114
     2.1436   2.6139   2.6746   2.7604   3.2743   3.5633   3.8907   3.9841
     5.5677   7.4029   7.6326   8.9912  10.1129

     occupation numbers 
     1.0000   1.0000   1.0000   1.0000   1.0000   1.0000   1.0000   1.0000
     1.0000   1.0000   1.0000   1.0000   1.0000   1.0000   1.0000   1.0000
     1.0000  -0.0000  -0.0000  -0.0000  -0.0000

          k =-1.8302 0.0000-0.0451 ( 12123 PWs)   bands (ev):

   -49.8559 -26.0877 -25.7991 -25.7323 -12.3879  -9.2388  -9.0941   1.4721
     1.9263   2.6939   2.7918   3.0978   3.4103   3.5107   3.7896   3.9176
     5.8271   7.1376   7.4858   8.8667   9.9396

     occupation numbers 
     1.0000   1.0000   1.0000   1.0000   1.0000   1.0000   1.0000   1.0000
     1.0000   1.0000   1.0000   1.0000   1.0000   1.0000   1.0000   1.0000
     1.0000  -0.0014  -0.0000  -0.0000  -0.0000

          k = 0.0000 1.4311 0.0000 ( 12179 PWs)   bands (ev):

   -49.8560 -26.1358 -25.7999 -25.7162 -12.0874  -9.1885  -9.1425   1.3596
     2.0428   2.1173   2.2205   2.6807   3.1189   3.2088   3.8584   4.2292
     5.5906   7.9014   7.9322   8.9847  10.5157

     occupation numbers 
     1.0000   1.0000   1.0000   1.0000   1.0000   1.0000   1.0000   1.0000
     1.0000   1.0000   1.0000   1.0000   1.0000   1.0000   1.0000   1.0000
     1.0000  -0.0000  -0.0000  -0.0000  -0.0000

          k =-1.8302-0.1431 0.0000 ( 12161 PWs)   bands (ev):

   -49.8556 -26.1004 -25.7986 -25.7319 -12.3072  -9.2137  -9.1081   1.4910
     1.8994   2.5770   2.6239   3.0319   3.0641   3.5624   3.8226   3.9360
     5.8343   7.3379   7.5860   8.8741  10.1476

     occupation numbers 
     1.0000   1.0000   1.0000   1.0000   1.0000   1.0000   1.0000   1.0000
     1.0000   1.0000   1.0000   1.0000   1.0000   1.0000   1.0000   1.0000
     1.0000  -0.0000  -0.0000  -0.0000  -0.0000

          k =-1.6638 0.0000 0.0000 ( 12135 PWs)   bands (ev):

   -49.8532 -26.0846 -25.7920 -25.7720 -12.3668  -9.1939  -9.0255   1.5127
     1.6094   2.5477   2.6914   2.8401   3.5295   3.7477   3.7509   3.7763
     6.3641   6.9809   7.3335   8.6743   9.9542

     occupation numbers 
     1.0000   1.0000   1.0000   1.0000   1.0000   1.0000   1.0000   1.0000
     1.0000   1.0000   1.0000   1.0000   1.0000   1.0000   1.0000   1.0000
     1.0000  -0.0345  -0.0000  -0.0000  -0.0000

          k =-1.9966-1.7173-0.5415 ( 12132 PWs)   bands (ev):

   -49.8568 -26.0889 -25.8016 -25.7177 -12.3956  -9.2374  -9.1373   1.4638
     2.1018   2.6783   2.7740   3.3142   3.3376   3.3834   3.7853   4.0574
     5.5588   7.2031   7.5427   9.0011   9.9205

     occupation numbers 
     1.0000   1.0000   1.0000   1.0000   1.0000   1.0000   1.0000   1.0000
     1.0000   1.0000   1.0000   1.0000   1.0000   1.0000   1.0000   1.0000
     1.0000  -0.0001  -0.0000  -0.0000  -0.0000

     the Fermi energy is     6.8026 ev

!    total energy              =    -534.96720031 Ry

     total all-electron energy =     -9636.857443 Ry
     estimated scf accuracy    <          3.9E-11 Ry
     smearing contrib. (-TS)   =      -0.00009397 Ry
     internal energy E=F+TS    =    -534.96710634 Ry

     The total energy is F=E-TS. E is the sum of the following terms:
     one-electron contribution =     -93.94528928 Ry
     hartree contribution      =      61.21280595 Ry
     xc contribution           =     -39.53523889 Ry
     ewald contribution        =    -135.48921389 Ry
     one-center paw contrib.   =    -327.21017023 Ry
      -> PAW hartree energy AE =      29.09405633 Ry
      -> PAW hartree energy PS =     -29.06399060 Ry
      -> PAW xc energy AE      =     -17.03837015 Ry
      -> PAW xc energy PS      =       7.41423201 Ry
      -> total E_H with PAW    =      61.24287168 Ry
      -> total E_XC with PAW   =     -49.15937703 Ry

     convergence has been achieved in  13 iterations

     Forces acting on atoms (cartesian axes, Ry/au):

     atom    1 type  1   force =     0.00000000    0.00000000    0.00000000
     atom    2 type  2   force =     0.00000000    0.00000000    0.03625475
     atom    3 type  2   force =     0.00000000    0.00000000   -0.03625475
     atom    4 type  3   force =     0.00000000    0.00000000    0.00000000
     The non-local contrib.  to forces
     atom    1 type  1   force =     0.00000000    0.00000000    0.00000000
     atom    2 type  2   force =     0.00000000    0.00000000    0.06452173
     atom    3 type  2   force =     0.00000000    0.00000000   -0.06452173
     atom    4 type  3   force =     0.00000000    0.00000000    0.00000000
     The ionic contribution  to forces
     atom    1 type  1   force =    -0.00000000   -0.00000000    0.00000000
     atom    2 type  2   force =     0.00000001    0.00000000  -10.07462875
     atom    3 type  2   force =    -0.00000001   -0.00000000   10.07462875
     atom    4 type  3   force =    -0.00000000   -0.00000000    0.00000000
     The local contribution  to forces
     atom    1 type  1   force =     0.00000000    0.00000000    0.00000000
     atom    2 type  2   force =     0.00000002   -0.00000003   10.04483320
     atom    3 type  2   force =    -0.00000002    0.00000003  -10.04483320
     atom    4 type  3   force =     0.00000000    0.00000000    0.00000000
     The core correction contribution to forces
     atom    1 type  1   force =     0.00000000    0.00000000    0.00000000
     atom    2 type  2   force =    -0.00000000    0.00000000    0.00151696
     atom    3 type  2   force =     0.00000000   -0.00000000   -0.00151696
     atom    4 type  3   force =     0.00000000    0.00000000    0.00000000
     The Hubbard contrib.    to forces
     atom    1 type  1   force =     0.00000000    0.00000000    0.00000000
     atom    2 type  2   force =     0.00000000    0.00000000    0.00000000
     atom    3 type  2   force =     0.00000000    0.00000000    0.00000000
     atom    4 type  3   force =     0.00000000    0.00000000    0.00000000
     The SCF correction term to forces
     atom    1 type  1   force =     0.00000000    0.00000000    0.00000000
     atom    2 type  2   force =    -0.00000000    0.00000000    0.00001162
     atom    3 type  2   force =     0.00000000   -0.00000000   -0.00001162
     atom    4 type  3   force =    -0.00000000   -0.00000000    0.00000000

     Total force =     0.051272     Total SCF correction =     0.000016


     Computing stress (Cartesian axis) and pressure

          total   stress  (Ry/bohr**3)                   (kbar)     P=      -39.32
  -0.00027731  -0.00000000   0.00000000          -40.79       -0.00        0.00
  -0.00000000  -0.00025764  -0.00000000           -0.00      -37.90       -0.00
  -0.00000000   0.00000000  -0.00026684           -0.00        0.00      -39.25

     kinetic stress (kbar)  14756.68      0.00      0.00
                                0.00  14824.97      0.00
                                0.00      0.00  14767.97

     local   stress (kbar) -18898.29      0.00      0.00
                                0.00 -24214.34      0.00
                                0.00      0.00   4109.65

     nonloc. stress (kbar)   8010.43      0.00      0.00
                                0.00   7931.06      0.00
                                0.00      0.00   8005.86

     hartree stress (kbar)   8375.84     -0.00     -0.00
                               -0.00  10112.47      0.00
                               -0.00      0.00  -2054.29

     exc-cor stress (kbar)  -1130.94     -0.00     -0.00
                               -0.00  -1121.43     -0.00
                               -0.00     -0.00  -1130.51

     corecor stress (kbar)  -2029.38      0.00      0.00
                                0.00  -2029.18      0.00
                                0.00      0.00  -2029.24

     ewald   stress (kbar)  -9125.13      0.00     -0.00
                                0.00  -5541.44     -0.00
                               -0.00     -0.00 -21708.70

     hubbard stress (kbar)      0.00      0.00      0.00
                                0.00      0.00      0.00
                                0.00      0.00      0.00

     DFT-D   stress (kbar)      0.00      0.00      0.00
                                0.00      0.00      0.00
                                0.00      0.00      0.00

     XDM     stress (kbar)      0.00      0.00      0.00
                                0.00      0.00      0.00
                                0.00      0.00      0.00

     dft-nl  stress (kbar)      0.00      0.00      0.00
                                0.00      0.00      0.00
                                0.00      0.00      0.00

     TS-vdW  stress (kbar)      0.00      0.00      0.00
                                0.00      0.00      0.00
                                0.00      0.00      0.00



     Writing output data file /zfs_data/gutierre/Scratch/Cl2NbO/smearing/12x12x12/0.010/tmp/Cl2NbO.save/
 
     init_run     :      6.47s CPU      6.70s WALL (       1 calls)
     electrons    :    178.67s CPU    182.97s WALL (       1 calls)
     forces       :      0.98s CPU      1.01s WALL (       1 calls)
     stress       :      2.55s CPU      2.56s WALL (       1 calls)

     Called by init_run:
     wfcinit      :      5.30s CPU      5.46s WALL (       1 calls)
     wfcinit:atom :      0.04s CPU      0.04s WALL (     280 calls)
     wfcinit:wfcr :      5.10s CPU      5.26s WALL (     280 calls)
     potinit      :      0.37s CPU      0.39s WALL (       1 calls)
     hinit0       :      0.45s CPU      0.47s WALL (       1 calls)

     Called by electrons:
     c_bands      :    144.41s CPU    147.91s WALL (      13 calls)
     sum_band     :     31.08s CPU     31.78s WALL (      13 calls)
     v_of_rho     :      1.27s CPU      1.30s WALL (      14 calls)
     v_h          :      0.11s CPU      0.11s WALL (      14 calls)
     v_xc         :      1.33s CPU      1.36s WALL (      16 calls)
     newd         :      1.06s CPU      1.07s WALL (      14 calls)
     PAW_pot      :      0.73s CPU      0.74s WALL (      14 calls)
     mix_rho      :      0.19s CPU      0.19s WALL (      13 calls)

     Called by c_bands:
     init_us_2    :      1.99s CPU      2.08s WALL (    8120 calls)
     cegterg      :    140.17s CPU    143.42s WALL (    3640 calls)

     Called by sum_band:
     sum_band:wei :      0.12s CPU      0.12s WALL (      13 calls)
     sum_band:loo :     29.73s CPU     30.39s WALL (      13 calls)
     sum_band:buf :      0.28s CPU      0.29s WALL (    3640 calls)
     sum_band:ini :      0.92s CPU      0.95s WALL (    3640 calls)
     sum_band:cal :      1.07s CPU      1.09s WALL (    3640 calls)
     sum_band:bec :      0.11s CPU      0.11s WALL (    3640 calls)
     addusdens    :      1.05s CPU      1.08s WALL (      13 calls)
     addusd:skk   :      0.01s CPU      0.01s WALL (      39 calls)
     addusd:dgemm :      0.30s CPU      0.32s WALL (      39 calls)
     addusd:qvan2 :      0.69s CPU      0.69s WALL (      39 calls)

     Called by *egterg:
     cdiaghg      :      7.63s CPU      7.88s WALL (   13242 calls)
     cegterg:over :      2.75s CPU      2.82s WALL (    9602 calls)
     cegterg:upda :      0.82s CPU      0.84s WALL (    9602 calls)
     cegterg:last :      1.34s CPU      1.35s WALL (    7096 calls)
     h_psi        :    128.87s CPU    131.87s WALL (   13522 calls)
     s_psi        :      0.90s CPU      0.92s WALL (   13522 calls)
     g_psi        :      0.17s CPU      0.18s WALL (    9602 calls)

     Called by h_psi:
     h_psi:calbec :      3.27s CPU      3.35s WALL (   13522 calls)
     vloc_psi     :    123.72s CPU    126.59s WALL (   13522 calls)
     add_vuspsi   :      1.39s CPU      1.44s WALL (   13522 calls)

     General routines
     calbec       :      4.46s CPU      4.58s WALL (   18562 calls)
     fft          :      1.10s CPU      1.12s WALL (     205 calls)
     ffts         :      0.02s CPU      0.02s WALL (      27 calls)
     fftw         :    135.64s CPU    138.92s WALL (  460748 calls)
     interpolate  :      0.10s CPU      0.10s WALL (      14 calls)
 
     Parallel routines
     fft_scatt_xy :     17.71s CPU     18.00s WALL (  460980 calls)
     fft_scatt_yz :     60.01s CPU     61.47s WALL (  460980 calls)

     PAW routines
     PAW_pot      :      0.73s CPU      0.74s WALL (      14 calls)
     PAW_symme    :      0.02s CPU      0.02s WALL (      27 calls)
 
     PWSCF        :   3m10.64s CPU   3m20.14s WALL

 
   This run was terminated on:  17:40:53  18May2022            

=------------------------------------------------------------------------------=
   JOB DONE.
=------------------------------------------------------------------------------=
