MPI startup(): Warning: I_MPI_PMI_LIBRARY will be ignored since the hydra process manager was found
MPI startup(): Warning: I_MPI_PMI_LIBRARY will be ignored since the hydra process manager was found
MPI startup(): Warning: I_MPI_PMI_LIBRARY will be ignored since the hydra process manager was found
MPI startup(): Warning: I_MPI_PMI_LIBRARY will be ignored since the hydra process manager was found
MPI startup(): Warning: I_MPI_PMI_LIBRARY will be ignored since the hydra process manager was found
MPI startup(): Warning: I_MPI_PMI_LIBRARY will be ignored since the hydra process manager was found
MPI startup(): Warning: I_MPI_PMI_LIBRARY will be ignored since the hydra process manager was found
MPI startup(): Warning: I_MPI_PMI_LIBRARY will be ignored since the hydra process manager was found
MPI startup(): Warning: I_MPI_PMI_LIBRARY will be ignored since the hydra process manager was found
MPI startup(): Warning: I_MPI_PMI_LIBRARY will be ignored since the hydra process manager was found
MPI startup(): Warning: I_MPI_PMI_LIBRARY will be ignored since the hydra process manager was found
MPI startup(): Warning: I_MPI_PMI_LIBRARY will be ignored since the hydra process manager was found
MPI startup(): Warning: I_MPI_PMI_LIBRARY will be ignored since the hydra process manager was found
MPI startup(): Warning: I_MPI_PMI_LIBRARY will be ignored since the hydra process manager was found
MPI startup(): Warning: I_MPI_PMI_LIBRARY will be ignored since the hydra process manager was found
MPI startup(): Warning: I_MPI_PMI_LIBRARY will be ignored since the hydra process manager was found
MPI startup(): Warning: I_MPI_PMI_LIBRARY will be ignored since the hydra process manager was found
MPI startup(): Warning: I_MPI_PMI_LIBRARY will be ignored since the hydra process manager was found
MPI startup(): Warning: I_MPI_PMI_LIBRARY will be ignored since the hydra process manager was found
MPI startup(): Warning: I_MPI_PMI_LIBRARY will be ignored since the hydra process manager was found
MPI startup(): Warning: I_MPI_PMI_LIBRARY will be ignored since the hydra process manager was found
MPI startup(): Warning: I_MPI_PMI_LIBRARY will be ignored since the hydra process manager was found
MPI startup(): Warning: I_MPI_PMI_LIBRARY will be ignored since the hydra process manager was found
MPI startup(): Warning: I_MPI_PMI_LIBRARY will be ignored since the hydra process manager was found

     Program PWSCF v.6.7MaX starts on  1Aug2021 at 12:39:15 

     This program is part of the open-source Quantum ESPRESSO suite
     for quantum simulation of materials; please cite
         "P. Giannozzi et al., J. Phys.:Condens. Matter 21 395502 (2009);
         "P. Giannozzi et al., J. Phys.:Condens. Matter 29 465901 (2017);
          URL http://www.quantum-espresso.org", 
     in publications or presentations arising from this work. More details at
     http://www.quantum-espresso.org/quote

     Parallel version (MPI), running on    24 processors

     MPI processes distributed on     1 nodes
     R & G space division:  proc/nbgrp/npool/nimage =      24
     Waiting for input...
     Reading input from standard input

     Current dimensions of program PWSCF are:
     Max number of different atomic species (ntypx) = 10
     Max number of k-points (npk) =  40000
     Max angular momentum in pseudopotentials (lmaxx) =  3
     file Cr.rel-pbe-spn-kjpaw_psl.1.0.0.UPF: wavefunction(s)  3S 3P 3P 3D 3D renormalized
     file Si.rel-pbe-n-kjpaw_psl.1.0.0.UPF: wavefunction(s)  3S 3P 3P renormalized

     Subspace diagonalization in iterative solution of the eigenvalue problem:
     a serial algorithm will be used

     Message from routine setup:
     using ibrav=0 with symmetry is DISCOURAGED, use correct ibrav instead
 
     Parallelization info
     --------------------
     sticks:   dense  smooth     PW     G-vecs:    dense   smooth      PW
     Min         228      91     25                12702     3210     487
     Max         229      93     26                12704     3214     492
     Sum        5473    2201    621               304867    77053   11753
 


     bravais-lattice index     =            0
     lattice parameter (alat)  =       8.7475  a.u.
     unit-cell volume          =     669.3575 (a.u.)^3
     number of atoms/cell      =            8
     number of atomic types    =            2
     number of electrons       =        72.00
     number of Kohn-Sham states=           86
     kinetic-energy cutoff     =      90.0000  Ry
     charge density cutoff     =     900.0000  Ry
     scf convergence threshold =      1.0E-06
     mixing beta               =       0.7000
     number of iterations used =            8  plain     mixing
     Exchange-correlation= SLA  PW   PBX  PBC
                           (   1   4   3   4   0   0   0)
     Non magnetic calculation with spin-orbit


     celldm(1)=   8.747542  celldm(2)=   0.000000  celldm(3)=   0.000000
     celldm(4)=   0.000000  celldm(5)=   0.000000  celldm(6)=   0.000000

     crystal axes: (cart. coord. in units of alat)
               a(1) = (   1.000000   0.000000   0.000000 )  
               a(2) = (   0.000000   1.000000   0.000000 )  
               a(3) = (   0.000000   0.000000   1.000000 )  

     reciprocal axes: (cart. coord. in units 2 pi/alat)
               b(1) = (  1.000000  0.000000  0.000000 )  
               b(2) = (  0.000000  1.000000  0.000000 )  
               b(3) = (  0.000000  0.000000  1.000000 )  


     PseudoPot. # 1 for Cr read from file:
     ../../../../pseudo/Cr.rel-pbe-spn-kjpaw_psl.1.0.0.UPF
     MD5 check sum: 1e24e2b5251376a8b945118fca0c7981
     Pseudo is Projector augmented-wave + core cor, Zval = 14.0
     Generated using &quot;atomic&quot; code by A. Dal Corso  v.6.3
     Shape of augmentation charge: PSQ
     Using radial grid of 1183 points, 10 beta functions with: 
                l(1) =   0
                l(2) =   0
                l(3) =   1
                l(4) =   1
                l(5) =   1
                l(6) =   1
                l(7) =   2
                l(8) =   2
                l(9) =   2
               l(10) =   2
     Q(r) pseudized with 0 coefficients 


     PseudoPot. # 2 for Si read from file:
     ../../../../pseudo/Si.rel-pbe-n-kjpaw_psl.1.0.0.UPF
     MD5 check sum: d74f6caf6830ea4c2076867160cab1b0
     Pseudo is Projector augmented-wave + core cor, Zval =  4.0
     Generated using &quot;atomic&quot; code by A. Dal Corso  v.6.3
     Shape of augmentation charge: PSQ
     Using radial grid of 1141 points, 10 beta functions with: 
                l(1) =   0
                l(2) =   0
                l(3) =   1
                l(4) =   1
                l(5) =   1
                l(6) =   1
                l(7) =   2
                l(8) =   2
                l(9) =   2
               l(10) =   2
     Q(r) pseudized with 0 coefficients 


     atomic species   valence    mass     pseudopotential
        Cr            14.00    51.99600     Cr( 1.00)
        Si             4.00    28.08500     Si( 1.00)

     12 Sym. Ops. (no inversion) found ( 9 have fractional translation)


                                    s                        frac. trans.

      isym =  1     identity                                     

 cryst.   s( 1) = (     1          0          0      )
                  (     0          1          0      )
                  (     0          0          1      )

 cart.    s( 1) = (  1.0000000  0.0000000  0.0000000 )
                  (  0.0000000  1.0000000  0.0000000 )
                  (  0.0000000  0.0000000  1.0000000 )


      isym =  2     180 deg rotation - cart. axis [0,0,1]        

 cryst.   s( 2) = (    -1          0          0      )    f =(  0.5000000 )
                  (     0         -1          0      )       (  0.0000000 )
                  (     0          0          1      )       ( -0.5000000 )

 cart.    s( 2) = ( -1.0000000  0.0000000  0.0000000 )    f =(  0.5000000 )
                  (  0.0000000 -1.0000000  0.0000000 )       (  0.0000000 )
                  (  0.0000000  0.0000000  1.0000000 )       ( -0.5000000 )


      isym =  3     180 deg rotation - cart. axis [0,1,0]        

 cryst.   s( 3) = (    -1          0          0      )    f =(  0.0000000 )
                  (     0          1          0      )       ( -0.5000000 )
                  (     0          0         -1      )       (  0.5000000 )

 cart.    s( 3) = ( -1.0000000  0.0000000  0.0000000 )    f =(  0.0000000 )
                  (  0.0000000  1.0000000  0.0000000 )       ( -0.5000000 )
                  (  0.0000000  0.0000000 -1.0000000 )       (  0.5000000 )


      isym =  4     180 deg rotation - cart. axis [1,0,0]        

 cryst.   s( 4) = (     1          0          0      )    f =(  0.5000000 )
                  (     0         -1          0      )       (  0.5000000 )
                  (     0          0         -1      )       (  0.0000000 )

 cart.    s( 4) = (  1.0000000  0.0000000  0.0000000 )    f =(  0.5000000 )
                  (  0.0000000 -1.0000000  0.0000000 )       (  0.5000000 )
                  (  0.0000000  0.0000000 -1.0000000 )       (  0.0000000 )


      isym =  5     120 deg rotation - cart. axis [-1,-1,-1]     

 cryst.   s( 5) = (     0          0          1      )
                  (     1          0          0      )
                  (     0          1          0      )

 cart.    s( 5) = (  0.0000000  1.0000000  0.0000000 )
                  (  0.0000000  0.0000000  1.0000000 )
                  (  1.0000000  0.0000000  0.0000000 )


      isym =  6     120 deg rotation - cart. axis [-1,1,1]       

 cryst.   s( 6) = (     0          0         -1      )    f =(  0.0000000 )
                  (    -1          0          0      )       ( -0.5000000 )
                  (     0          1          0      )       (  0.5000000 )

 cart.    s( 6) = (  0.0000000 -1.0000000  0.0000000 )    f =(  0.0000000 )
                  (  0.0000000  0.0000000  1.0000000 )       ( -0.5000000 )
                  ( -1.0000000  0.0000000  0.0000000 )       (  0.5000000 )


      isym =  7     120 deg rotation - cart. axis [1,1,-1]       

 cryst.   s( 7) = (     0          0         -1      )    f =(  0.5000000 )
                  (     1          0          0      )       (  0.5000000 )
                  (     0         -1          0      )       (  0.0000000 )

 cart.    s( 7) = (  0.0000000  1.0000000  0.0000000 )    f =(  0.5000000 )
                  (  0.0000000  0.0000000 -1.0000000 )       (  0.5000000 )
                  ( -1.0000000  0.0000000  0.0000000 )       (  0.0000000 )


      isym =  8     120 deg rotation - cart. axis [1,-1,1]       

 cryst.   s( 8) = (     0          0          1      )    f =(  0.5000000 )
                  (    -1          0          0      )       (  0.0000000 )
                  (     0         -1          0      )       ( -0.5000000 )

 cart.    s( 8) = (  0.0000000 -1.0000000  0.0000000 )    f =(  0.5000000 )
                  (  0.0000000  0.0000000 -1.0000000 )       (  0.0000000 )
                  (  1.0000000  0.0000000  0.0000000 )       ( -0.5000000 )


      isym =  9     120 deg rotation - cart. axis [1,1,1]        

 cryst.   s( 9) = (     0          1          0      )
                  (     0          0          1      )
                  (     1          0          0      )

 cart.    s( 9) = (  0.0000000  0.0000000  1.0000000 )
                  (  1.0000000  0.0000000  0.0000000 )
                  (  0.0000000  1.0000000  0.0000000 )


      isym = 10     120 deg rotation - cart. axis [-1,1,-1]      

 cryst.   s(10) = (     0         -1          0      )    f =(  0.5000000 )
                  (     0          0         -1      )       (  0.5000000 )
                  (     1          0          0      )       (  0.0000000 )

 cart.    s(10) = (  0.0000000  0.0000000  1.0000000 )    f =(  0.5000000 )
                  ( -1.0000000  0.0000000  0.0000000 )       (  0.5000000 )
                  (  0.0000000 -1.0000000  0.0000000 )       (  0.0000000 )


      isym = 11     120 deg rotation - cart. axis [1,-1,-1]      

 cryst.   s(11) = (     0         -1          0      )    f =(  0.5000000 )
                  (     0          0          1      )       (  0.0000000 )
                  (    -1          0          0      )       ( -0.5000000 )

 cart.    s(11) = (  0.0000000  0.0000000 -1.0000000 )    f =(  0.5000000 )
                  ( -1.0000000  0.0000000  0.0000000 )       (  0.0000000 )
                  (  0.0000000  1.0000000  0.0000000 )       ( -0.5000000 )


      isym = 12     120 deg rotation - cart. axis [-1,-1,1]      

 cryst.   s(12) = (     0          1          0      )    f =(  0.0000000 )
                  (     0          0         -1      )       ( -0.5000000 )
                  (    -1          0          0      )       (  0.5000000 )

 cart.    s(12) = (  0.0000000  0.0000000 -1.0000000 )    f =(  0.0000000 )
                  (  1.0000000  0.0000000  0.0000000 )       ( -0.5000000 )
                  (  0.0000000 -1.0000000  0.0000000 )       (  0.5000000 )


   Cartesian axes

     site n.     atom                  positions (alat units)
         1           Cr  tau(   1) = (   0.8640000   0.3640000   0.1360000  )
         2           Cr  tau(   2) = (   0.3640000   0.1360000   0.8640000  )
         3           Cr  tau(   3) = (   0.1360000   0.8640000   0.3640000  )
         4           Cr  tau(   4) = (   0.6360000   0.6360000   0.6360000  )
         5           Si  tau(   5) = (   0.1540000   0.6540000   0.8460000  )
         6           Si  tau(   6) = (   0.6540000   0.8460000   0.1540000  )
         7           Si  tau(   7) = (   0.8460000   0.1540000   0.6540000  )
         8           Si  tau(   8) = (   0.3460000   0.3460000   0.3460000  )

   Crystallographic axes

     site n.     atom                  positions (cryst. coord.)
         1           Cr  tau(   1) = (  0.8640000  0.3640000  0.1360000  )
         2           Cr  tau(   2) = (  0.3640000  0.1360000  0.8640000  )
         3           Cr  tau(   3) = (  0.1360000  0.8640000  0.3640000  )
         4           Cr  tau(   4) = (  0.6360000  0.6360000  0.6360000  )
         5           Si  tau(   5) = (  0.1540000  0.6540000  0.8460000  )
         6           Si  tau(   6) = (  0.6540000  0.8460000  0.1540000  )
         7           Si  tau(   7) = (  0.8460000  0.1540000  0.6540000  )
         8           Si  tau(   8) = (  0.3460000  0.3460000  0.3460000  )

     number of k points=   119  Methfessel-Paxton smearing, width (Ry)=  0.0100
                       cart. coord. in units 2pi/alat
        k(    1) = (   0.0000000   0.0000000   0.0000000), wk =   0.0005787
        k(    2) = (   0.0000000   0.0000000   0.0833333), wk =   0.0034722
        k(    3) = (   0.0000000   0.0000000   0.1666667), wk =   0.0034722
        k(    4) = (   0.0000000   0.0000000   0.2500000), wk =   0.0034722
        k(    5) = (   0.0000000   0.0000000   0.3333333), wk =   0.0034722
        k(    6) = (   0.0000000   0.0000000   0.4166667), wk =   0.0034722
        k(    7) = (   0.0000000   0.0000000  -0.5000000), wk =   0.0017361
        k(    8) = (   0.0000000   0.0833333   0.0833333), wk =   0.0069444
        k(    9) = (   0.0000000   0.0833333   0.1666667), wk =   0.0069444
        k(   10) = (   0.0000000   0.0833333   0.2500000), wk =   0.0069444
        k(   11) = (   0.0000000   0.0833333   0.3333333), wk =   0.0069444
        k(   12) = (   0.0000000   0.0833333   0.4166667), wk =   0.0069444
        k(   13) = (   0.0000000   0.0833333  -0.5000000), wk =   0.0034722
        k(   14) = (   0.0000000   0.1666667   0.1666667), wk =   0.0069444
        k(   15) = (   0.0000000   0.1666667   0.2500000), wk =   0.0069444
        k(   16) = (   0.0000000   0.1666667   0.3333333), wk =   0.0069444
        k(   17) = (   0.0000000   0.1666667   0.4166667), wk =   0.0069444
        k(   18) = (   0.0000000   0.1666667  -0.5000000), wk =   0.0034722
        k(   19) = (   0.0000000   0.2500000   0.2500000), wk =   0.0069444
        k(   20) = (   0.0000000   0.2500000   0.3333333), wk =   0.0069444
        k(   21) = (   0.0000000   0.2500000   0.4166667), wk =   0.0069444
        k(   22) = (   0.0000000   0.2500000  -0.5000000), wk =   0.0034722
        k(   23) = (   0.0000000   0.3333333   0.3333333), wk =   0.0069444
        k(   24) = (   0.0000000   0.3333333   0.4166667), wk =   0.0069444
        k(   25) = (   0.0000000   0.3333333  -0.5000000), wk =   0.0034722
        k(   26) = (   0.0000000   0.4166667   0.4166667), wk =   0.0069444
        k(   27) = (   0.0000000   0.4166667  -0.5000000), wk =   0.0034722
        k(   28) = (   0.0000000  -0.5000000  -0.5000000), wk =   0.0017361
        k(   29) = (   0.0833333   0.0833333   0.0833333), wk =   0.0046296
        k(   30) = (   0.0833333   0.0833333   0.1666667), wk =   0.0138889
        k(   31) = (   0.0833333   0.0833333   0.2500000), wk =   0.0138889
        k(   32) = (   0.0833333   0.0833333   0.3333333), wk =   0.0138889
        k(   33) = (   0.0833333   0.0833333   0.4166667), wk =   0.0138889
        k(   34) = (   0.0833333   0.0833333  -0.5000000), wk =   0.0069444
        k(   35) = (   0.0833333   0.1666667   0.1666667), wk =   0.0138889
        k(   36) = (   0.0833333   0.1666667   0.2500000), wk =   0.0138889
        k(   37) = (   0.0833333   0.1666667   0.3333333), wk =   0.0138889
        k(   38) = (   0.0833333   0.1666667   0.4166667), wk =   0.0138889
        k(   39) = (   0.0833333   0.1666667  -0.5000000), wk =   0.0069444
        k(   40) = (   0.0833333   0.2500000   0.2500000), wk =   0.0138889
        k(   41) = (   0.0833333   0.2500000   0.3333333), wk =   0.0138889
        k(   42) = (   0.0833333   0.2500000   0.4166667), wk =   0.0138889
        k(   43) = (   0.0833333   0.2500000  -0.5000000), wk =   0.0069444
        k(   44) = (   0.0833333   0.3333333   0.3333333), wk =   0.0138889
        k(   45) = (   0.0833333   0.3333333   0.4166667), wk =   0.0138889
        k(   46) = (   0.0833333   0.3333333  -0.5000000), wk =   0.0069444
        k(   47) = (   0.0833333   0.4166667   0.4166667), wk =   0.0138889
        k(   48) = (   0.0833333   0.4166667  -0.5000000), wk =   0.0069444
        k(   49) = (   0.0833333  -0.5000000  -0.5000000), wk =   0.0034722
        k(   50) = (   0.1666667   0.1666667   0.1666667), wk =   0.0046296
        k(   51) = (   0.1666667   0.1666667   0.2500000), wk =   0.0138889
        k(   52) = (   0.1666667   0.1666667   0.3333333), wk =   0.0138889
        k(   53) = (   0.1666667   0.1666667   0.4166667), wk =   0.0138889
        k(   54) = (   0.1666667   0.1666667  -0.5000000), wk =   0.0069444
        k(   55) = (   0.1666667   0.2500000   0.2500000), wk =   0.0138889
        k(   56) = (   0.1666667   0.2500000   0.3333333), wk =   0.0138889
        k(   57) = (   0.1666667   0.2500000   0.4166667), wk =   0.0138889
        k(   58) = (   0.1666667   0.2500000  -0.5000000), wk =   0.0069444
        k(   59) = (   0.1666667   0.3333333   0.3333333), wk =   0.0138889
        k(   60) = (   0.1666667   0.3333333   0.4166667), wk =   0.0138889
        k(   61) = (   0.1666667   0.3333333  -0.5000000), wk =   0.0069444
        k(   62) = (   0.1666667   0.4166667   0.4166667), wk =   0.0138889
        k(   63) = (   0.1666667   0.4166667  -0.5000000), wk =   0.0069444
        k(   64) = (   0.1666667  -0.5000000  -0.5000000), wk =   0.0034722
        k(   65) = (   0.2500000   0.2500000   0.2500000), wk =   0.0046296
        k(   66) = (   0.2500000   0.2500000   0.3333333), wk =   0.0138889
        k(   67) = (   0.2500000   0.2500000   0.4166667), wk =   0.0138889
        k(   68) = (   0.2500000   0.2500000  -0.5000000), wk =   0.0069444
        k(   69) = (   0.2500000   0.3333333   0.3333333), wk =   0.0138889
        k(   70) = (   0.2500000   0.3333333   0.4166667), wk =   0.0138889
        k(   71) = (   0.2500000   0.3333333  -0.5000000), wk =   0.0069444
        k(   72) = (   0.2500000   0.4166667   0.4166667), wk =   0.0138889
        k(   73) = (   0.2500000   0.4166667  -0.5000000), wk =   0.0069444
        k(   74) = (   0.2500000  -0.5000000  -0.5000000), wk =   0.0034722
        k(   75) = (   0.3333333   0.3333333   0.3333333), wk =   0.0046296
        k(   76) = (   0.3333333   0.3333333   0.4166667), wk =   0.0138889
        k(   77) = (   0.3333333   0.3333333  -0.5000000), wk =   0.0069444
        k(   78) = (   0.3333333   0.4166667   0.4166667), wk =   0.0138889
        k(   79) = (   0.3333333   0.4166667  -0.5000000), wk =   0.0069444
        k(   80) = (   0.3333333  -0.5000000  -0.5000000), wk =   0.0034722
        k(   81) = (   0.4166667   0.4166667   0.4166667), wk =   0.0046296
        k(   82) = (   0.4166667   0.4166667  -0.5000000), wk =   0.0069444
        k(   83) = (   0.4166667  -0.5000000  -0.5000000), wk =   0.0034722
        k(   84) = (  -0.5000000  -0.5000000  -0.5000000), wk =   0.0005787
        k(   85) = (   0.0000000   0.1666667   0.0833333), wk =   0.0069444
        k(   86) = (   0.0000000   0.2500000   0.0833333), wk =   0.0069444
        k(   87) = (   0.0000000   0.3333333   0.0833333), wk =   0.0069444
        k(   88) = (   0.0000000   0.4166667   0.0833333), wk =   0.0069444
        k(   89) = (   0.0000000  -0.5000000   0.0833333), wk =   0.0034722
        k(   90) = (   0.0000000   0.2500000   0.1666667), wk =   0.0069444
        k(   91) = (   0.0000000   0.3333333   0.1666667), wk =   0.0069444
        k(   92) = (   0.0000000   0.4166667   0.1666667), wk =   0.0069444
        k(   93) = (   0.0000000  -0.5000000   0.1666667), wk =   0.0034722
        k(   94) = (   0.0000000   0.3333333   0.2500000), wk =   0.0069444
        k(   95) = (   0.0000000   0.4166667   0.2500000), wk =   0.0069444
        k(   96) = (   0.0000000  -0.5000000   0.2500000), wk =   0.0034722
        k(   97) = (   0.0000000   0.4166667   0.3333333), wk =   0.0069444
        k(   98) = (   0.0000000  -0.5000000   0.3333333), wk =   0.0034722
        k(   99) = (   0.0000000  -0.5000000   0.4166667), wk =   0.0034722
        k(  100) = (  -0.0833333   0.2500000   0.1666667), wk =   0.0138889
        k(  101) = (  -0.0833333   0.3333333   0.1666667), wk =   0.0138889
        k(  102) = (  -0.0833333   0.4166667   0.1666667), wk =   0.0138889
        k(  103) = (  -0.0833333  -0.5000000   0.1666667), wk =   0.0069444
        k(  104) = (  -0.0833333   0.3333333   0.2500000), wk =   0.0138889
        k(  105) = (  -0.0833333   0.4166667   0.2500000), wk =   0.0138889
        k(  106) = (  -0.0833333  -0.5000000   0.2500000), wk =   0.0069444
        k(  107) = (  -0.0833333   0.4166667   0.3333333), wk =   0.0138889
        k(  108) = (  -0.0833333  -0.5000000   0.3333333), wk =   0.0069444
        k(  109) = (  -0.0833333  -0.5000000   0.4166667), wk =   0.0069444
        k(  110) = (  -0.1666667   0.3333333   0.2500000), wk =   0.0138889
        k(  111) = (  -0.1666667   0.4166667   0.2500000), wk =   0.0138889
        k(  112) = (  -0.1666667  -0.5000000   0.2500000), wk =   0.0069444
        k(  113) = (  -0.1666667   0.4166667   0.3333333), wk =   0.0138889
        k(  114) = (  -0.1666667  -0.5000000   0.3333333), wk =   0.0069444
        k(  115) = (  -0.1666667  -0.5000000   0.4166667), wk =   0.0069444
        k(  116) = (  -0.2500000   0.4166667   0.3333333), wk =   0.0138889
        k(  117) = (  -0.2500000  -0.5000000   0.3333333), wk =   0.0069444
        k(  118) = (  -0.2500000  -0.5000000   0.4166667), wk =   0.0069444
        k(  119) = (  -0.3333333  -0.5000000   0.4166667), wk =   0.0069444

                       cryst. coord.
        k(    1) = (   0.0000000   0.0000000   0.0000000), wk =   0.0005787
        k(    2) = (   0.0000000   0.0000000   0.0833333), wk =   0.0034722
        k(    3) = (   0.0000000   0.0000000   0.1666667), wk =   0.0034722
        k(    4) = (   0.0000000   0.0000000   0.2500000), wk =   0.0034722
        k(    5) = (   0.0000000   0.0000000   0.3333333), wk =   0.0034722
        k(    6) = (   0.0000000   0.0000000   0.4166667), wk =   0.0034722
        k(    7) = (   0.0000000   0.0000000  -0.5000000), wk =   0.0017361
        k(    8) = (   0.0000000   0.0833333   0.0833333), wk =   0.0069444
        k(    9) = (   0.0000000   0.0833333   0.1666667), wk =   0.0069444
        k(   10) = (   0.0000000   0.0833333   0.2500000), wk =   0.0069444
        k(   11) = (   0.0000000   0.0833333   0.3333333), wk =   0.0069444
        k(   12) = (   0.0000000   0.0833333   0.4166667), wk =   0.0069444
        k(   13) = (   0.0000000   0.0833333  -0.5000000), wk =   0.0034722
        k(   14) = (   0.0000000   0.1666667   0.1666667), wk =   0.0069444
        k(   15) = (   0.0000000   0.1666667   0.2500000), wk =   0.0069444
        k(   16) = (   0.0000000   0.1666667   0.3333333), wk =   0.0069444
        k(   17) = (   0.0000000   0.1666667   0.4166667), wk =   0.0069444
        k(   18) = (   0.0000000   0.1666667  -0.5000000), wk =   0.0034722
        k(   19) = (   0.0000000   0.2500000   0.2500000), wk =   0.0069444
        k(   20) = (   0.0000000   0.2500000   0.3333333), wk =   0.0069444
        k(   21) = (   0.0000000   0.2500000   0.4166667), wk =   0.0069444
        k(   22) = (   0.0000000   0.2500000  -0.5000000), wk =   0.0034722
        k(   23) = (   0.0000000   0.3333333   0.3333333), wk =   0.0069444
        k(   24) = (   0.0000000   0.3333333   0.4166667), wk =   0.0069444
        k(   25) = (   0.0000000   0.3333333  -0.5000000), wk =   0.0034722
        k(   26) = (   0.0000000   0.4166667   0.4166667), wk =   0.0069444
        k(   27) = (   0.0000000   0.4166667  -0.5000000), wk =   0.0034722
        k(   28) = (   0.0000000  -0.5000000  -0.5000000), wk =   0.0017361
        k(   29) = (   0.0833333   0.0833333   0.0833333), wk =   0.0046296
        k(   30) = (   0.0833333   0.0833333   0.1666667), wk =   0.0138889
        k(   31) = (   0.0833333   0.0833333   0.2500000), wk =   0.0138889
        k(   32) = (   0.0833333   0.0833333   0.3333333), wk =   0.0138889
        k(   33) = (   0.0833333   0.0833333   0.4166667), wk =   0.0138889
        k(   34) = (   0.0833333   0.0833333  -0.5000000), wk =   0.0069444
        k(   35) = (   0.0833333   0.1666667   0.1666667), wk =   0.0138889
        k(   36) = (   0.0833333   0.1666667   0.2500000), wk =   0.0138889
        k(   37) = (   0.0833333   0.1666667   0.3333333), wk =   0.0138889
        k(   38) = (   0.0833333   0.1666667   0.4166667), wk =   0.0138889
        k(   39) = (   0.0833333   0.1666667  -0.5000000), wk =   0.0069444
        k(   40) = (   0.0833333   0.2500000   0.2500000), wk =   0.0138889
        k(   41) = (   0.0833333   0.2500000   0.3333333), wk =   0.0138889
        k(   42) = (   0.0833333   0.2500000   0.4166667), wk =   0.0138889
        k(   43) = (   0.0833333   0.2500000  -0.5000000), wk =   0.0069444
        k(   44) = (   0.0833333   0.3333333   0.3333333), wk =   0.0138889
        k(   45) = (   0.0833333   0.3333333   0.4166667), wk =   0.0138889
        k(   46) = (   0.0833333   0.3333333  -0.5000000), wk =   0.0069444
        k(   47) = (   0.0833333   0.4166667   0.4166667), wk =   0.0138889
        k(   48) = (   0.0833333   0.4166667  -0.5000000), wk =   0.0069444
        k(   49) = (   0.0833333  -0.5000000  -0.5000000), wk =   0.0034722
        k(   50) = (   0.1666667   0.1666667   0.1666667), wk =   0.0046296
        k(   51) = (   0.1666667   0.1666667   0.2500000), wk =   0.0138889
        k(   52) = (   0.1666667   0.1666667   0.3333333), wk =   0.0138889
        k(   53) = (   0.1666667   0.1666667   0.4166667), wk =   0.0138889
        k(   54) = (   0.1666667   0.1666667  -0.5000000), wk =   0.0069444
        k(   55) = (   0.1666667   0.2500000   0.2500000), wk =   0.0138889
        k(   56) = (   0.1666667   0.2500000   0.3333333), wk =   0.0138889
        k(   57) = (   0.1666667   0.2500000   0.4166667), wk =   0.0138889
        k(   58) = (   0.1666667   0.2500000  -0.5000000), wk =   0.0069444
        k(   59) = (   0.1666667   0.3333333   0.3333333), wk =   0.0138889
        k(   60) = (   0.1666667   0.3333333   0.4166667), wk =   0.0138889
        k(   61) = (   0.1666667   0.3333333  -0.5000000), wk =   0.0069444
        k(   62) = (   0.1666667   0.4166667   0.4166667), wk =   0.0138889
        k(   63) = (   0.1666667   0.4166667  -0.5000000), wk =   0.0069444
        k(   64) = (   0.1666667  -0.5000000  -0.5000000), wk =   0.0034722
        k(   65) = (   0.2500000   0.2500000   0.2500000), wk =   0.0046296
        k(   66) = (   0.2500000   0.2500000   0.3333333), wk =   0.0138889
        k(   67) = (   0.2500000   0.2500000   0.4166667), wk =   0.0138889
        k(   68) = (   0.2500000   0.2500000  -0.5000000), wk =   0.0069444
        k(   69) = (   0.2500000   0.3333333   0.3333333), wk =   0.0138889
        k(   70) = (   0.2500000   0.3333333   0.4166667), wk =   0.0138889
        k(   71) = (   0.2500000   0.3333333  -0.5000000), wk =   0.0069444
        k(   72) = (   0.2500000   0.4166667   0.4166667), wk =   0.0138889
        k(   73) = (   0.2500000   0.4166667  -0.5000000), wk =   0.0069444
        k(   74) = (   0.2500000  -0.5000000  -0.5000000), wk =   0.0034722
        k(   75) = (   0.3333333   0.3333333   0.3333333), wk =   0.0046296
        k(   76) = (   0.3333333   0.3333333   0.4166667), wk =   0.0138889
        k(   77) = (   0.3333333   0.3333333  -0.5000000), wk =   0.0069444
        k(   78) = (   0.3333333   0.4166667   0.4166667), wk =   0.0138889
        k(   79) = (   0.3333333   0.4166667  -0.5000000), wk =   0.0069444
        k(   80) = (   0.3333333  -0.5000000  -0.5000000), wk =   0.0034722
        k(   81) = (   0.4166667   0.4166667   0.4166667), wk =   0.0046296
        k(   82) = (   0.4166667   0.4166667  -0.5000000), wk =   0.0069444
        k(   83) = (   0.4166667  -0.5000000  -0.5000000), wk =   0.0034722
        k(   84) = (  -0.5000000  -0.5000000  -0.5000000), wk =   0.0005787
        k(   85) = (   0.0000000   0.1666667   0.0833333), wk =   0.0069444
        k(   86) = (   0.0000000   0.2500000   0.0833333), wk =   0.0069444
        k(   87) = (   0.0000000   0.3333333   0.0833333), wk =   0.0069444
        k(   88) = (   0.0000000   0.4166667   0.0833333), wk =   0.0069444
        k(   89) = (   0.0000000  -0.5000000   0.0833333), wk =   0.0034722
        k(   90) = (   0.0000000   0.2500000   0.1666667), wk =   0.0069444
        k(   91) = (   0.0000000   0.3333333   0.1666667), wk =   0.0069444
        k(   92) = (   0.0000000   0.4166667   0.1666667), wk =   0.0069444
        k(   93) = (   0.0000000  -0.5000000   0.1666667), wk =   0.0034722
        k(   94) = (   0.0000000   0.3333333   0.2500000), wk =   0.0069444
        k(   95) = (   0.0000000   0.4166667   0.2500000), wk =   0.0069444
        k(   96) = (   0.0000000  -0.5000000   0.2500000), wk =   0.0034722
        k(   97) = (   0.0000000   0.4166667   0.3333333), wk =   0.0069444
        k(   98) = (   0.0000000  -0.5000000   0.3333333), wk =   0.0034722
        k(   99) = (   0.0000000  -0.5000000   0.4166667), wk =   0.0034722
        k(  100) = (  -0.0833333   0.2500000   0.1666667), wk =   0.0138889
        k(  101) = (  -0.0833333   0.3333333   0.1666667), wk =   0.0138889
        k(  102) = (  -0.0833333   0.4166667   0.1666667), wk =   0.0138889
        k(  103) = (  -0.0833333  -0.5000000   0.1666667), wk =   0.0069444
        k(  104) = (  -0.0833333   0.3333333   0.2500000), wk =   0.0138889
        k(  105) = (  -0.0833333   0.4166667   0.2500000), wk =   0.0138889
        k(  106) = (  -0.0833333  -0.5000000   0.2500000), wk =   0.0069444
        k(  107) = (  -0.0833333   0.4166667   0.3333333), wk =   0.0138889
        k(  108) = (  -0.0833333  -0.5000000   0.3333333), wk =   0.0069444
        k(  109) = (  -0.0833333  -0.5000000   0.4166667), wk =   0.0069444
        k(  110) = (  -0.1666667   0.3333333   0.2500000), wk =   0.0138889
        k(  111) = (  -0.1666667   0.4166667   0.2500000), wk =   0.0138889
        k(  112) = (  -0.1666667  -0.5000000   0.2500000), wk =   0.0069444
        k(  113) = (  -0.1666667   0.4166667   0.3333333), wk =   0.0138889
        k(  114) = (  -0.1666667  -0.5000000   0.3333333), wk =   0.0069444
        k(  115) = (  -0.1666667  -0.5000000   0.4166667), wk =   0.0069444
        k(  116) = (  -0.2500000   0.4166667   0.3333333), wk =   0.0138889
        k(  117) = (  -0.2500000  -0.5000000   0.3333333), wk =   0.0069444
        k(  118) = (  -0.2500000  -0.5000000   0.4166667), wk =   0.0069444
        k(  119) = (  -0.3333333  -0.5000000   0.4166667), wk =   0.0069444

     Dense  grid:   304867 G-vectors     FFT dimensions: (  90,  90,  90)

     Smooth grid:    77053 G-vectors     FFT dimensions: (  54,  54,  54)

     Dynamical RAM for                 wfc:       1.06 MB

     Dynamical RAM for     wfc (w. buffer):     126.61 MB

     Dynamical RAM for           str. fact:       0.39 MB

     Dynamical RAM for           local pot:       0.00 MB

     Dynamical RAM for          nlocal pot:       1.67 MB

     Dynamical RAM for                qrad:      12.61 MB

     Dynamical RAM for          rho,v,vnew:       5.29 MB

     Dynamical RAM for               rhoin:       1.76 MB

     Dynamical RAM for            rho*nmix:      12.41 MB

     Dynamical RAM for           G-vectors:       0.75 MB

     Dynamical RAM for          h,s,v(r/c):       1.35 MB

     Dynamical RAM for          <psi|beta>:       0.71 MB

     Dynamical RAM for                 psi:       2.11 MB

     Dynamical RAM for                hpsi:       2.11 MB

     Dynamical RAM for                spsi:       2.11 MB

     Dynamical RAM for      wfcinit/wfcrot:       2.35 MB

     Dynamical RAM for           addusdens:     119.02 MB

     Dynamical RAM for          addusforce:     120.34 MB

     Dynamical RAM for         addusstress:     121.74 MB

     Estimated static dynamical RAM per process >     164.04 MB

     Estimated max dynamical RAM per process >     285.78 MB

     Estimated total dynamical RAM >       6.70 GB

     Initial potential from superposition of free atoms

     starting charge   71.99469, renormalised to   72.00000
     Starting wfcs are  112 randomized atomic wfcs
     Checking if some PAW data can be deallocated... 
       PAW data deallocated on   12 nodes for type:  1
       PAW data deallocated on   12 nodes for type:  2

     total cpu time spent up to now is       20.7 secs

     Self-consistent Calculation

     iteration #  1     ecut=    90.00 Ry     beta= 0.70
     Davidson diagonalization with overlap
     ethr =  1.00E-02,  avg # of iterations =  2.0

     Threshold (ethr) on eigenvalues was too large:
     Diagonalizing with lowered threshold

     Davidson diagonalization with overlap
     ethr =  2.09E-04,  avg # of iterations =  4.4

     total cpu time spent up to now is      163.5 secs

     total energy              =   -1180.30949738 Ry
     estimated scf accuracy    <       0.18957793 Ry

     iteration #  2     ecut=    90.00 Ry     beta= 0.70
     Davidson diagonalization with overlap
     ethr =  2.63E-04,  avg # of iterations =  3.2

     total cpu time spent up to now is      241.3 secs

     total energy              =   -1180.31357393 Ry
     estimated scf accuracy    <       0.08368065 Ry

     iteration #  3     ecut=    90.00 Ry     beta= 0.70
     Davidson diagonalization with overlap
     ethr =  1.16E-04,  avg # of iterations =  5.0

     total cpu time spent up to now is      333.6 secs

     total energy              =   -1180.32575804 Ry
     estimated scf accuracy    <       0.16427421 Ry

     iteration #  4     ecut=    90.00 Ry     beta= 0.70
     Davidson diagonalization with overlap
     ethr =  1.16E-04,  avg # of iterations =  4.1

     total cpu time spent up to now is      407.1 secs

     total energy              =   -1180.34969050 Ry
     estimated scf accuracy    <       0.00024830 Ry

     iteration #  5     ecut=    90.00 Ry     beta= 0.70
     Davidson diagonalization with overlap
     ethr =  3.45E-07,  avg # of iterations =  8.6

     total cpu time spent up to now is      524.8 secs

     total energy              =   -1180.35033865 Ry
     estimated scf accuracy    <       0.00040646 Ry

     iteration #  6     ecut=    90.00 Ry     beta= 0.70
     Davidson diagonalization with overlap
     ethr =  3.45E-07,  avg # of iterations =  4.1

     total cpu time spent up to now is      595.9 secs

     End of self-consistent calculation

          k = 0.0000 0.0000 0.0000 (  9771 PWs)   bands (ev):

   -56.5107 -56.5107 -56.4760 -56.4760 -56.4760 -56.4760 -56.4760 -56.4760
   -28.5766 -28.5766 -28.5688 -28.5688 -28.5688 -28.5688 -28.4795 -28.4795
   -27.6119 -27.6119 -27.6119 -27.6119 -27.5348 -27.5348 -27.5348 -27.5348
   -27.5275 -27.5275 -27.4458 -27.4458 -27.4458 -27.4458 -27.4447 -27.4447
     2.6981   2.6981   7.4565   7.4565   7.4565   7.4565   7.4657   7.4657
    10.5372  10.5372  10.5451  10.5451  10.5451  10.5451  11.9127  11.9127
    11.9127  11.9127  11.9238  11.9238  12.6052  12.6052  12.7735  12.7735
    12.7735  12.7735  13.1455  13.1455  13.1455  13.1455  13.1466  13.1466
    13.6729  13.6729  13.6729  13.6729  13.6767  13.6767  15.5547  15.5547
    15.5860  15.5860  15.5860  15.5860  15.7684  15.7684  15.7684  15.7684
    16.6694  16.6694  16.6998  16.6998  16.6998  16.6998

     occupation numbers 
     1.0000   1.0000   1.0000   1.0000   1.0000   1.0000   1.0000   1.0000
     1.0000   1.0000   1.0000   1.0000   1.0000   1.0000   1.0000   1.0000
     1.0000   1.0000   1.0000   1.0000   1.0000   1.0000   1.0000   1.0000
     1.0000   1.0000   1.0000   1.0000   1.0000   1.0000   1.0000   1.0000
     1.0000   1.0000   1.0000   1.0000   1.0000   1.0000   1.0000   1.0000
     1.0000   1.0000   1.0000   1.0000   1.0000   1.0000   1.0000   1.0000
     1.0000   1.0000   1.0000   1.0000   1.0000   1.0000   1.0000   1.0000
     1.0000   1.0000   1.0000   1.0000   1.0000   1.0000   1.0000   1.0000
     1.0000   1.0000   1.0000   1.0000   1.0000   1.0000  -0.0000  -0.0000
    -0.0000  -0.0000  -0.0000  -0.0000  -0.0000  -0.0000  -0.0000  -0.0000
    -0.0000  -0.0000  -0.0000  -0.0000  -0.0000  -0.0000

          k = 0.0000 0.0000 0.0833 (  9699 PWs)   bands (ev):

   -56.5103 -56.5103 -56.4786 -56.4786 -56.4759 -56.4759 -56.4741 -56.4741
   -28.5809 -28.5736 -28.5732 -28.5709 -28.5652 -28.5626 -28.4808 -28.4807
   -27.6212 -27.6167 -27.6059 -27.6013 -27.5405 -27.5388 -27.5332 -27.5309
   -27.5299 -27.5196 -27.4503 -27.4494 -27.4476 -27.4442 -27.4437 -27.4405
     2.7464   2.7464   7.0334   7.0376   7.4853   7.4862   7.8137   7.8217
    10.2173  10.2229  10.5749  10.5759  10.8838  10.8873  11.4929  11.4950
    11.7831  11.7860  12.3554  12.3694  12.5874  12.5901  12.7679  12.7756
    12.8441  12.8443  13.1225  13.1240  13.1636  13.1641  13.1878  13.1884
    13.5519  13.5573  13.6664  13.6672  13.8269  13.8278  15.4708  15.4934
    15.4988  15.5024  15.6824  15.7016  15.7487  15.7575  15.7609  15.7722
    16.5454  16.5644  16.6668  16.6683  16.8186  16.8387

     occupation numbers 
     1.0000   1.0000   1.0000   1.0000   1.0000   1.0000   1.0000   1.0000
     1.0000   1.0000   1.0000   1.0000   1.0000   1.0000   1.0000   1.0000
     1.0000   1.0000   1.0000   1.0000   1.0000   1.0000   1.0000   1.0000
     1.0000   1.0000   1.0000   1.0000   1.0000   1.0000   1.0000   1.0000
     1.0000   1.0000   1.0000   1.0000   1.0000   1.0000   1.0000   1.0000
     1.0000   1.0000   1.0000   1.0000   1.0000   1.0000   1.0000   1.0000
     1.0000   1.0000   1.0000   1.0000   1.0000   1.0000   1.0000   1.0000
     1.0000   1.0000   1.0000   1.0000   1.0000   1.0000   1.0000   1.0000
     1.0000   1.0000   1.0000   1.0000   1.0000   1.0000  -0.0000  -0.0000
    -0.0000  -0.0000  -0.0000  -0.0000  -0.0000  -0.0000  -0.0000  -0.0000
    -0.0000  -0.0000  -0.0000  -0.0000  -0.0000  -0.0000

          k = 0.0000 0.0000 0.1667 (  9663 PWs)   bands (ev):

   -56.5090 -56.5090 -56.4817 -56.4817 -56.4755 -56.4755 -56.4727 -56.4727
   -28.5843 -28.5770 -28.5732 -28.5725 -28.5584 -28.5550 -28.4845 -28.4844
   -27.6286 -27.6208 -27.5984 -27.5909 -27.5468 -27.5416 -27.5353 -27.5287
   -27.5263 -27.5105 -27.4562 -27.4540 -27.4507 -27.4441 -27.4429 -27.4373
     2.8902   2.8902   6.5396   6.5421   7.5627   7.5646   8.1194   8.1287
     9.9481   9.9523  10.6628  10.6654  11.0724  11.0753  11.2880  11.2887
    11.5012  11.5060  12.4510  12.4613  12.7408  12.7631  12.8044  12.8110
    13.0133  13.0167  13.1094  13.1120  13.1988  13.2008  13.2299  13.2302
    13.5332  13.5432  13.6336  13.6361  13.9649  13.9654  15.2969  15.3178
    15.4202  15.4278  15.6953  15.7048  15.7504  15.7688  15.7950  15.8206
    16.4111  16.4266  16.5993  16.6068  16.9941  17.0147

     occupation numbers 
     1.0000   1.0000   1.0000   1.0000   1.0000   1.0000   1.0000   1.0000
     1.0000   1.0000   1.0000   1.0000   1.0000   1.0000   1.0000   1.0000
     1.0000   1.0000   1.0000   1.0000   1.0000   1.0000   1.0000   1.0000
     1.0000   1.0000   1.0000   1.0000   1.0000   1.0000   1.0000   1.0000
     1.0000   1.0000   1.0000   1.0000   1.0000   1.0000   1.0000   1.0000
     1.0000   1.0000   1.0000   1.0000   1.0000   1.0000   1.0000   1.0000
     1.0000   1.0000   1.0000   1.0000   1.0000   1.0000   1.0000   1.0000
     1.0000   1.0000   1.0000   1.0000   1.0000   1.0000   1.0000   1.0000
     1.0000   1.0000   1.0000   1.0000   1.0000   1.0000  -0.0011  -0.0005
    -0.0000  -0.0000  -0.0000  -0.0000  -0.0000  -0.0000  -0.0000  -0.0000
    -0.0000  -0.0000  -0.0000  -0.0000  -0.0000  -0.0000

          k = 0.0000 0.0000 0.2500 (  9618 PWs)   bands (ev):

   -56.5069 -56.5069 -56.4852 -56.4852 -56.4748 -56.4748 -56.4720 -56.4720
   -28.5863 -28.5791 -28.5759 -28.5734 -28.5495 -28.5464 -28.4905 -28.4903
   -27.6337 -27.6248 -27.5894 -27.5820 -27.5531 -27.5421 -27.5325 -27.5298
   -27.5246 -27.5008 -27.4643 -27.4569 -27.4549 -27.4450 -27.4424 -27.4357
     3.1267   3.1267   5.9914   5.9928   7.6892   7.6922   8.3699   8.3800
     9.7442   9.7455  10.7563  10.7616  10.8662  10.8749  11.1958  11.2031
    11.5691  11.5698  12.2668  12.2817  12.8680  12.8746  12.9134  12.9352
    13.1225  13.1265  13.1312  13.1364  13.2535  13.2541  13.2841  13.2881
    13.5452  13.5485  13.6999  13.7075  14.0482  14.0488  15.0763  15.1049
    15.3834  15.3839  15.6197  15.6349  15.7420  15.7663  15.8544  15.8784
    16.2893  16.3040  16.4974  16.5089  17.1904  17.2108

     occupation numbers 
     1.0000   1.0000   1.0000   1.0000   1.0000   1.0000   1.0000   1.0000
     1.0000   1.0000   1.0000   1.0000   1.0000   1.0000   1.0000   1.0000
     1.0000   1.0000   1.0000   1.0000   1.0000   1.0000   1.0000   1.0000
     1.0000   1.0000   1.0000   1.0000   1.0000   1.0000   1.0000   1.0000
     1.0000   1.0000   1.0000   1.0000   1.0000   1.0000   1.0000   1.0000
     1.0000   1.0000   1.0000   1.0000   1.0000   1.0000   1.0000   1.0000
     1.0000   1.0000   1.0000   1.0000   1.0000   1.0000   1.0000   1.0000
     1.0000   1.0000   1.0000   1.0000   1.0000   1.0000   1.0000   1.0000
     1.0000   1.0000   1.0000   1.0000   1.0000   1.0000  -0.0098  -0.0327
    -0.0000  -0.0000  -0.0000  -0.0000  -0.0000  -0.0000  -0.0000  -0.0000
    -0.0000  -0.0000  -0.0000  -0.0000  -0.0000  -0.0000

          k = 0.0000 0.0000 0.3333 (  9606 PWs)   bands (ev):

   -56.5040 -56.5040 -56.4890 -56.4890 -56.4741 -56.4741 -56.4718 -56.4718
   -28.5869 -28.5798 -28.5789 -28.5750 -28.5395 -28.5369 -28.4985 -28.4979
   -27.6364 -27.6288 -27.5797 -27.5751 -27.5590 -27.5404 -27.5350 -27.5252
   -27.5245 -27.4912 -27.4745 -27.4600 -27.4572 -27.4468 -27.4417 -27.4356
     3.4506   3.4507   5.4197   5.4204   7.8599   7.8639   8.5096   8.5193
     9.6516   9.6532  10.6597  10.6620  10.7717  10.7841  11.0445  11.0475
    11.8636  11.8656  12.1356  12.1514  12.8393  12.8554  12.9348  12.9443
    13.1159  13.1218  13.1715  13.1766  13.2605  13.2633  13.3955  13.3978
    13.4541  13.4562  13.9178  13.9217  14.1203  14.1270  14.8931  14.9272
    15.3609  15.3693  15.5382  15.5566  15.7465  15.7748  15.8574  15.8815
    16.1984  16.2143  16.3745  16.3881  17.3088  17.3249

     occupation numbers 
     1.0000   1.0000   1.0000   1.0000   1.0000   1.0000   1.0000   1.0000
     1.0000   1.0000   1.0000   1.0000   1.0000   1.0000   1.0000   1.0000
     1.0000   1.0000   1.0000   1.0000   1.0000   1.0000   1.0000   1.0000
     1.0000   1.0000   1.0000   1.0000   1.0000   1.0000   1.0000   1.0000
     1.0000   1.0000   1.0000   1.0000   1.0000   1.0000   1.0000   1.0000
     1.0000   1.0000   1.0000   1.0000   1.0000   1.0000   1.0000   1.0000
     1.0000   1.0000   1.0000   1.0000   1.0000   1.0000   1.0000   1.0000
     1.0000   1.0000   1.0000   1.0000   1.0000   1.0000   1.0000   1.0000
     1.0000   1.0000   1.0000   1.0000   1.0000   1.0000   0.8449   0.6696
    -0.0001  -0.0001  -0.0000  -0.0000  -0.0000  -0.0000  -0.0000  -0.0000
    -0.0000  -0.0000  -0.0000  -0.0000  -0.0000  -0.0000

          k = 0.0000 0.0000 0.4167 (  9666 PWs)   bands (ev):

   -56.5007 -56.5007 -56.4930 -56.4930 -56.4732 -56.4732 -56.4720 -56.4720
   -28.5862 -28.5819 -28.5796 -28.5768 -28.5289 -28.5269 -28.5079 -28.5069
   -27.6369 -27.6325 -27.5731 -27.5661 -27.5640 -27.5437 -27.5367 -27.5280
   -27.5128 -27.4866 -27.4820 -27.4663 -27.4553 -27.4494 -27.4403 -27.4367
     3.8547   3.8547   4.8564   4.8568   8.0647   8.0698   8.4632   8.4713
     9.7544   9.7581  10.3462  10.3486  10.7984  10.8117  11.0007  11.0066
    12.1370  12.1389  12.1491  12.1623  12.6973  12.7125  12.8894  12.9011
    13.0785  13.0829  13.1951  13.1974  13.2295  13.2334  13.2823  13.2857
    13.6279  13.6294  13.9030  13.9071  14.3464  14.3655  14.7407  14.7749
    15.3674  15.3816  15.4636  15.4828  15.7714  15.8015  15.8388  15.8657
    16.1522  16.1674  16.2539  16.2678  17.4043  17.4094

     occupation numbers 
     1.0000   1.0000   1.0000   1.0000   1.0000   1.0000   1.0000   1.0000
     1.0000   1.0000   1.0000   1.0000   1.0000   1.0000   1.0000   1.0000
     1.0000   1.0000   1.0000   1.0000   1.0000   1.0000   1.0000   1.0000
     1.0000   1.0000   1.0000   1.0000   1.0000   1.0000   1.0000   1.0000
     1.0000   1.0000   1.0000   1.0000   1.0000   1.0000   1.0000   1.0000
     1.0000   1.0000   1.0000   1.0000   1.0000   1.0000   1.0000   1.0000
     1.0000   1.0000   1.0000   1.0000   1.0000   1.0000   1.0000   1.0000
     1.0000   1.0000   1.0000   1.0000   1.0000   1.0000   1.0000   1.0000
     1.0000   1.0000   1.0000   1.0000   1.0000   1.0000   1.0242   1.0341
    -0.0001  -0.0000  -0.0000  -0.0000  -0.0000  -0.0000  -0.0000  -0.0000
    -0.0000  -0.0000  -0.0000  -0.0000  -0.0000  -0.0000

          k = 0.0000 0.0000-0.5000 (  9658 PWs)   bands (ev):

   -56.4969 -56.4969 -56.4969 -56.4969 -56.4725 -56.4725 -56.4725 -56.4725
   -28.5844 -28.5844 -28.5784 -28.5784 -28.5182 -28.5182 -28.5167 -28.5167
   -27.6354 -27.6354 -27.5688 -27.5688 -27.5545 -27.5545 -27.5322 -27.5322
   -27.4997 -27.4997 -27.4736 -27.4736 -27.4524 -27.4524 -27.4384 -27.4384
     4.3281   4.3281   4.3283   4.3283   8.2824   8.2824   8.2888   8.2888
    10.0173  10.0173  10.0213  10.0213  10.8980  10.8980  10.9093  10.9093
    12.2487  12.2487  12.2553  12.2553  12.6858  12.6858  12.6982  12.6982
    13.1441  13.1441  13.1444  13.1444  13.2391  13.2391  13.2428  13.2428
    13.7848  13.7848  13.7879  13.7879  14.5688  14.5688  14.5973  14.5973
    15.4040  15.4041  15.4218  15.4219  15.8087  15.8088  15.8385  15.8385
    16.1696  16.1697  16.1833  16.1833  17.5456  17.5466

     occupation numbers 
     1.0000   1.0000   1.0000   1.0000   1.0000   1.0000   1.0000   1.0000
     1.0000   1.0000   1.0000   1.0000   1.0000   1.0000   1.0000   1.0000
     1.0000   1.0000   1.0000   1.0000   1.0000   1.0000   1.0000   1.0000
     1.0000   1.0000   1.0000   1.0000   1.0000   1.0000   1.0000   1.0000
     1.0000   1.0000   1.0000   1.0000   1.0000   1.0000   1.0000   1.0000
     1.0000   1.0000   1.0000   1.0000   1.0000   1.0000   1.0000   1.0000
     1.0000   1.0000   1.0000   1.0000   1.0000   1.0000   1.0000   1.0000
     1.0000   1.0000   1.0000   1.0000   1.0000   1.0000   1.0000   1.0000
     1.0000   1.0000   1.0000   1.0000   1.0002   1.0002   1.0006   1.0006
    -0.0000  -0.0000  -0.0000  -0.0000  -0.0000  -0.0000  -0.0000  -0.0000
    -0.0000  -0.0000  -0.0000  -0.0000  -0.0000  -0.0000

          k = 0.0000 0.0833 0.0833 (  9665 PWs)   bands (ev):

   -56.5099 -56.5099 -56.4796 -56.4796 -56.4760 -56.4760 -56.4734 -56.4734
   -28.5826 -28.5758 -28.5722 -28.5702 -28.5636 -28.5600 -28.4820 -28.4820
   -27.6231 -27.6202 -27.6013 -27.5981 -27.5431 -27.5388 -27.5352 -27.5335
   -27.5255 -27.5156 -27.4527 -27.4524 -27.4487 -27.4443 -27.4422 -27.4389
     2.7945   2.7945   6.9081   6.9134   7.3945   7.3975   7.9858   7.9920
    10.1067  10.1123  10.6058  10.6089  10.9972  11.0024  11.2462  11.2477
    11.8541  11.8555  12.3867  12.4026  12.6067  12.6112  12.8133  12.8224
    12.8804  12.8853  13.1347  13.1372  13.1607  13.1641  13.2168  13.2190
    13.5063  13.5109  13.6676  13.6749  13.8942  13.8972  15.4221  15.4325
    15.4887  15.4905  15.6690  15.6825  15.7480  15.7557  15.7684  15.7794
    16.4804  16.4994  16.6735  16.6778  16.8545  16.8794

     occupation numbers 
     1.0000   1.0000   1.0000   1.0000   1.0000   1.0000   1.0000   1.0000
     1.0000   1.0000   1.0000   1.0000   1.0000   1.0000   1.0000   1.0000
     1.0000   1.0000   1.0000   1.0000   1.0000   1.0000   1.0000   1.0000
     1.0000   1.0000   1.0000   1.0000   1.0000   1.0000   1.0000   1.0000
     1.0000   1.0000   1.0000   1.0000   1.0000   1.0000   1.0000   1.0000
     1.0000   1.0000   1.0000   1.0000   1.0000   1.0000   1.0000   1.0000
     1.0000   1.0000   1.0000   1.0000   1.0000   1.0000   1.0000   1.0000
     1.0000   1.0000   1.0000   1.0000   1.0000   1.0000   1.0000   1.0000
     1.0000   1.0000   1.0000   1.0000   1.0000   1.0000  -0.0000  -0.0000
    -0.0000  -0.0000  -0.0000  -0.0000  -0.0000  -0.0000  -0.0000  -0.0000
    -0.0000  -0.0000  -0.0000  -0.0000  -0.0000  -0.0000

          k = 0.0000 0.0833 0.1667 (  9653 PWs)   bands (ev):

   -56.5086 -56.5086 -56.4821 -56.4821 -56.4758 -56.4758 -56.4724 -56.4724
   -28.5850 -28.5784 -28.5718 -28.5717 -28.5577 -28.5540 -28.4857 -28.4857
   -27.6287 -27.6227 -27.5953 -27.5895 -27.5473 -27.5421 -27.5367 -27.5324
   -27.5221 -27.5077 -27.4592 -27.4563 -27.4507 -27.4455 -27.4406 -27.4361
     2.9379   2.9379   6.5232   6.5268   7.4120   7.4144   8.2327   8.2392
     9.9139   9.9182  10.6963  10.6973  10.8385  10.8413  11.3150  11.3169
    11.6699  11.6740  12.4487  12.4539  12.6205  12.6268  12.9309  12.9384
    13.0480  13.0539  13.1352  13.1356  13.1851  13.1876  13.2647  13.2672
    13.4831  13.4880  13.6776  13.6883  14.0010  14.0063  15.2995  15.3206
    15.3819  15.3961  15.6460  15.6602  15.7269  15.7406  15.8107  15.8322
    16.3666  16.3844  16.6185  16.6282  16.9912  17.0182

     occupation numbers 
     1.0000   1.0000   1.0000   1.0000   1.0000   1.0000   1.0000   1.0000
     1.0000   1.0000   1.0000   1.0000   1.0000   1.0000   1.0000   1.0000
     1.0000   1.0000   1.0000   1.0000   1.0000   1.0000   1.0000   1.0000
     1.0000   1.0000   1.0000   1.0000   1.0000   1.0000   1.0000   1.0000
     1.0000   1.0000   1.0000   1.0000   1.0000   1.0000   1.0000   1.0000
     1.0000   1.0000   1.0000   1.0000   1.0000   1.0000   1.0000   1.0000
     1.0000   1.0000   1.0000   1.0000   1.0000   1.0000   1.0000   1.0000
     1.0000   1.0000   1.0000   1.0000   1.0000   1.0000   1.0000   1.0000
     1.0000   1.0000   1.0000   1.0000   1.0000   1.0000  -0.0010  -0.0005
    -0.0000  -0.0000  -0.0000  -0.0000  -0.0000  -0.0000  -0.0000  -0.0000
    -0.0000  -0.0000  -0.0000  -0.0000  -0.0000  -0.0000

          k = 0.0000 0.0833 0.2500 (  9646 PWs)   bands (ev):

   -56.5065 -56.5065 -56.4853 -56.4853 -56.4752 -56.4752 -56.4719 -56.4719
   -28.5865 -28.5799 -28.5744 -28.5726 -28.5494 -28.5461 -28.4917 -28.4914
   -27.6331 -27.6254 -27.5876 -27.5812 -27.5529 -27.5430 -27.5347 -27.5323
   -27.5212 -27.4986 -27.4675 -27.4593 -27.4538 -27.4476 -27.4394 -27.4343
     3.1735   3.1736   6.0091   6.0110   7.5327   7.5345   8.4343   8.4412
     9.7450   9.7464  10.5620  10.5655  10.8461  10.8488  11.3945  11.4027
    11.5694  11.5712  12.2896  12.3025  12.7237  12.7252  13.0183  13.0327
    13.0902  13.0940  13.1784  13.1843  13.2514  13.2519  13.3353  13.3382
    13.5273  13.5326  13.7560  13.7691  14.0729  14.0782  15.0842  15.1121
    15.3453  15.3557  15.5686  15.5842  15.7147  15.7365  15.8526  15.8769
    16.2572  16.2727  16.5174  16.5300  17.1663  17.1943

     occupation numbers 
     1.0000   1.0000   1.0000   1.0000   1.0000   1.0000   1.0000   1.0000
     1.0000   1.0000   1.0000   1.0000   1.0000   1.0000   1.0000   1.0000
     1.0000   1.0000   1.0000   1.0000   1.0000   1.0000   1.0000   1.0000
     1.0000   1.0000   1.0000   1.0000   1.0000   1.0000   1.0000   1.0000
     1.0000   1.0000   1.0000   1.0000   1.0000   1.0000   1.0000   1.0000
     1.0000   1.0000   1.0000   1.0000   1.0000   1.0000   1.0000   1.0000
     1.0000   1.0000   1.0000   1.0000   1.0000   1.0000   1.0000   1.0000
     1.0000   1.0000   1.0000   1.0000   1.0000   1.0000   1.0000   1.0000
     1.0000   1.0000   1.0000   1.0000   1.0000   1.0000  -0.0190  -0.0346
    -0.0002  -0.0001  -0.0000  -0.0000  -0.0000  -0.0000  -0.0000  -0.0000
    -0.0000  -0.0000  -0.0000  -0.0000  -0.0000  -0.0000

          k = 0.0000 0.0833 0.3333 (  9649 PWs)   bands (ev):

   -56.5037 -56.5037 -56.4890 -56.4890 -56.4744 -56.4744 -56.4718 -56.4718
   -28.5867 -28.5806 -28.5772 -28.5742 -28.5397 -28.5371 -28.4995 -28.4990
   -27.6355 -27.6285 -27.5791 -27.5743 -27.5587 -27.5415 -27.5369 -27.5269
   -27.5223 -27.4895 -27.4775 -27.4612 -27.4569 -27.4500 -27.4384 -27.4338
     3.4963   3.4964   5.4509   5.4520   7.7137   7.7159   8.5118   8.5182
     9.6730   9.6751  10.3915  10.3959  10.9574  10.9603  11.1471  11.1596
    11.8098  11.8135  12.1767  12.1902  12.7451  12.7496  12.9883  12.9951
    13.0276  13.0325  13.2321  13.2370  13.2994  13.3010  13.4294  13.4347
    13.4976  13.5079  13.9353  13.9435  14.1545  14.1626  14.8991  14.9325
    15.3264  15.3386  15.4824  15.4981  15.7164  15.7421  15.8565  15.8822
    16.1780  16.1908  16.3977  16.4114  17.2812  17.3048

     occupation numbers 
     1.0000   1.0000   1.0000   1.0000   1.0000   1.0000   1.0000   1.0000
     1.0000   1.0000   1.0000   1.0000   1.0000   1.0000   1.0000   1.0000
     1.0000   1.0000   1.0000   1.0000   1.0000   1.0000   1.0000   1.0000
     1.0000   1.0000   1.0000   1.0000   1.0000   1.0000   1.0000   1.0000
     1.0000   1.0000   1.0000   1.0000   1.0000   1.0000   1.0000   1.0000
     1.0000   1.0000   1.0000   1.0000   1.0000   1.0000   1.0000   1.0000
     1.0000   1.0000   1.0000   1.0000   1.0000   1.0000   1.0000   1.0000
     1.0000   1.0000   1.0000   1.0000   1.0000   1.0000   1.0000   1.0000
     1.0000   1.0000   1.0000   1.0000   1.0000   1.0000   0.8178   0.6386
    -0.0004  -0.0002  -0.0000  -0.0000  -0.0000  -0.0000  -0.0000  -0.0000
    -0.0000  -0.0000  -0.0000  -0.0000  -0.0000  -0.0000

          k = 0.0000 0.0833 0.4167 (  9647 PWs)   bands (ev):

   -56.5004 -56.5004 -56.4929 -56.4929 -56.4735 -56.4735 -56.4721 -56.4721
   -28.5857 -28.5815 -28.5788 -28.5761 -28.5294 -28.5274 -28.5087 -28.5078
   -27.6358 -27.6317 -27.5730 -27.5654 -27.5640 -27.5453 -27.5367 -27.5274
   -27.5146 -27.4897 -27.4801 -27.4656 -27.4570 -27.4524 -27.4372 -27.4344
     3.8987   3.8989   4.8943   4.8949   7.9375   7.9405   8.4042   8.4093
     9.7774   9.7810  10.2247  10.2286  10.9622  10.9679  11.0304  11.0357
    12.0246  12.0306  12.2051  12.2126  12.6477  12.6523  12.8375  12.8452
    13.0746  13.0786  13.2617  13.2647  13.2926  13.2955  13.3223  13.3250
    13.6513  13.6544  13.9216  13.9263  14.3731  14.3939  14.7481  14.7821
    15.3299  15.3449  15.4096  15.4254  15.7429  15.7702  15.8334  15.8612
    16.1496  16.1593  16.2791  16.2917  17.3866  17.4004

     occupation numbers 
     1.0000   1.0000   1.0000   1.0000   1.0000   1.0000   1.0000   1.0000
     1.0000   1.0000   1.0000   1.0000   1.0000   1.0000   1.0000   1.0000
     1.0000   1.0000   1.0000   1.0000   1.0000   1.0000   1.0000   1.0000
     1.0000   1.0000   1.0000   1.0000   1.0000   1.0000   1.0000   1.0000
     1.0000   1.0000   1.0000   1.0000   1.0000   1.0000   1.0000   1.0000
     1.0000   1.0000   1.0000   1.0000   1.0000   1.0000   1.0000   1.0000
     1.0000   1.0000   1.0000   1.0000   1.0000   1.0000   1.0000   1.0000
     1.0000   1.0000   1.0000   1.0000   1.0000   1.0000   1.0000   1.0000
     1.0000   1.0000   1.0000   1.0000   1.0000   1.0000   1.0267   1.0351
    -0.0003  -0.0002  -0.0000  -0.0000  -0.0000  -0.0000  -0.0000  -0.0000
    -0.0000  -0.0000  -0.0000  -0.0000  -0.0000  -0.0000

          k = 0.0000 0.0833-0.5000 (  9688 PWs)   bands (ev):

   -56.4967 -56.4967 -56.4967 -56.4967 -56.4727 -56.4727 -56.4727 -56.4727
   -28.5838 -28.5838 -28.5779 -28.5779 -28.5191 -28.5191 -28.5172 -28.5172
   -27.6343 -27.6343 -27.5686 -27.5686 -27.5549 -27.5549 -27.5320 -27.5320
   -27.5021 -27.5021 -27.4723 -27.4723 -27.4549 -27.4549 -27.4357 -27.4357
     4.3697   4.3697   4.3701   4.3701   8.1812   8.1812   8.1879   8.1879
     9.9986   9.9986  10.0031  10.0031  10.9694  10.9694  10.9827  10.9827
    12.1989  12.1989  12.2049  12.2049  12.6453  12.6453  12.6611  12.6611
    13.1842  13.1842  13.1885  13.1885  13.2851  13.2851  13.2871  13.2871
    13.8060  13.8060  13.8094  13.8094  14.5843  14.5843  14.6137  14.6137
    15.3577  15.3577  15.3744  15.3744  15.7891  15.7891  15.8188  15.8188
    16.1857  16.1857  16.1977  16.1978  17.5435  17.5482

     occupation numbers 
     1.0000   1.0000   1.0000   1.0000   1.0000   1.0000   1.0000   1.0000
     1.0000   1.0000   1.0000   1.0000   1.0000   1.0000   1.0000   1.0000
     1.0000   1.0000   1.0000   1.0000   1.0000   1.0000   1.0000   1.0000
     1.0000   1.0000   1.0000   1.0000   1.0000   1.0000   1.0000   1.0000
     1.0000   1.0000   1.0000   1.0000   1.0000   1.0000   1.0000   1.0000
     1.0000   1.0000   1.0000   1.0000   1.0000   1.0000   1.0000   1.0000
     1.0000   1.0000   1.0000   1.0000   1.0000   1.0000   1.0000   1.0000
     1.0000   1.0000   1.0000   1.0000   1.0000   1.0000   1.0000   1.0000
     1.0000   1.0000   1.0000   1.0000   1.0004   1.0004   1.0011   1.0011
    -0.0001  -0.0001  -0.0001  -0.0001  -0.0000  -0.0000  -0.0000  -0.0000
    -0.0000  -0.0000  -0.0000  -0.0000  -0.0000  -0.0000

          k = 0.0000 0.1667 0.1667 (  9657 PWs)   bands (ev):

   -56.5073 -56.5073 -56.4835 -56.4835 -56.4761 -56.4761 -56.4719 -56.4719
   -28.5861 -28.5800 -28.5708 -28.5707 -28.5547 -28.5507 -28.4893 -28.4892
   -27.6295 -27.6255 -27.5892 -27.5854 -27.5482 -27.5450 -27.5386 -27.5343
   -27.5183 -27.5013 -27.4650 -27.4612 -27.4535 -27.4454 -27.4381 -27.4337
     3.0798   3.0799   6.3969   6.4012   7.2074   7.2117   8.4066   8.4120
     9.8326   9.8359  10.5106  10.5130  10.7872  10.7884  11.3577  11.3607
    11.7809  11.7813  12.4132  12.4189  12.5895  12.5972  12.9962  12.9976
    13.0924  13.1006  13.1735  13.1742  13.2457  13.2523  13.3373  13.3423
    13.4686  13.4765  13.7342  13.7484  14.0769  14.0843  15.2548  15.2765
    15.3042  15.3236  15.5378  15.5499  15.6976  15.7186  15.8167  15.8412
    16.2812  16.2981  16.6108  16.6205  17.0365  17.0713

     occupation numbers 
     1.0000   1.0000   1.0000   1.0000   1.0000   1.0000   1.0000   1.0000
     1.0000   1.0000   1.0000   1.0000   1.0000   1.0000   1.0000   1.0000
     1.0000   1.0000   1.0000   1.0000   1.0000   1.0000   1.0000   1.0000
     1.0000   1.0000   1.0000   1.0000   1.0000   1.0000   1.0000   1.0000
     1.0000   1.0000   1.0000   1.0000   1.0000   1.0000   1.0000   1.0000
     1.0000   1.0000   1.0000   1.0000   1.0000   1.0000   1.0000   1.0000
     1.0000   1.0000   1.0000   1.0000   1.0000   1.0000   1.0000   1.0000
     1.0000   1.0000   1.0000   1.0000   1.0000   1.0000   1.0000   1.0000
     1.0000   1.0000   1.0000   1.0000   1.0000   1.0000  -0.0039  -0.0021
    -0.0009  -0.0004  -0.0000  -0.0000  -0.0000  -0.0000  -0.0000  -0.0000
    -0.0000  -0.0000  -0.0000  -0.0000  -0.0000  -0.0000

          k = 0.0000 0.1667 0.2500 (  9644 PWs)   bands (ev):

   -56.5053 -56.5053 -56.4860 -56.4860 -56.4758 -56.4758 -56.4718 -56.4718
   -28.5865 -28.5807 -28.5721 -28.5710 -28.5484 -28.5450 -28.4949 -28.4948
   -27.6315 -27.6265 -27.5833 -27.5791 -27.5523 -27.5462 -27.5377 -27.5344
   -27.5173 -27.4939 -27.4735 -27.4646 -27.4570 -27.4460 -27.4361 -27.4317
     3.3131   3.3132   6.0380   6.0410   7.2036   7.2074   8.5045   8.5088
     9.7419   9.7438  10.2898  10.2940  10.8770  10.8781  11.4827  11.4833
    11.6900  11.6912  12.3257  12.3312  12.5689  12.5743  12.9892  12.9965
    13.1269  13.1400  13.2072  13.2126  13.3316  13.3327  13.4445  13.4524
    13.5224  13.5298  13.8657  13.8812  14.1382  14.1456  15.0995  15.1247
    15.2418  15.2608  15.4406  15.4538  15.6682  15.6912  15.8230  15.8499
    16.1984  16.2124  16.5372  16.5488  17.1562  17.1951

     occupation numbers 
     1.0000   1.0000   1.0000   1.0000   1.0000   1.0000   1.0000   1.0000
     1.0000   1.0000   1.0000   1.0000   1.0000   1.0000   1.0000   1.0000
     1.0000   1.0000   1.0000   1.0000   1.0000   1.0000   1.0000   1.0000
     1.0000   1.0000   1.0000   1.0000   1.0000   1.0000   1.0000   1.0000
     1.0000   1.0000   1.0000   1.0000   1.0000   1.0000   1.0000   1.0000
     1.0000   1.0000   1.0000   1.0000   1.0000   1.0000   1.0000   1.0000
     1.0000   1.0000   1.0000   1.0000   1.0000   1.0000   1.0000   1.0000
     1.0000   1.0000   1.0000   1.0000   1.0000   1.0000   1.0000   1.0000
     1.0000   1.0000   1.0000   1.0000   1.0000   1.0000  -0.0304  -0.0354
    -0.0056  -0.0033  -0.0000  -0.0000  -0.0000  -0.0000  -0.0000  -0.0000
    -0.0000  -0.0000  -0.0000  -0.0000  -0.0000  -0.0000

          k = 0.0000 0.1667 0.3333 (  9647 PWs)   bands (ev):

   -56.5027 -56.5027 -56.4891 -56.4891 -56.4751 -56.4751 -56.4719 -56.4719
   -28.5859 -28.5806 -28.5746 -28.5724 -28.5401 -28.5375 -28.5024 -28.5020
   -27.6327 -27.6275 -27.5780 -27.5723 -27.5580 -27.5451 -27.5383 -27.5294
   -27.5194 -27.4877 -27.4825 -27.4670 -27.4590 -27.4481 -27.4344 -27.4307
     3.6323   3.6325   5.5373   5.5390   7.3626   7.3653   8.4324   8.4357
     9.7332   9.7364  10.1897  10.1939  10.9876  10.9907  11.3857  11.3954
    11.7532  11.7575  12.1899  12.1987  12.5957  12.6033  12.8771  12.8859
    13.1140  13.1234  13.2528  13.2586  13.3805  13.3818  13.5278  13.5378
    13.5913  13.6044  13.9907  14.0013  14.2463  14.2588  14.9127  14.9436
    15.2274  15.2460  15.3473  15.3573  15.6560  15.6811  15.8087  15.8390
    16.1553  16.1648  16.4430  16.4560  17.2390  17.2720

     occupation numbers 
     1.0000   1.0000   1.0000   1.0000   1.0000   1.0000   1.0000   1.0000
     1.0000   1.0000   1.0000   1.0000   1.0000   1.0000   1.0000   1.0000
     1.0000   1.0000   1.0000   1.0000   1.0000   1.0000   1.0000   1.0000
     1.0000   1.0000   1.0000   1.0000   1.0000   1.0000   1.0000   1.0000
     1.0000   1.0000   1.0000   1.0000   1.0000   1.0000   1.0000   1.0000
     1.0000   1.0000   1.0000   1.0000   1.0000   1.0000   1.0000   1.0000
     1.0000   1.0000   1.0000   1.0000   1.0000   1.0000   1.0000   1.0000
     1.0000   1.0000   1.0000   1.0000   1.0000   1.0000   1.0000   1.0000
     1.0000   1.0000   1.0000   1.0000   1.0000   1.0000   0.7502   0.5709
    -0.0080  -0.0050  -0.0002  -0.0001  -0.0000  -0.0000  -0.0000  -0.0000
    -0.0000  -0.0000  -0.0000  -0.0000  -0.0000  -0.0000

          k = 0.0000 0.1667 0.4167 (  9668 PWs)   bands (ev):

   -56.4996 -56.4996 -56.4926 -56.4926 -56.4742 -56.4742 -56.4725 -56.4725
   -28.5843 -28.5804 -28.5768 -28.5744 -28.5307 -28.5288 -28.5112 -28.5104
   -27.6325 -27.6292 -27.5736 -27.5664 -27.5615 -27.5479 -27.5365 -27.5260
   -27.5179 -27.4955 -27.4796 -27.4701 -27.4579 -27.4512 -27.4328 -27.4307
     4.0295   4.0299   5.0049   5.0058   7.6064   7.6086   8.1962   8.1988
     9.8544   9.8580  10.1273  10.1308  11.0545  11.0632  11.2132  11.2271
    11.9249  11.9299  12.1486  12.1543  12.5370  12.5463  12.7034  12.7140
    13.1782  13.1825  13.2879  13.2926  13.3762  13.3784  13.4841  13.4854
    13.7263  13.7304  13.9731  13.9792  14.4462  14.4712  14.7646  14.7975
    15.2264  15.2428  15.2795  15.2880  15.6725  15.6993  15.7698  15.8012
    16.1733  16.1792  16.3421  16.3547  17.3299  17.3513

     occupation numbers 
     1.0000   1.0000   1.0000   1.0000   1.0000   1.0000   1.0000   1.0000
     1.0000   1.0000   1.0000   1.0000   1.0000   1.0000   1.0000   1.0000
     1.0000   1.0000   1.0000   1.0000   1.0000   1.0000   1.0000   1.0000
     1.0000   1.0000   1.0000   1.0000   1.0000   1.0000   1.0000   1.0000
     1.0000   1.0000   1.0000   1.0000   1.0000   1.0000   1.0000   1.0000
     1.0000   1.0000   1.0000   1.0000   1.0000   1.0000   1.0000   1.0000
     1.0000   1.0000   1.0000   1.0000   1.0000   1.0000   1.0000   1.0000
     1.0000   1.0000   1.0000   1.0000   1.0000   1.0000   1.0000   1.0000
     1.0000   1.0000   1.0000   1.0000   1.0000   1.0000   1.0318   1.0347
    -0.0081  -0.0054  -0.0019  -0.0015  -0.0000  -0.0000  -0.0000  -0.0000
    -0.0000  -0.0000  -0.0000  -0.0000  -0.0000  -0.0000

          k = 0.0000 0.1667-0.5000 (  9654 PWs)   bands (ev):

   -56.4961 -56.4961 -56.4961 -56.4961 -56.4733 -56.4733 -56.4733 -56.4733
   -28.5821 -28.5821 -28.5763 -28.5763 -28.5215 -28.5215 -28.5189 -28.5189
   -27.6311 -27.6311 -27.5694 -27.5694 -27.5550 -27.5550 -27.5313 -27.5313
   -27.5070 -27.5070 -27.4744 -27.4744 -27.4548 -27.4548 -27.4316 -27.4316
     4.4928   4.4928   4.4935   4.4935   7.8948   7.8948   7.9017   7.9017
    10.0152  10.0152  10.0191  10.0191  11.1034  11.1034  11.1176  11.1176
    12.0914  12.0914  12.0959  12.0959  12.5406  12.5406  12.5564  12.5564
    13.2772  13.2772  13.2781  13.2781  13.3926  13.3926  13.3938  13.3938
    13.8689  13.8689  13.8729  13.8729  14.6239  14.6239  14.6552  14.6552
    15.2399  15.2399  15.2546  15.2546  15.7168  15.7168  15.7465  15.7465
    16.2432  16.2432  16.2538  16.2538  17.4883  17.4958

     occupation numbers 
     1.0000   1.0000   1.0000   1.0000   1.0000   1.0000   1.0000   1.0000
     1.0000   1.0000   1.0000   1.0000   1.0000   1.0000   1.0000   1.0000
     1.0000   1.0000   1.0000   1.0000   1.0000   1.0000   1.0000   1.0000
     1.0000   1.0000   1.0000   1.0000   1.0000   1.0000   1.0000   1.0000
     1.0000   1.0000   1.0000   1.0000   1.0000   1.0000   1.0000   1.0000
     1.0000   1.0000   1.0000   1.0000   1.0000   1.0000   1.0000   1.0000
     1.0000   1.0000   1.0000   1.0000   1.0000   1.0000   1.0000   1.0000
     1.0000   1.0000   1.0000   1.0000   1.0000   1.0000   1.0000   1.0000
     1.0000   1.0000   1.0000   1.0000   1.0015   1.0015   1.0039   1.0039
    -0.0058  -0.0058  -0.0040  -0.0040  -0.0000  -0.0000  -0.0000  -0.0000
    -0.0000  -0.0000  -0.0000  -0.0000  -0.0000  -0.0000

          k = 0.0000 0.2500 0.2500 (  9661 PWs)   bands (ev):

   -56.5035 -56.5035 -56.4873 -56.4873 -56.4761 -56.4761 -56.4719 -56.4719
   -28.5859 -28.5806 -28.5709 -28.5702 -28.5455 -28.5421 -28.5003 -28.4999
   -27.6299 -27.6267 -27.5787 -27.5763 -27.5527 -27.5490 -27.5378 -27.5356
   -27.5157 -27.4906 -27.4801 -27.4701 -27.4601 -27.4437 -27.4336 -27.4296
     3.5421   3.5423   5.9647   5.9679   6.9408   6.9448   8.4361   8.4412
     9.7517   9.7550  10.1866  10.1918  10.9265  10.9290  11.3514  11.3524
    11.8605  11.8643  12.2875  12.2910  12.5073  12.5165  12.9053  12.9129
    13.1499  13.1592  13.2721  13.2816  13.4436  13.4451  13.5217  13.5309
    13.5730  13.5836  13.9867  13.9990  14.2223  14.2279  15.0493  15.0697
    15.1430  15.1677  15.2971  15.3086  15.6183  15.6435  15.7657  15.7946
    16.1635  16.1744  16.5159  16.5266  17.1881  17.2315

     occupation numbers 
     1.0000   1.0000   1.0000   1.0000   1.0000   1.0000   1.0000   1.0000
     1.0000   1.0000   1.0000   1.0000   1.0000   1.0000   1.0000   1.0000
     1.0000   1.0000   1.0000   1.0000   1.0000   1.0000   1.0000   1.0000
     1.0000   1.0000   1.0000   1.0000   1.0000   1.0000   1.0000   1.0000
     1.0000   1.0000   1.0000   1.0000   1.0000   1.0000   1.0000   1.0000
     1.0000   1.0000   1.0000   1.0000   1.0000   1.0000   1.0000   1.0000
     1.0000   1.0000   1.0000   1.0000   1.0000   1.0000   1.0000   1.0000
     1.0000   1.0000   1.0000   1.0000   1.0000   1.0000   1.0000   1.0000
     1.0000   1.0000   1.0000   1.0000   1.0000   1.0000   0.0429  -0.0001
    -0.0324  -0.0248  -0.0011  -0.0007  -0.0000  -0.0000  -0.0000  -0.0000
    -0.0000  -0.0000  -0.0000  -0.0000  -0.0000  -0.0000

          k = 0.0000 0.2500 0.3333 (  9636 PWs)   bands (ev):

   -56.5011 -56.5011 -56.4895 -56.4895 -56.4758 -56.4758 -56.4724 -56.4724
   -28.5844 -28.5796 -28.5721 -28.5706 -28.5398 -28.5372 -28.5071 -28.5067
   -27.6287 -27.6257 -27.5778 -27.5713 -27.5570 -27.5473 -27.5374 -27.5318
   -27.5177 -27.4906 -27.4876 -27.4745 -27.4586 -27.4433 -27.4316 -27.4283
     3.8550   3.8553   5.6426   5.6450   6.9521   6.9557   8.1878   8.1916
     9.8431   9.8467  10.1799  10.1838  10.9898  10.9920  11.3890  11.3926
    11.8766  11.8788  12.1119  12.1132  12.4511  12.4613  12.7497  12.7582
    13.1992  13.2093  13.3046  13.3115  13.4509  13.4544  13.6475  13.6509
    13.7149  13.7198  14.0587  14.0697  14.3711  14.3910  14.9135  14.9382
    15.0781  15.1020  15.1904  15.1977  15.5862  15.6107  15.7111  15.7428
    16.1768  16.1846  16.4820  16.4919  17.1875  17.2230

     occupation numbers 
     1.0000   1.0000   1.0000   1.0000   1.0000   1.0000   1.0000   1.0000
     1.0000   1.0000   1.0000   1.0000   1.0000   1.0000   1.0000   1.0000
     1.0000   1.0000   1.0000   1.0000   1.0000   1.0000   1.0000   1.0000
     1.0000   1.0000   1.0000   1.0000   1.0000   1.0000   1.0000   1.0000
     1.0000   1.0000   1.0000   1.0000   1.0000   1.0000   1.0000   1.0000
     1.0000   1.0000   1.0000   1.0000   1.0000   1.0000   1.0000   1.0000
     1.0000   1.0000   1.0000   1.0000   1.0000   1.0000   1.0000   1.0000
     1.0000   1.0000   1.0000   1.0000   1.0000   1.0000   1.0000   1.0000
     1.0000   1.0000   1.0000   1.0000   1.0000   1.0000   0.7458   0.6044
    -0.0121  -0.0315  -0.0173  -0.0151  -0.0000  -0.0000  -0.0000  -0.0000
    -0.0000  -0.0000  -0.0000  -0.0000  -0.0000  -0.0000

          k = 0.0000 0.2500 0.4167 (  9659 PWs)   bands (ev):

   -56.4983 -56.4983 -56.4922 -56.4922 -56.4751 -56.4751 -56.4732 -56.4732
   -28.5820 -28.5784 -28.5741 -28.5721 -28.5323 -28.5306 -28.5150 -28.5144
   -27.6274 -27.6252 -27.5766 -27.5708 -27.5565 -27.5479 -27.5357 -27.5252
   -27.5207 -27.5008 -27.4858 -27.4790 -27.4539 -27.4453 -27.4298 -27.4280
     4.2428   4.2433   5.1754   5.1768   7.1704   7.1733   7.8420   7.8450
     9.9966   9.9997  10.1864  10.1894  11.0747  11.0811  11.3417  11.3528
    11.9094  11.9121  11.9815  11.9866  12.4136  12.4251  12.5570  12.5684
    13.2782  13.2864  13.3678  13.3698  13.4313  13.4331  13.6308  13.6332
    13.8661  13.8689  14.0611  14.0687  14.5354  14.5644  14.7658  14.7941
    15.0760  15.0932  15.1224  15.1258  15.5804  15.6056  15.6549  15.6865
    16.2424  16.2496  16.4253  16.4364  17.2222  17.2444

     occupation numbers 
     1.0000   1.0000   1.0000   1.0000   1.0000   1.0000   1.0000   1.0000
     1.0000   1.0000   1.0000   1.0000   1.0000   1.0000   1.0000   1.0000
     1.0000   1.0000   1.0000   1.0000   1.0000   1.0000   1.0000   1.0000
     1.0000   1.0000   1.0000   1.0000   1.0000   1.0000   1.0000   1.0000
     1.0000   1.0000   1.0000   1.0000   1.0000   1.0000   1.0000   1.0000
     1.0000   1.0000   1.0000   1.0000   1.0000   1.0000   1.0000   1.0000
     1.0000   1.0000   1.0000   1.0000   1.0000   1.0000   1.0000   1.0000
     1.0000   1.0000   1.0000   1.0000   1.0000   1.0000   1.0000   1.0000
     1.0000   1.0000   1.0000   1.0000   1.0001   1.0002   1.0321   1.0352
    -0.0094  -0.0266  -0.0355  -0.0353  -0.0000  -0.0000  -0.0000  -0.0000
    -0.0000  -0.0000  -0.0000  -0.0000  -0.0000  -0.0000

          k = 0.0000 0.2500-0.5000 (  9686 PWs)   bands (ev):

   -56.4953 -56.4953 -56.4953 -56.4953 -56.4741 -56.4741 -56.4741 -56.4741
   -28.5794 -28.5794 -28.5740 -28.5740 -28.5247 -28.5247 -28.5216 -28.5216
   -27.6260 -27.6260 -27.5740 -27.5740 -27.5519 -27.5519 -27.5302 -27.5302
   -27.5117 -27.5117 -27.4828 -27.4828 -27.4490 -27.4490 -27.4286 -27.4286
     4.6911   4.6911   4.6921   4.6921   7.4833   7.4833   7.4895   7.4895
    10.1297  10.1297  10.1328  10.1328  11.2003  11.2003  11.2120  11.2120
    11.9564  11.9564  11.9583  11.9583  12.4196  12.4196  12.4321  12.4321
    13.3488  13.3488  13.3552  13.3552  13.5177  13.5177  13.5238  13.5238
    13.9898  13.9898  13.9954  13.9954  14.6574  14.6574  14.6879  14.6879
    15.0879  15.0879  15.0996  15.0996  15.6061  15.6061  15.6350  15.6350
    16.3364  16.3364  16.3473  16.3473  17.3620  17.3631

     occupation numbers 
     1.0000   1.0000   1.0000   1.0000   1.0000   1.0000   1.0000   1.0000
     1.0000   1.0000   1.0000   1.0000   1.0000   1.0000   1.0000   1.0000
     1.0000   1.0000   1.0000   1.0000   1.0000   1.0000   1.0000   1.0000
     1.0000   1.0000   1.0000   1.0000   1.0000   1.0000   1.0000   1.0000
     1.0000   1.0000   1.0000   1.0000   1.0000   1.0000   1.0000   1.0000
     1.0000   1.0000   1.0000   1.0000   1.0000   1.0000   1.0000   1.0000
     1.0000   1.0000   1.0000   1.0000   1.0000   1.0000   1.0000   1.0000
     1.0000   1.0000   1.0000   1.0000   1.0000   1.0000   1.0000   1.0000
     1.0000   1.0000   1.0000   1.0000   1.0042   1.0042   1.0090   1.0090
    -0.0225  -0.0225  -0.0304  -0.0304  -0.0000  -0.0000  -0.0000  -0.0000
    -0.0000  -0.0000  -0.0000  -0.0000  -0.0000  -0.0000

          k = 0.0000 0.3333 0.3333 (  9619 PWs)   bands (ev):

   -56.4991 -56.4991 -56.4905 -56.4905 -56.4761 -56.4761 -56.4732 -56.4732
   -28.5820 -28.5779 -28.5708 -28.5699 -28.5378 -28.5354 -28.5133 -28.5125
   -27.6243 -27.6230 -27.5794 -27.5738 -27.5541 -27.5462 -27.5345 -27.5324
   -27.5183 -27.4958 -27.4936 -27.4824 -27.4533 -27.4398 -27.4301 -27.4270
     4.1579   4.1583   5.6394   5.6416   6.6781   6.6809   7.8195   7.8233
    10.0317  10.0344  10.3054  10.3084  10.9412  10.9429  11.2587  11.2609
    11.8949  11.9016  12.1595  12.1640  12.3104  12.3199  12.6294  12.6373
    13.1803  13.1887  13.3922  13.3973  13.5612  13.5640  13.7221  13.7274
    13.8859  13.8975  14.0965  14.1093  14.4908  14.5165  14.8511  14.8627
    14.9434  14.9635  15.0598  15.0766  15.5241  15.5472  15.6050  15.6350
    16.2359  16.2447  16.4932  16.5001  17.1495  17.1799

     occupation numbers 
     1.0000   1.0000   1.0000   1.0000   1.0000   1.0000   1.0000   1.0000
     1.0000   1.0000   1.0000   1.0000   1.0000   1.0000   1.0000   1.0000
     1.0000   1.0000   1.0000   1.0000   1.0000   1.0000   1.0000   1.0000
     1.0000   1.0000   1.0000   1.0000   1.0000   1.0000   1.0000   1.0000
     1.0000   1.0000   1.0000   1.0000   1.0000   1.0000   1.0000   1.0000
     1.0000   1.0000   1.0000   1.0000   1.0000   1.0000   1.0000   1.0000
     1.0000   1.0000   1.0000   1.0000   1.0000   1.0000   1.0000   1.0000
     1.0000   1.0000   1.0000   1.0000   1.0000   1.0000   1.0000   1.0000
     1.0000   1.0000   1.0000   1.0000   1.0000   1.0000   0.9804   0.9525
     0.5725   0.4480   0.0181  -0.0102  -0.0000  -0.0000  -0.0000  -0.0000
    -0.0000  -0.0000  -0.0000  -0.0000  -0.0000  -0.0000

          k = 0.0000 0.3333 0.4167 (  9633 PWs)   bands (ev):

   -56.4967 -56.4967 -56.4922 -56.4922 -56.4758 -56.4758 -56.4741 -56.4741
   -28.5790 -28.5758 -28.5717 -28.5703 -28.5333 -28.5317 -28.5199 -28.5192
   -27.6209 -27.6199 -27.5822 -27.5782 -27.5500 -27.5445 -27.5336 -27.5253
   -27.5224 -27.5043 -27.4956 -27.4887 -27.4472 -27.4393 -27.4288 -27.4267
     4.5297   4.5304   5.3657   5.3675   6.7392   6.7420   7.4116   7.4146
    10.2067  10.2084  10.3661  10.3682  11.0324  11.0353  11.3565  11.3635
    11.7485  11.7514  11.9390  11.9441  12.3014  12.3076  12.4390  12.4476
    13.2763  13.2844  13.4191  13.4213  13.5855  13.5880  13.7609  13.7661
    14.0575  14.0649  14.1762  14.1842  14.5767  14.6003  14.7054  14.7239
    14.9197  14.9366  14.9776  14.9967  15.4971  15.5176  15.5379  15.5663
    16.3356  16.3455  16.5070  16.5133  17.0999  17.1191

     occupation numbers 
     1.0000   1.0000   1.0000   1.0000   1.0000   1.0000   1.0000   1.0000
     1.0000   1.0000   1.0000   1.0000   1.0000   1.0000   1.0000   1.0000
     1.0000   1.0000   1.0000   1.0000   1.0000   1.0000   1.0000   1.0000
     1.0000   1.0000   1.0000   1.0000   1.0000   1.0000   1.0000   1.0000
     1.0000   1.0000   1.0000   1.0000   1.0000   1.0000   1.0000   1.0000
     1.0000   1.0000   1.0000   1.0000   1.0000   1.0000   1.0000   1.0000
     1.0000   1.0000   1.0000   1.0000   1.0000   1.0000   1.0000   1.0000
     1.0000   1.0000   1.0000   1.0000   1.0000   1.0000   1.0000   1.0000
     1.0000   1.0000   1.0000   1.0000   1.0003   1.0007   1.0131   1.0186
     0.7122   0.6139   0.3620   0.2543  -0.0000  -0.0000  -0.0000  -0.0000
    -0.0000  -0.0000  -0.0000  -0.0000  -0.0000  -0.0000

          k = 0.0000 0.3333-0.5000 (  9646 PWs)   bands (ev):

   -56.4943 -56.4943 -56.4943 -56.4943 -56.4751 -56.4751 -56.4751 -56.4751
   -28.5761 -28.5761 -28.5717 -28.5717 -28.5279 -28.5279 -28.5249 -28.5249
   -27.6190 -27.6190 -27.5818 -27.5818 -27.5461 -27.5461 -27.5291 -27.5291
   -27.5149 -27.5149 -27.4932 -27.4932 -27.4421 -27.4421 -27.4275 -27.4275
     4.9490   4.9490   4.9504   4.9504   7.0283   7.0283   7.0332   7.0332
    10.3308  10.3308  10.3328  10.3328  11.2383  11.2383  11.2467  11.2467
    11.7613  11.7613  11.7668  11.7668  12.3351  12.3351  12.3424  12.3424
    13.3677  13.3677  13.3748  13.3748  13.6767  13.6767  13.6854  13.6854
    14.1733  14.1733  14.1788  14.1788  14.6134  14.6134  14.6324  14.6324
    14.9461  14.9461  14.9611  14.9611  15.5001  15.5001  15.5243  15.5243
    16.4437  16.4438  16.4545  16.4545  17.1972  17.1992

     occupation numbers 
     1.0000   1.0000   1.0000   1.0000   1.0000   1.0000   1.0000   1.0000
     1.0000   1.0000   1.0000   1.0000   1.0000   1.0000   1.0000   1.0000
     1.0000   1.0000   1.0000   1.0000   1.0000   1.0000   1.0000   1.0000
     1.0000   1.0000   1.0000   1.0000   1.0000   1.0000   1.0000   1.0000
     1.0000   1.0000   1.0000   1.0000   1.0000   1.0000   1.0000   1.0000
     1.0000   1.0000   1.0000   1.0000   1.0000   1.0000   1.0000   1.0000
     1.0000   1.0000   1.0000   1.0000   1.0000   1.0000   1.0000   1.0000
     1.0000   1.0000   1.0000   1.0000   1.0000   1.0000   1.0000   1.0000
     1.0000   1.0000   1.0000   1.0000   1.0011   1.0011   1.0020   1.0020
     0.5558   0.5558   0.4627   0.4627  -0.0000  -0.0000  -0.0000  -0.0000
    -0.0000  -0.0000  -0.0000  -0.0000  -0.0000  -0.0000

          k = 0.0000 0.4167 0.4167 (  9620 PWs)   bands (ev):

   -56.4951 -56.4951 -56.4926 -56.4926 -56.4761 -56.4761 -56.4751 -56.4751
   -28.5757 -28.5733 -28.5706 -28.5698 -28.5326 -28.5313 -28.5249 -28.5241
   -27.6143 -27.6141 -27.5884 -27.5861 -27.5434 -27.5407 -27.5314 -27.5248
   -27.5231 -27.5064 -27.5049 -27.4971 -27.4407 -27.4352 -27.4293 -27.4270
     4.8721   4.8728   5.4385   5.4395   6.4930   6.4944   6.9793   6.9816
    10.4583  10.4589  10.6119  10.6131  10.9174  10.9182  11.2343  11.2379
    11.6241  11.6249  11.8556  11.8608  12.2711  12.2712  12.3585  12.3637
    13.2967  13.3028  13.3783  13.3786  13.8027  13.8051  13.9158  13.9204
    14.1918  14.1948  14.2506  14.2540  14.5310  14.5358  14.6373  14.6568
[...]
    12.1183  12.1183  12.1251  12.1251  12.4618  12.4618  12.4708  12.4708
    13.2054  13.2054  13.2101  13.2101  13.7338  13.7338  13.7474  13.7474
    14.3214  14.3214  14.3261  14.3261  14.7098  14.7098  14.7361  14.7361
    14.8576  14.8576  14.8965  14.8965  15.3785  15.3785  15.3897  15.3897
    16.4375  16.4375  16.4470  16.4470  17.0324  17.0358

     occupation numbers 
     1.0000   1.0000   1.0000   1.0000   1.0000   1.0000   1.0000   1.0000
     1.0000   1.0000   1.0000   1.0000   1.0000   1.0000   1.0000   1.0000
     1.0000   1.0000   1.0000   1.0000   1.0000   1.0000   1.0000   1.0000
     1.0000   1.0000   1.0000   1.0000   1.0000   1.0000   1.0000   1.0000
     1.0000   1.0000   1.0000   1.0000   1.0000   1.0000   1.0000   1.0000
     1.0000   1.0000   1.0000   1.0000   1.0000   1.0000   1.0000   1.0000
     1.0000   1.0000   1.0000   1.0000   1.0000   1.0000   1.0000   1.0000
     1.0000   1.0000   1.0000   1.0000   1.0000   1.0000   1.0000   1.0000
     1.0000   1.0000   1.0000   1.0000   1.0143   1.0143   1.0226   1.0226
     0.9655   0.9655   0.8298   0.8298  -0.0000  -0.0000  -0.0000  -0.0000
    -0.0000  -0.0000  -0.0000  -0.0000  -0.0000  -0.0000

          k =-0.2500 0.4167 0.3333 (  9646 PWs)   bands (ev):

   -56.4943 -56.4943 -56.4904 -56.4904 -56.4781 -56.4781 -56.4761 -56.4761
   -28.5742 -28.5713 -28.5665 -28.5653 -28.5387 -28.5367 -28.5270 -28.5255
   -27.6146 -27.6123 -27.5779 -27.5739 -27.5634 -27.5601 -27.5370 -27.5275
   -27.5189 -27.5059 -27.4786 -27.4711 -27.4546 -27.4500 -27.4309 -27.4285
     4.8882   4.8887   5.6561   5.6588   6.8097   6.8151   7.3886   7.3918
     8.9986   9.0029   9.5183   9.5231  10.7777  10.7809  11.2119  11.2136
    12.0015  12.0040  12.3408  12.3445  12.7086  12.7150  12.8308  12.8378
    13.1091  13.1168  13.1640  13.1758  13.4073  13.4151  13.5783  13.5887
    14.1395  14.1472  14.4474  14.4594  14.6861  14.7003  14.8352  14.8547
    14.9701  14.9817  15.1326  15.1659  15.2874  15.2955  15.4330  15.4462
    16.2818  16.2899  16.3890  16.3960  17.0231  17.0322

     occupation numbers 
     1.0000   1.0000   1.0000   1.0000   1.0000   1.0000   1.0000   1.0000
     1.0000   1.0000   1.0000   1.0000   1.0000   1.0000   1.0000   1.0000
     1.0000   1.0000   1.0000   1.0000   1.0000   1.0000   1.0000   1.0000
     1.0000   1.0000   1.0000   1.0000   1.0000   1.0000   1.0000   1.0000
     1.0000   1.0000   1.0000   1.0000   1.0000   1.0000   1.0000   1.0000
     1.0000   1.0000   1.0000   1.0000   1.0000   1.0000   1.0000   1.0000
     1.0000   1.0000   1.0000   1.0000   1.0000   1.0000   1.0000   1.0000
     1.0000   1.0000   1.0000   1.0000   1.0000   1.0000   1.0000   1.0000
     1.0000   1.0000   1.0000   1.0000   1.0086   1.0118   1.0080   0.9725
     0.4072   0.3377  -0.0346  -0.0254  -0.0015  -0.0011  -0.0000  -0.0000
    -0.0000  -0.0000  -0.0000  -0.0000  -0.0000  -0.0000

          k =-0.2500-0.5000 0.3333 (  9656 PWs)   bands (ev):

   -56.4922 -56.4922 -56.4922 -56.4922 -56.4772 -56.4772 -56.4772 -56.4772
   -28.5711 -28.5711 -28.5668 -28.5668 -28.5343 -28.5343 -28.5307 -28.5307
   -27.6120 -27.6120 -27.5773 -27.5773 -27.5619 -27.5619 -27.5329 -27.5329
   -27.5116 -27.5116 -27.4760 -27.4760 -27.4509 -27.4509 -27.4301 -27.4301
     5.2800   5.2800   5.2814   5.2814   7.0728   7.0728   7.0779   7.0779
     9.2473   9.2473   9.2519   9.2519  10.9391  10.9391  10.9417  10.9417
    12.1909  12.1909  12.1990  12.1990  12.7760  12.7760  12.7862  12.7862
    13.1192  13.1192  13.1304  13.1304  13.5024  13.5024  13.5127  13.5127
    14.3109  14.3109  14.3194  14.3194  14.7827  14.7827  14.8003  14.8003
    15.0330  15.0330  15.0582  15.0582  15.3590  15.3590  15.3741  15.3741
    16.3372  16.3372  16.3474  16.3475  17.0897  17.0909

     occupation numbers 
     1.0000   1.0000   1.0000   1.0000   1.0000   1.0000   1.0000   1.0000
     1.0000   1.0000   1.0000   1.0000   1.0000   1.0000   1.0000   1.0000
     1.0000   1.0000   1.0000   1.0000   1.0000   1.0000   1.0000   1.0000
     1.0000   1.0000   1.0000   1.0000   1.0000   1.0000   1.0000   1.0000
     1.0000   1.0000   1.0000   1.0000   1.0000   1.0000   1.0000   1.0000
     1.0000   1.0000   1.0000   1.0000   1.0000   1.0000   1.0000   1.0000
     1.0000   1.0000   1.0000   1.0000   1.0000   1.0000   1.0000   1.0000
     1.0000   1.0000   1.0000   1.0000   1.0000   1.0000   1.0000   1.0000
     1.0000   1.0000   1.0000   1.0000   1.0352   1.0352   1.0341   1.0341
     0.0925   0.0925   0.0215   0.0215  -0.0001  -0.0001  -0.0001  -0.0001
    -0.0000  -0.0000  -0.0000  -0.0000  -0.0000  -0.0000

          k =-0.2500-0.5000 0.4167 (  9646 PWs)   bands (ev):

   -56.4912 -56.4912 -56.4912 -56.4912 -56.4782 -56.4782 -56.4782 -56.4782
   -28.5677 -28.5677 -28.5651 -28.5651 -28.5366 -28.5366 -28.5342 -28.5342
   -27.6050 -27.6050 -27.5854 -27.5854 -27.5596 -27.5596 -27.5358 -27.5358
   -27.5071 -27.5071 -27.4808 -27.4808 -27.4457 -27.4457 -27.4328 -27.4328
     5.5366   5.5366   5.5385   5.5385   6.7771   6.7771   6.7814   6.7814
     9.3214   9.3214   9.3264   9.3264  10.6411  10.6411  10.6440  10.6440
    12.3629  12.3629  12.3713  12.3713  12.6628  12.6628  12.6723  12.6723
    13.1117  13.1117  13.1180  13.1180  13.5469  13.5469  13.5594  13.5594
    14.4474  14.4474  14.4539  14.4539  14.8191  14.8192  14.8455  14.8455
    14.9569  14.9569  14.9946  14.9946  15.3229  15.3229  15.3344  15.3344
    16.3842  16.3842  16.3927  16.3927  16.9329  16.9350

     occupation numbers 
     1.0000   1.0000   1.0000   1.0000   1.0000   1.0000   1.0000   1.0000
     1.0000   1.0000   1.0000   1.0000   1.0000   1.0000   1.0000   1.0000
     1.0000   1.0000   1.0000   1.0000   1.0000   1.0000   1.0000   1.0000
     1.0000   1.0000   1.0000   1.0000   1.0000   1.0000   1.0000   1.0000
     1.0000   1.0000   1.0000   1.0000   1.0000   1.0000   1.0000   1.0000
     1.0000   1.0000   1.0000   1.0000   1.0000   1.0000   1.0000   1.0000
     1.0000   1.0000   1.0000   1.0000   1.0000   1.0000   1.0000   1.0000
     1.0000   1.0000   1.0000   1.0000   1.0000   1.0000   1.0000   1.0000
     1.0000   1.0000   1.0000   1.0000   1.0250   1.0250   0.9915   0.9914
     0.4887   0.4887   0.2653   0.2653  -0.0004  -0.0004  -0.0003  -0.0003
    -0.0000  -0.0000  -0.0000  -0.0000  -0.0000  -0.0000

          k =-0.3333-0.5000 0.4167 (  9664 PWs)   bands (ev):

   -56.4895 -56.4895 -56.4895 -56.4895 -56.4799 -56.4799 -56.4799 -56.4799
   -28.5640 -28.5640 -28.5615 -28.5615 -28.5408 -28.5408 -28.5385 -28.5385
   -27.6004 -27.6004 -27.5828 -27.5828 -27.5678 -27.5678 -27.5402 -27.5402
   -27.5008 -27.5008 -27.4719 -27.4719 -27.4507 -27.4507 -27.4370 -27.4370
     5.7594   5.7594   5.7619   5.7619   6.7864   6.7864   6.7920   6.7920
     9.0481   9.0481   9.0544   9.0544  10.2142  10.2142  10.2178  10.2178
    12.5379  12.5379  12.5457  12.5457  12.8209  12.8209  12.8291  12.8291
    13.0640  13.0640  13.0736  13.0736  13.3584  13.3584  13.3689  13.3689
    14.5923  14.5923  14.5991  14.5991  14.9435  14.9435  14.9708  14.9708
    15.0572  15.0572  15.0917  15.0917  15.2611  15.2611  15.2796  15.2796
    16.3462  16.3462  16.3544  16.3544  16.7855  16.7908

     occupation numbers 
     1.0000   1.0000   1.0000   1.0000   1.0000   1.0000   1.0000   1.0000
     1.0000   1.0000   1.0000   1.0000   1.0000   1.0000   1.0000   1.0000
     1.0000   1.0000   1.0000   1.0000   1.0000   1.0000   1.0000   1.0000
     1.0000   1.0000   1.0000   1.0000   1.0000   1.0000   1.0000   1.0000
     1.0000   1.0000   1.0000   1.0000   1.0000   1.0000   1.0000   1.0000
     1.0000   1.0000   1.0000   1.0000   1.0000   1.0000   1.0000   1.0000
     1.0000   1.0000   1.0000   1.0000   1.0000   1.0000   1.0000   1.0000
     1.0000   1.0000   1.0000   1.0000   1.0000   1.0000   1.0000   1.0000
     1.0005   1.0005   1.0007   1.0007   0.5717   0.5717   0.4031   0.4031
     0.0237   0.0237  -0.0255  -0.0255  -0.0033  -0.0033  -0.0019  -0.0019
    -0.0000  -0.0000  -0.0000  -0.0000  -0.0000  -0.0000

     the Fermi energy is    14.9551 ev

!    total energy              =   -1180.35040627 Ry

     total all-electron energy =    -10727.811243 Ry
     estimated scf accuracy    <       0.00000090 Ry
     smearing contrib. (-TS)   =      -0.00008714 Ry
     internal energy E=F+TS    =   -1180.35031914 Ry

     The total energy is F=E-TS. E is the sum of the following terms:
     one-electron contribution =    -336.78574345 Ry
     hartree contribution      =     207.02853216 Ry
     xc contribution           =    -114.36053080 Ry
     ewald contribution        =    -496.51183961 Ry
     one-center paw contrib.   =    -439.72073744 Ry
      -> PAW hartree energy AE =     126.71154879 Ry
      -> PAW hartree energy PS =    -125.74427751 Ry
      -> PAW xc energy AE      =     -96.23923297 Ry
      -> PAW xc energy PS      =      20.93200419 Ry
      -> total E_H with PAW    =     207.99580344 Ry
      -> total E_XC with PAW   =    -189.66775959 Ry

     convergence has been achieved in   6 iterations

     Forces acting on atoms (cartesian axes, Ry/au):

     atom    1 type  1   force =    -0.00264029   -0.00264029    0.00264029
     atom    2 type  1   force =    -0.00264029    0.00264029   -0.00264029
     atom    3 type  1   force =     0.00264029   -0.00264029   -0.00264029
     atom    4 type  1   force =     0.00264029    0.00264029    0.00264029
     atom    5 type  2   force =    -0.00432441   -0.00432441    0.00432441
     atom    6 type  2   force =    -0.00432441    0.00432441   -0.00432441
     atom    7 type  2   force =     0.00432441   -0.00432441   -0.00432441
     atom    8 type  2   force =     0.00432441    0.00432441    0.00432441
     The non-local contrib.  to forces
     atom    1 type  1   force =     0.05139634    0.05139634   -0.05139634
     atom    2 type  1   force =     0.05139634   -0.05139634    0.05139634
     atom    3 type  1   force =    -0.05139634    0.05139634    0.05139634
     atom    4 type  1   force =    -0.05139634   -0.05139634   -0.05139634
     atom    5 type  2   force =    -0.00803830   -0.00803830    0.00803830
     atom    6 type  2   force =    -0.00803830    0.00803830   -0.00803830
     atom    7 type  2   force =     0.00803830   -0.00803830   -0.00803830
     atom    8 type  2   force =     0.00803830    0.00803830    0.00803830
     The ionic contribution  to forces
     atom    1 type  1   force =    -0.85044630   -0.85044630    0.85044630
     atom    2 type  1   force =    -0.85044630    0.85044630   -0.85044630
     atom    3 type  1   force =     0.85044630   -0.85044630   -0.85044630
     atom    4 type  1   force =     0.85044630    0.85044630    0.85044630
     atom    5 type  2   force =    -0.24524978   -0.24524978    0.24524978
     atom    6 type  2   force =    -0.24524978    0.24524978   -0.24524978
     atom    7 type  2   force =     0.24524978   -0.24524978   -0.24524978
     atom    8 type  2   force =     0.24524978    0.24524978    0.24524978
     The local contribution  to forces
     atom    1 type  1   force =     0.79764785    0.79764785   -0.79764785
     atom    2 type  1   force =     0.79764785   -0.79764785    0.79764785
     atom    3 type  1   force =    -0.79764785    0.79764785    0.79764785
     atom    4 type  1   force =    -0.79764785   -0.79764785   -0.79764785
     atom    5 type  2   force =     0.24812702    0.24812702   -0.24812702
     atom    6 type  2   force =     0.24812702   -0.24812702    0.24812702
     atom    7 type  2   force =    -0.24812702    0.24812702    0.24812702
     atom    8 type  2   force =    -0.24812702   -0.24812702   -0.24812702
     The core correction contribution to forces
     atom    1 type  1   force =    -0.00103404   -0.00103404    0.00103404
     atom    2 type  1   force =    -0.00103404    0.00103404   -0.00103404
     atom    3 type  1   force =     0.00103404   -0.00103404   -0.00103404
     atom    4 type  1   force =     0.00103404    0.00103404    0.00103404
     atom    5 type  2   force =     0.00079103    0.00079103   -0.00079103
     atom    6 type  2   force =     0.00079103   -0.00079103    0.00079103
     atom    7 type  2   force =    -0.00079103    0.00079103    0.00079103
     atom    8 type  2   force =    -0.00079103   -0.00079103   -0.00079103
     The Hubbard contrib.    to forces
     atom    1 type  1   force =     0.00000000    0.00000000    0.00000000
     atom    2 type  1   force =     0.00000000    0.00000000    0.00000000
     atom    3 type  1   force =     0.00000000    0.00000000    0.00000000
     atom    4 type  1   force =     0.00000000    0.00000000    0.00000000
     atom    5 type  2   force =     0.00000000    0.00000000    0.00000000
     atom    6 type  2   force =     0.00000000    0.00000000    0.00000000
     atom    7 type  2   force =     0.00000000    0.00000000    0.00000000
     atom    8 type  2   force =     0.00000000    0.00000000    0.00000000
     The SCF correction term to forces
     atom    1 type  1   force =    -0.00020414   -0.00020414    0.00020414
     atom    2 type  1   force =    -0.00020414    0.00020414   -0.00020414
     atom    3 type  1   force =     0.00020414   -0.00020414   -0.00020414
     atom    4 type  1   force =     0.00020414    0.00020414    0.00020414
     atom    5 type  2   force =     0.00004562    0.00004562   -0.00004562
     atom    6 type  2   force =     0.00004562   -0.00004562    0.00004562
     atom    7 type  2   force =    -0.00004562    0.00004562    0.00004562
     atom    8 type  2   force =    -0.00004562   -0.00004562   -0.00004562

     Total force =     0.017552     Total SCF correction =     0.000725


     Computing stress (Cartesian axis) and pressure

          total   stress  (Ry/bohr**3)                   (kbar)     P=      -45.14
  -0.00030687   0.00000000   0.00000000          -45.14        0.00        0.00
   0.00000000  -0.00030687   0.00000000            0.00      -45.14        0.00
   0.00000000   0.00000000  -0.00030687            0.00        0.00      -45.14

     kinetic stress (kbar)  35758.55      0.00      0.00
                                0.00  35758.55      0.00
                                0.00      0.00  35758.55

     local   stress (kbar) -10012.32      0.00     -0.00
                                0.00 -10012.32     -0.00
                               -0.00     -0.00 -10012.32

     nonloc. stress (kbar)   2426.14      0.00      0.00
                                0.00   2426.14      0.00
                                0.00      0.00   2426.14

     hartree stress (kbar)  15166.26      0.00      0.00
                                0.00  15166.26     -0.00
                                0.00     -0.00  15166.26

     exc-cor stress (kbar)  -1706.50      0.00     -0.00
                                0.00  -1706.50     -0.00
                               -0.00     -0.00  -1706.50

     corecor stress (kbar)  -5304.36     -0.00     -0.00
                               -0.00  -5304.36     -0.00
                               -0.00     -0.00  -5304.36

     ewald   stress (kbar) -36372.90      0.00      0.00
                                0.00 -36372.90      0.00
                                0.00      0.00 -36372.90

     hubbard stress (kbar)      0.00      0.00      0.00
                                0.00      0.00      0.00
                                0.00      0.00      0.00

     DFT-D   stress (kbar)      0.00      0.00      0.00
                                0.00      0.00      0.00
                                0.00      0.00      0.00

     XDM     stress (kbar)      0.00      0.00      0.00
                                0.00      0.00      0.00
                                0.00      0.00      0.00

     dft-nl  stress (kbar)      0.00      0.00      0.00
                                0.00      0.00      0.00
                                0.00      0.00      0.00

     TS-vdW  stress (kbar)      0.00      0.00      0.00
                                0.00      0.00      0.00
                                0.00      0.00      0.00



     Writing output data file /zfs_data/vergnior/martin/Scratch/OAL/CrSi/convergence/smearing/12x12x12/0.010/tmp/CrSi.save/
 
     init_run     :     17.60s CPU     18.17s WALL (       1 calls)
     electrons    :    559.85s CPU    575.28s WALL (       1 calls)
     forces       :     21.65s CPU     21.83s WALL (       1 calls)
     stress       :     58.82s CPU     60.89s WALL (       1 calls)

     Called by init_run:
     wfcinit      :     16.40s CPU     16.81s WALL (       1 calls)
     wfcinit:atom :      0.15s CPU      0.15s WALL (     119 calls)
     wfcinit:wfcr :     15.61s CPU     16.01s WALL (     119 calls)
     potinit      :      0.18s CPU      0.26s WALL (       1 calls)
     hinit0       :      0.17s CPU      0.18s WALL (       1 calls)

     Called by electrons:
     c_bands      :    460.66s CPU    472.51s WALL (       7 calls)
     sum_band     :     94.51s CPU     97.39s WALL (       7 calls)
     v_of_rho     :      0.20s CPU      0.21s WALL (       7 calls)
     v_h          :      0.02s CPU      0.02s WALL (       7 calls)
     v_xc         :      0.23s CPU      0.25s WALL (       9 calls)
     newd         :      3.85s CPU      4.54s WALL (       7 calls)
     PAW_pot      :      1.01s CPU      1.04s WALL (       7 calls)
     mix_rho      :      0.11s CPU      0.12s WALL (       7 calls)

     Called by c_bands:
     init_us_2    :      2.64s CPU      2.71s WALL (    2023 calls)
     cegterg      :    424.78s CPU    436.16s WALL (     833 calls)

     Called by sum_band:
     sum_band:wei :      0.13s CPU      0.13s WALL (       7 calls)
     sum_band:loo :     91.25s CPU     93.32s WALL (       7 calls)
     sum_band:buf :      0.69s CPU      0.82s WALL (     833 calls)
     sum_band:ini :      1.15s CPU      1.18s WALL (     833 calls)
     sum_band:cal :      5.76s CPU      5.82s WALL (     833 calls)
     sum_band:bec :     12.23s CPU     12.30s WALL (     833 calls)
     addusdens    :      2.92s CPU      3.72s WALL (       7 calls)
     addusd:skk   :      0.01s CPU      0.01s WALL (      14 calls)
     addusd:dgemm :      1.12s CPU      1.88s WALL (      14 calls)
     addusd:qvan2 :      1.76s CPU      1.78s WALL (      14 calls)

     Called by *egterg:
     cdiaghg      :     36.32s CPU     36.58s WALL (    4440 calls)
     cegterg:over :     22.61s CPU     22.99s WALL (    3726 calls)
     cegterg:upda :     11.25s CPU     11.39s WALL (    3726 calls)
     cegterg:last :     20.46s CPU     20.73s WALL (    2238 calls)
     h_psi        :    299.18s CPU    309.29s WALL (    4678 calls)
     s_psi        :     39.68s CPU     40.18s WALL (    4678 calls)
     g_psi        :      0.68s CPU      0.70s WALL (    3726 calls)

     Called by h_psi:
     h_psi:calbec :     20.34s CPU     20.72s WALL (    4678 calls)
     vloc_psi     :    241.01s CPU    250.13s WALL (    4678 calls)
     add_vuspsi   :     36.27s CPU     36.84s WALL (    4678 calls)

     General routines
     calbec       :     30.69s CPU     31.18s WALL (    6106 calls)
     fft          :      0.22s CPU      0.23s WALL (     172 calls)
     ffts         :      0.02s CPU      0.09s WALL (      56 calls)
     fftw         :    196.28s CPU    202.97s WALL ( 1123064 calls)
     interpolate  :      0.05s CPU      0.12s WALL (      28 calls)
 
     Parallel routines
     fft_scatt_xy :     19.38s CPU     20.04s WALL ( 1123292 calls)
     fft_scatt_yz :     73.97s CPU     76.39s WALL ( 1123292 calls)

     PAW routines
     PAW_pot      :      1.01s CPU      1.04s WALL (       7 calls)
     PAW_symme    :      0.02s CPU      0.02s WALL (      14 calls)
 
     PWSCF        :  11m 3.04s CPU  11m26.21s WALL

 
   This run was terminated on:  12:50:42   1Aug2021            

=------------------------------------------------------------------------------=
   JOB DONE.
=------------------------------------------------------------------------------=
