MPI startup(): Warning: I_MPI_PMI_LIBRARY will be ignored since the hydra process manager was found
MPI startup(): Warning: I_MPI_PMI_LIBRARY will be ignored since the hydra process manager was found
MPI startup(): Warning: I_MPI_PMI_LIBRARY will be ignored since the hydra process manager was found
MPI startup(): Warning: I_MPI_PMI_LIBRARY will be ignored since the hydra process manager was found
MPI startup(): Warning: I_MPI_PMI_LIBRARY will be ignored since the hydra process manager was found
MPI startup(): Warning: I_MPI_PMI_LIBRARY will be ignored since the hydra process manager was found
MPI startup(): Warning: I_MPI_PMI_LIBRARY will be ignored since the hydra process manager was found
MPI startup(): Warning: I_MPI_PMI_LIBRARY will be ignored since the hydra process manager was found
MPI startup(): Warning: I_MPI_PMI_LIBRARY will be ignored since the hydra process manager was found
MPI startup(): Warning: I_MPI_PMI_LIBRARY will be ignored since the hydra process manager was found
MPI startup(): Warning: I_MPI_PMI_LIBRARY will be ignored since the hydra process manager was found
MPI startup(): Warning: I_MPI_PMI_LIBRARY will be ignored since the hydra process manager was found
MPI startup(): Warning: I_MPI_PMI_LIBRARY will be ignored since the hydra process manager was found
MPI startup(): Warning: I_MPI_PMI_LIBRARY will be ignored since the hydra process manager was found
MPI startup(): Warning: I_MPI_PMI_LIBRARY will be ignored since the hydra process manager was found
MPI startup(): Warning: I_MPI_PMI_LIBRARY will be ignored since the hydra process manager was found
MPI startup(): Warning: I_MPI_PMI_LIBRARY will be ignored since the hydra process manager was found
MPI startup(): Warning: I_MPI_PMI_LIBRARY will be ignored since the hydra process manager was found
MPI startup(): Warning: I_MPI_PMI_LIBRARY will be ignored since the hydra process manager was found
MPI startup(): Warning: I_MPI_PMI_LIBRARY will be ignored since the hydra process manager was found
MPI startup(): Warning: I_MPI_PMI_LIBRARY will be ignored since the hydra process manager was found
MPI startup(): Warning: I_MPI_PMI_LIBRARY will be ignored since the hydra process manager was found
MPI startup(): Warning: I_MPI_PMI_LIBRARY will be ignored since the hydra process manager was found
MPI startup(): Warning: I_MPI_PMI_LIBRARY will be ignored since the hydra process manager was found

     Program PWSCF v.6.7MaX starts on  1Aug2021 at 12:34:33 

     This program is part of the open-source Quantum ESPRESSO suite
     for quantum simulation of materials; please cite
         "P. Giannozzi et al., J. Phys.:Condens. Matter 21 395502 (2009);
         "P. Giannozzi et al., J. Phys.:Condens. Matter 29 465901 (2017);
          URL http://www.quantum-espresso.org", 
     in publications or presentations arising from this work. More details at
     http://www.quantum-espresso.org/quote

     Parallel version (MPI), running on    24 processors

     MPI processes distributed on     1 nodes
     R & G space division:  proc/nbgrp/npool/nimage =      24
     Waiting for input...
     Reading input from standard input

     Current dimensions of program PWSCF are:
     Max number of different atomic species (ntypx) = 10
     Max number of k-points (npk) =  40000
     Max angular momentum in pseudopotentials (lmaxx) =  3
     file Cr.rel-pbe-spn-kjpaw_psl.1.0.0.UPF: wavefunction(s)  3S 3P 3P 3D 3D renormalized
     file Si.rel-pbe-n-kjpaw_psl.1.0.0.UPF: wavefunction(s)  3S 3P 3P renormalized

     Subspace diagonalization in iterative solution of the eigenvalue problem:
     a serial algorithm will be used

     Message from routine setup:
     using ibrav=0 with symmetry is DISCOURAGED, use correct ibrav instead
 
     Parallelization info
     --------------------
     sticks:   dense  smooth     PW     G-vecs:    dense   smooth      PW
     Min         228      91     25                12702     3210     487
     Max         229      93     26                12704     3214     492
     Sum        5473    2201    621               304867    77053   11753
 


     bravais-lattice index     =            0
     lattice parameter (alat)  =       8.7475  a.u.
     unit-cell volume          =     669.3575 (a.u.)^3
     number of atoms/cell      =            8
     number of atomic types    =            2
     number of electrons       =        72.00
     number of Kohn-Sham states=           86
     kinetic-energy cutoff     =      90.0000  Ry
     charge density cutoff     =     900.0000  Ry
     scf convergence threshold =      1.0E-06
     mixing beta               =       0.7000
     number of iterations used =            8  plain     mixing
     Exchange-correlation= SLA  PW   PBX  PBC
                           (   1   4   3   4   0   0   0)
     Non magnetic calculation with spin-orbit


     celldm(1)=   8.747542  celldm(2)=   0.000000  celldm(3)=   0.000000
     celldm(4)=   0.000000  celldm(5)=   0.000000  celldm(6)=   0.000000

     crystal axes: (cart. coord. in units of alat)
               a(1) = (   1.000000   0.000000   0.000000 )  
               a(2) = (   0.000000   1.000000   0.000000 )  
               a(3) = (   0.000000   0.000000   1.000000 )  

     reciprocal axes: (cart. coord. in units 2 pi/alat)
               b(1) = (  1.000000  0.000000  0.000000 )  
               b(2) = (  0.000000  1.000000  0.000000 )  
               b(3) = (  0.000000  0.000000  1.000000 )  


     PseudoPot. # 1 for Cr read from file:
     ../../../../pseudo/Cr.rel-pbe-spn-kjpaw_psl.1.0.0.UPF
     MD5 check sum: 1e24e2b5251376a8b945118fca0c7981
     Pseudo is Projector augmented-wave + core cor, Zval = 14.0
     Generated using &quot;atomic&quot; code by A. Dal Corso  v.6.3
     Shape of augmentation charge: PSQ
     Using radial grid of 1183 points, 10 beta functions with: 
                l(1) =   0
                l(2) =   0
                l(3) =   1
                l(4) =   1
                l(5) =   1
                l(6) =   1
                l(7) =   2
                l(8) =   2
                l(9) =   2
               l(10) =   2
     Q(r) pseudized with 0 coefficients 


     PseudoPot. # 2 for Si read from file:
     ../../../../pseudo/Si.rel-pbe-n-kjpaw_psl.1.0.0.UPF
     MD5 check sum: d74f6caf6830ea4c2076867160cab1b0
     Pseudo is Projector augmented-wave + core cor, Zval =  4.0
     Generated using &quot;atomic&quot; code by A. Dal Corso  v.6.3
     Shape of augmentation charge: PSQ
     Using radial grid of 1141 points, 10 beta functions with: 
                l(1) =   0
                l(2) =   0
                l(3) =   1
                l(4) =   1
                l(5) =   1
                l(6) =   1
                l(7) =   2
                l(8) =   2
                l(9) =   2
               l(10) =   2
     Q(r) pseudized with 0 coefficients 


     atomic species   valence    mass     pseudopotential
        Cr            14.00    51.99600     Cr( 1.00)
        Si             4.00    28.08500     Si( 1.00)

     12 Sym. Ops. (no inversion) found ( 9 have fractional translation)


                                    s                        frac. trans.

      isym =  1     identity                                     

 cryst.   s( 1) = (     1          0          0      )
                  (     0          1          0      )
                  (     0          0          1      )

 cart.    s( 1) = (  1.0000000  0.0000000  0.0000000 )
                  (  0.0000000  1.0000000  0.0000000 )
                  (  0.0000000  0.0000000  1.0000000 )


      isym =  2     180 deg rotation - cart. axis [0,0,1]        

 cryst.   s( 2) = (    -1          0          0      )    f =(  0.5000000 )
                  (     0         -1          0      )       (  0.0000000 )
                  (     0          0          1      )       ( -0.5000000 )

 cart.    s( 2) = ( -1.0000000  0.0000000  0.0000000 )    f =(  0.5000000 )
                  (  0.0000000 -1.0000000  0.0000000 )       (  0.0000000 )
                  (  0.0000000  0.0000000  1.0000000 )       ( -0.5000000 )


      isym =  3     180 deg rotation - cart. axis [0,1,0]        

 cryst.   s( 3) = (    -1          0          0      )    f =(  0.0000000 )
                  (     0          1          0      )       ( -0.5000000 )
                  (     0          0         -1      )       (  0.5000000 )

 cart.    s( 3) = ( -1.0000000  0.0000000  0.0000000 )    f =(  0.0000000 )
                  (  0.0000000  1.0000000  0.0000000 )       ( -0.5000000 )
                  (  0.0000000  0.0000000 -1.0000000 )       (  0.5000000 )


      isym =  4     180 deg rotation - cart. axis [1,0,0]        

 cryst.   s( 4) = (     1          0          0      )    f =(  0.5000000 )
                  (     0         -1          0      )       (  0.5000000 )
                  (     0          0         -1      )       (  0.0000000 )

 cart.    s( 4) = (  1.0000000  0.0000000  0.0000000 )    f =(  0.5000000 )
                  (  0.0000000 -1.0000000  0.0000000 )       (  0.5000000 )
                  (  0.0000000  0.0000000 -1.0000000 )       (  0.0000000 )


      isym =  5     120 deg rotation - cart. axis [-1,-1,-1]     

 cryst.   s( 5) = (     0          0          1      )
                  (     1          0          0      )
                  (     0          1          0      )

 cart.    s( 5) = (  0.0000000  1.0000000  0.0000000 )
                  (  0.0000000  0.0000000  1.0000000 )
                  (  1.0000000  0.0000000  0.0000000 )


      isym =  6     120 deg rotation - cart. axis [-1,1,1]       

 cryst.   s( 6) = (     0          0         -1      )    f =(  0.0000000 )
                  (    -1          0          0      )       ( -0.5000000 )
                  (     0          1          0      )       (  0.5000000 )

 cart.    s( 6) = (  0.0000000 -1.0000000  0.0000000 )    f =(  0.0000000 )
                  (  0.0000000  0.0000000  1.0000000 )       ( -0.5000000 )
                  ( -1.0000000  0.0000000  0.0000000 )       (  0.5000000 )


      isym =  7     120 deg rotation - cart. axis [1,1,-1]       

 cryst.   s( 7) = (     0          0         -1      )    f =(  0.5000000 )
                  (     1          0          0      )       (  0.5000000 )
                  (     0         -1          0      )       (  0.0000000 )

 cart.    s( 7) = (  0.0000000  1.0000000  0.0000000 )    f =(  0.5000000 )
                  (  0.0000000  0.0000000 -1.0000000 )       (  0.5000000 )
                  ( -1.0000000  0.0000000  0.0000000 )       (  0.0000000 )


      isym =  8     120 deg rotation - cart. axis [1,-1,1]       

 cryst.   s( 8) = (     0          0          1      )    f =(  0.5000000 )
                  (    -1          0          0      )       (  0.0000000 )
                  (     0         -1          0      )       ( -0.5000000 )

 cart.    s( 8) = (  0.0000000 -1.0000000  0.0000000 )    f =(  0.5000000 )
                  (  0.0000000  0.0000000 -1.0000000 )       (  0.0000000 )
                  (  1.0000000  0.0000000  0.0000000 )       ( -0.5000000 )


      isym =  9     120 deg rotation - cart. axis [1,1,1]        

 cryst.   s( 9) = (     0          1          0      )
                  (     0          0          1      )
                  (     1          0          0      )

 cart.    s( 9) = (  0.0000000  0.0000000  1.0000000 )
                  (  1.0000000  0.0000000  0.0000000 )
                  (  0.0000000  1.0000000  0.0000000 )


      isym = 10     120 deg rotation - cart. axis [-1,1,-1]      

 cryst.   s(10) = (     0         -1          0      )    f =(  0.5000000 )
                  (     0          0         -1      )       (  0.5000000 )
                  (     1          0          0      )       (  0.0000000 )

 cart.    s(10) = (  0.0000000  0.0000000  1.0000000 )    f =(  0.5000000 )
                  ( -1.0000000  0.0000000  0.0000000 )       (  0.5000000 )
                  (  0.0000000 -1.0000000  0.0000000 )       (  0.0000000 )


      isym = 11     120 deg rotation - cart. axis [1,-1,-1]      

 cryst.   s(11) = (     0         -1          0      )    f =(  0.5000000 )
                  (     0          0          1      )       (  0.0000000 )
                  (    -1          0          0      )       ( -0.5000000 )

 cart.    s(11) = (  0.0000000  0.0000000 -1.0000000 )    f =(  0.5000000 )
                  ( -1.0000000  0.0000000  0.0000000 )       (  0.0000000 )
                  (  0.0000000  1.0000000  0.0000000 )       ( -0.5000000 )


      isym = 12     120 deg rotation - cart. axis [-1,-1,1]      

 cryst.   s(12) = (     0          1          0      )    f =(  0.0000000 )
                  (     0          0         -1      )       ( -0.5000000 )
                  (    -1          0          0      )       (  0.5000000 )

 cart.    s(12) = (  0.0000000  0.0000000 -1.0000000 )    f =(  0.0000000 )
                  (  1.0000000  0.0000000  0.0000000 )       ( -0.5000000 )
                  (  0.0000000 -1.0000000  0.0000000 )       (  0.5000000 )


   Cartesian axes

     site n.     atom                  positions (alat units)
         1           Cr  tau(   1) = (   0.8640000   0.3640000   0.1360000  )
         2           Cr  tau(   2) = (   0.3640000   0.1360000   0.8640000  )
         3           Cr  tau(   3) = (   0.1360000   0.8640000   0.3640000  )
         4           Cr  tau(   4) = (   0.6360000   0.6360000   0.6360000  )
         5           Si  tau(   5) = (   0.1540000   0.6540000   0.8460000  )
         6           Si  tau(   6) = (   0.6540000   0.8460000   0.1540000  )
         7           Si  tau(   7) = (   0.8460000   0.1540000   0.6540000  )
         8           Si  tau(   8) = (   0.3460000   0.3460000   0.3460000  )

   Crystallographic axes

     site n.     atom                  positions (cryst. coord.)
         1           Cr  tau(   1) = (  0.8640000  0.3640000  0.1360000  )
         2           Cr  tau(   2) = (  0.3640000  0.1360000  0.8640000  )
         3           Cr  tau(   3) = (  0.1360000  0.8640000  0.3640000  )
         4           Cr  tau(   4) = (  0.6360000  0.6360000  0.6360000  )
         5           Si  tau(   5) = (  0.1540000  0.6540000  0.8460000  )
         6           Si  tau(   6) = (  0.6540000  0.8460000  0.1540000  )
         7           Si  tau(   7) = (  0.8460000  0.1540000  0.6540000  )
         8           Si  tau(   8) = (  0.3460000  0.3460000  0.3460000  )

     number of k points=    76  Methfessel-Paxton smearing, width (Ry)=  0.0200
                       cart. coord. in units 2pi/alat
        k(    1) = (   0.0000000   0.0000000   0.0000000), wk =   0.0010000
        k(    2) = (   0.0000000   0.0000000   0.1000000), wk =   0.0060000
        k(    3) = (   0.0000000   0.0000000   0.2000000), wk =   0.0060000
        k(    4) = (   0.0000000   0.0000000   0.3000000), wk =   0.0060000
        k(    5) = (   0.0000000   0.0000000   0.4000000), wk =   0.0060000
        k(    6) = (   0.0000000   0.0000000  -0.5000000), wk =   0.0030000
        k(    7) = (   0.0000000   0.1000000   0.1000000), wk =   0.0120000
        k(    8) = (   0.0000000   0.1000000   0.2000000), wk =   0.0120000
        k(    9) = (   0.0000000   0.1000000   0.3000000), wk =   0.0120000
        k(   10) = (   0.0000000   0.1000000   0.4000000), wk =   0.0120000
        k(   11) = (   0.0000000   0.1000000  -0.5000000), wk =   0.0060000
        k(   12) = (   0.0000000   0.2000000   0.2000000), wk =   0.0120000
        k(   13) = (   0.0000000   0.2000000   0.3000000), wk =   0.0120000
        k(   14) = (   0.0000000   0.2000000   0.4000000), wk =   0.0120000
        k(   15) = (   0.0000000   0.2000000  -0.5000000), wk =   0.0060000
        k(   16) = (   0.0000000   0.3000000   0.3000000), wk =   0.0120000
        k(   17) = (   0.0000000   0.3000000   0.4000000), wk =   0.0120000
        k(   18) = (   0.0000000   0.3000000  -0.5000000), wk =   0.0060000
        k(   19) = (   0.0000000   0.4000000   0.4000000), wk =   0.0120000
        k(   20) = (   0.0000000   0.4000000  -0.5000000), wk =   0.0060000
        k(   21) = (   0.0000000  -0.5000000  -0.5000000), wk =   0.0030000
        k(   22) = (   0.1000000   0.1000000   0.1000000), wk =   0.0080000
        k(   23) = (   0.1000000   0.1000000   0.2000000), wk =   0.0240000
        k(   24) = (   0.1000000   0.1000000   0.3000000), wk =   0.0240000
        k(   25) = (   0.1000000   0.1000000   0.4000000), wk =   0.0240000
        k(   26) = (   0.1000000   0.1000000  -0.5000000), wk =   0.0120000
        k(   27) = (   0.1000000   0.2000000   0.2000000), wk =   0.0240000
        k(   28) = (   0.1000000   0.2000000   0.3000000), wk =   0.0240000
        k(   29) = (   0.1000000   0.2000000   0.4000000), wk =   0.0240000
        k(   30) = (   0.1000000   0.2000000  -0.5000000), wk =   0.0120000
        k(   31) = (   0.1000000   0.3000000   0.3000000), wk =   0.0240000
        k(   32) = (   0.1000000   0.3000000   0.4000000), wk =   0.0240000
        k(   33) = (   0.1000000   0.3000000  -0.5000000), wk =   0.0120000
        k(   34) = (   0.1000000   0.4000000   0.4000000), wk =   0.0240000
        k(   35) = (   0.1000000   0.4000000  -0.5000000), wk =   0.0120000
        k(   36) = (   0.1000000  -0.5000000  -0.5000000), wk =   0.0060000
        k(   37) = (   0.2000000   0.2000000   0.2000000), wk =   0.0080000
        k(   38) = (   0.2000000   0.2000000   0.3000000), wk =   0.0240000
        k(   39) = (   0.2000000   0.2000000   0.4000000), wk =   0.0240000
        k(   40) = (   0.2000000   0.2000000  -0.5000000), wk =   0.0120000
        k(   41) = (   0.2000000   0.3000000   0.3000000), wk =   0.0240000
        k(   42) = (   0.2000000   0.3000000   0.4000000), wk =   0.0240000
        k(   43) = (   0.2000000   0.3000000  -0.5000000), wk =   0.0120000
        k(   44) = (   0.2000000   0.4000000   0.4000000), wk =   0.0240000
        k(   45) = (   0.2000000   0.4000000  -0.5000000), wk =   0.0120000
        k(   46) = (   0.2000000  -0.5000000  -0.5000000), wk =   0.0060000
        k(   47) = (   0.3000000   0.3000000   0.3000000), wk =   0.0080000
        k(   48) = (   0.3000000   0.3000000   0.4000000), wk =   0.0240000
        k(   49) = (   0.3000000   0.3000000  -0.5000000), wk =   0.0120000
        k(   50) = (   0.3000000   0.4000000   0.4000000), wk =   0.0240000
        k(   51) = (   0.3000000   0.4000000  -0.5000000), wk =   0.0120000
        k(   52) = (   0.3000000  -0.5000000  -0.5000000), wk =   0.0060000
        k(   53) = (   0.4000000   0.4000000   0.4000000), wk =   0.0080000
        k(   54) = (   0.4000000   0.4000000  -0.5000000), wk =   0.0120000
        k(   55) = (   0.4000000  -0.5000000  -0.5000000), wk =   0.0060000
        k(   56) = (  -0.5000000  -0.5000000  -0.5000000), wk =   0.0010000
        k(   57) = (   0.0000000   0.2000000   0.1000000), wk =   0.0120000
        k(   58) = (   0.0000000   0.3000000   0.1000000), wk =   0.0120000
        k(   59) = (   0.0000000   0.4000000   0.1000000), wk =   0.0120000
        k(   60) = (   0.0000000  -0.5000000   0.1000000), wk =   0.0060000
        k(   61) = (   0.0000000   0.3000000   0.2000000), wk =   0.0120000
        k(   62) = (   0.0000000   0.4000000   0.2000000), wk =   0.0120000
        k(   63) = (   0.0000000  -0.5000000   0.2000000), wk =   0.0060000
        k(   64) = (   0.0000000   0.4000000   0.3000000), wk =   0.0120000
        k(   65) = (   0.0000000  -0.5000000   0.3000000), wk =   0.0060000
        k(   66) = (   0.0000000  -0.5000000   0.4000000), wk =   0.0060000
        k(   67) = (  -0.1000000   0.3000000   0.2000000), wk =   0.0240000
        k(   68) = (  -0.1000000   0.4000000   0.2000000), wk =   0.0240000
        k(   69) = (  -0.1000000  -0.5000000   0.2000000), wk =   0.0120000
        k(   70) = (  -0.1000000   0.4000000   0.3000000), wk =   0.0240000
        k(   71) = (  -0.1000000  -0.5000000   0.3000000), wk =   0.0120000
        k(   72) = (  -0.1000000  -0.5000000   0.4000000), wk =   0.0120000
        k(   73) = (  -0.2000000   0.4000000   0.3000000), wk =   0.0240000
        k(   74) = (  -0.2000000  -0.5000000   0.3000000), wk =   0.0120000
        k(   75) = (  -0.2000000  -0.5000000   0.4000000), wk =   0.0120000
        k(   76) = (  -0.3000000  -0.5000000   0.4000000), wk =   0.0120000

                       cryst. coord.
        k(    1) = (   0.0000000   0.0000000   0.0000000), wk =   0.0010000
        k(    2) = (   0.0000000   0.0000000   0.1000000), wk =   0.0060000
        k(    3) = (   0.0000000   0.0000000   0.2000000), wk =   0.0060000
        k(    4) = (   0.0000000   0.0000000   0.3000000), wk =   0.0060000
        k(    5) = (   0.0000000   0.0000000   0.4000000), wk =   0.0060000
        k(    6) = (   0.0000000   0.0000000  -0.5000000), wk =   0.0030000
        k(    7) = (   0.0000000   0.1000000   0.1000000), wk =   0.0120000
        k(    8) = (   0.0000000   0.1000000   0.2000000), wk =   0.0120000
        k(    9) = (   0.0000000   0.1000000   0.3000000), wk =   0.0120000
        k(   10) = (   0.0000000   0.1000000   0.4000000), wk =   0.0120000
        k(   11) = (   0.0000000   0.1000000  -0.5000000), wk =   0.0060000
        k(   12) = (   0.0000000   0.2000000   0.2000000), wk =   0.0120000
        k(   13) = (   0.0000000   0.2000000   0.3000000), wk =   0.0120000
        k(   14) = (   0.0000000   0.2000000   0.4000000), wk =   0.0120000
        k(   15) = (   0.0000000   0.2000000  -0.5000000), wk =   0.0060000
        k(   16) = (   0.0000000   0.3000000   0.3000000), wk =   0.0120000
        k(   17) = (   0.0000000   0.3000000   0.4000000), wk =   0.0120000
        k(   18) = (   0.0000000   0.3000000  -0.5000000), wk =   0.0060000
        k(   19) = (   0.0000000   0.4000000   0.4000000), wk =   0.0120000
        k(   20) = (   0.0000000   0.4000000  -0.5000000), wk =   0.0060000
        k(   21) = (   0.0000000  -0.5000000  -0.5000000), wk =   0.0030000
        k(   22) = (   0.1000000   0.1000000   0.1000000), wk =   0.0080000
        k(   23) = (   0.1000000   0.1000000   0.2000000), wk =   0.0240000
        k(   24) = (   0.1000000   0.1000000   0.3000000), wk =   0.0240000
        k(   25) = (   0.1000000   0.1000000   0.4000000), wk =   0.0240000
        k(   26) = (   0.1000000   0.1000000  -0.5000000), wk =   0.0120000
        k(   27) = (   0.1000000   0.2000000   0.2000000), wk =   0.0240000
        k(   28) = (   0.1000000   0.2000000   0.3000000), wk =   0.0240000
        k(   29) = (   0.1000000   0.2000000   0.4000000), wk =   0.0240000
        k(   30) = (   0.1000000   0.2000000  -0.5000000), wk =   0.0120000
        k(   31) = (   0.1000000   0.3000000   0.3000000), wk =   0.0240000
        k(   32) = (   0.1000000   0.3000000   0.4000000), wk =   0.0240000
        k(   33) = (   0.1000000   0.3000000  -0.5000000), wk =   0.0120000
        k(   34) = (   0.1000000   0.4000000   0.4000000), wk =   0.0240000
        k(   35) = (   0.1000000   0.4000000  -0.5000000), wk =   0.0120000
        k(   36) = (   0.1000000  -0.5000000  -0.5000000), wk =   0.0060000
        k(   37) = (   0.2000000   0.2000000   0.2000000), wk =   0.0080000
        k(   38) = (   0.2000000   0.2000000   0.3000000), wk =   0.0240000
        k(   39) = (   0.2000000   0.2000000   0.4000000), wk =   0.0240000
        k(   40) = (   0.2000000   0.2000000  -0.5000000), wk =   0.0120000
        k(   41) = (   0.2000000   0.3000000   0.3000000), wk =   0.0240000
        k(   42) = (   0.2000000   0.3000000   0.4000000), wk =   0.0240000
        k(   43) = (   0.2000000   0.3000000  -0.5000000), wk =   0.0120000
        k(   44) = (   0.2000000   0.4000000   0.4000000), wk =   0.0240000
        k(   45) = (   0.2000000   0.4000000  -0.5000000), wk =   0.0120000
        k(   46) = (   0.2000000  -0.5000000  -0.5000000), wk =   0.0060000
        k(   47) = (   0.3000000   0.3000000   0.3000000), wk =   0.0080000
        k(   48) = (   0.3000000   0.3000000   0.4000000), wk =   0.0240000
        k(   49) = (   0.3000000   0.3000000  -0.5000000), wk =   0.0120000
        k(   50) = (   0.3000000   0.4000000   0.4000000), wk =   0.0240000
        k(   51) = (   0.3000000   0.4000000  -0.5000000), wk =   0.0120000
        k(   52) = (   0.3000000  -0.5000000  -0.5000000), wk =   0.0060000
        k(   53) = (   0.4000000   0.4000000   0.4000000), wk =   0.0080000
        k(   54) = (   0.4000000   0.4000000  -0.5000000), wk =   0.0120000
        k(   55) = (   0.4000000  -0.5000000  -0.5000000), wk =   0.0060000
        k(   56) = (  -0.5000000  -0.5000000  -0.5000000), wk =   0.0010000
        k(   57) = (   0.0000000   0.2000000   0.1000000), wk =   0.0120000
        k(   58) = (   0.0000000   0.3000000   0.1000000), wk =   0.0120000
        k(   59) = (   0.0000000   0.4000000   0.1000000), wk =   0.0120000
        k(   60) = (   0.0000000  -0.5000000   0.1000000), wk =   0.0060000
        k(   61) = (   0.0000000   0.3000000   0.2000000), wk =   0.0120000
        k(   62) = (   0.0000000   0.4000000   0.2000000), wk =   0.0120000
        k(   63) = (   0.0000000  -0.5000000   0.2000000), wk =   0.0060000
        k(   64) = (   0.0000000   0.4000000   0.3000000), wk =   0.0120000
        k(   65) = (   0.0000000  -0.5000000   0.3000000), wk =   0.0060000
        k(   66) = (   0.0000000  -0.5000000   0.4000000), wk =   0.0060000
        k(   67) = (  -0.1000000   0.3000000   0.2000000), wk =   0.0240000
        k(   68) = (  -0.1000000   0.4000000   0.2000000), wk =   0.0240000
        k(   69) = (  -0.1000000  -0.5000000   0.2000000), wk =   0.0120000
        k(   70) = (  -0.1000000   0.4000000   0.3000000), wk =   0.0240000
        k(   71) = (  -0.1000000  -0.5000000   0.3000000), wk =   0.0120000
        k(   72) = (  -0.1000000  -0.5000000   0.4000000), wk =   0.0120000
        k(   73) = (  -0.2000000   0.4000000   0.3000000), wk =   0.0240000
        k(   74) = (  -0.2000000  -0.5000000   0.3000000), wk =   0.0120000
        k(   75) = (  -0.2000000  -0.5000000   0.4000000), wk =   0.0120000
        k(   76) = (  -0.3000000  -0.5000000   0.4000000), wk =   0.0120000

     Dense  grid:   304867 G-vectors     FFT dimensions: (  90,  90,  90)

     Smooth grid:    77053 G-vectors     FFT dimensions: (  54,  54,  54)

     Dynamical RAM for                 wfc:       1.06 MB

     Dynamical RAM for     wfc (w. buffer):      81.24 MB

     Dynamical RAM for           str. fact:       0.39 MB

     Dynamical RAM for           local pot:       0.00 MB

     Dynamical RAM for          nlocal pot:       1.67 MB

     Dynamical RAM for                qrad:      12.61 MB

     Dynamical RAM for          rho,v,vnew:       5.29 MB

     Dynamical RAM for               rhoin:       1.76 MB

     Dynamical RAM for            rho*nmix:      12.41 MB

     Dynamical RAM for           G-vectors:       0.75 MB

     Dynamical RAM for          h,s,v(r/c):       1.35 MB

     Dynamical RAM for          <psi|beta>:       0.71 MB

     Dynamical RAM for                 psi:       2.11 MB

     Dynamical RAM for                hpsi:       2.11 MB

     Dynamical RAM for                spsi:       2.11 MB

     Dynamical RAM for      wfcinit/wfcrot:       2.35 MB

     Dynamical RAM for           addusdens:     119.02 MB

     Dynamical RAM for          addusforce:     120.34 MB

     Dynamical RAM for         addusstress:     121.74 MB

     Estimated static dynamical RAM per process >     118.67 MB

     Estimated max dynamical RAM per process >     240.41 MB

     Estimated total dynamical RAM >       5.63 GB

     Initial potential from superposition of free atoms

     starting charge   71.99469, renormalised to   72.00000
     Starting wfcs are  112 randomized atomic wfcs
     Checking if some PAW data can be deallocated... 
       PAW data deallocated on   12 nodes for type:  1
       PAW data deallocated on   12 nodes for type:  2

     total cpu time spent up to now is       22.1 secs

     Self-consistent Calculation

     iteration #  1     ecut=    90.00 Ry     beta= 0.70
     Davidson diagonalization with overlap
     ethr =  1.00E-02,  avg # of iterations =  2.0

     Threshold (ethr) on eigenvalues was too large:
     Diagonalizing with lowered threshold

     Davidson diagonalization with overlap
     ethr =  2.09E-04,  avg # of iterations =  4.3

     total cpu time spent up to now is      132.8 secs

     total energy              =   -1180.31005213 Ry
     estimated scf accuracy    <       0.18889588 Ry

     iteration #  2     ecut=    90.00 Ry     beta= 0.70
     Davidson diagonalization with overlap
     ethr =  2.62E-04,  avg # of iterations =  3.2

     total cpu time spent up to now is      189.0 secs

     total energy              =   -1180.31520316 Ry
     estimated scf accuracy    <       0.08033820 Ry

     iteration #  3     ecut=    90.00 Ry     beta= 0.70
     Davidson diagonalization with overlap
     ethr =  1.12E-04,  avg # of iterations =  5.1

     total cpu time spent up to now is      257.4 secs

     total energy              =   -1180.32615556 Ry
     estimated scf accuracy    <       0.16203996 Ry

     iteration #  4     ecut=    90.00 Ry     beta= 0.70
     Davidson diagonalization with overlap
     ethr =  1.12E-04,  avg # of iterations =  4.1

     total cpu time spent up to now is      312.4 secs

     total energy              =   -1180.35000876 Ry
     estimated scf accuracy    <       0.00034835 Ry

     iteration #  5     ecut=    90.00 Ry     beta= 0.70
     Davidson diagonalization with overlap
     ethr =  4.84E-07,  avg # of iterations =  8.3

     total cpu time spent up to now is      396.2 secs

     total energy              =   -1180.35061983 Ry
     estimated scf accuracy    <       0.00029414 Ry

     iteration #  6     ecut=    90.00 Ry     beta= 0.70
     Davidson diagonalization with overlap
     ethr =  4.09E-07,  avg # of iterations =  2.7

     total cpu time spent up to now is      444.2 secs

     total energy              =   -1180.35066783 Ry
     estimated scf accuracy    <       0.00000381 Ry

     iteration #  7     ecut=    90.00 Ry     beta= 0.70
     Davidson diagonalization with overlap
     ethr =  5.30E-09,  avg # of iterations =  6.6

     total cpu time spent up to now is      521.8 secs

     total energy              =   -1180.35067070 Ry
     estimated scf accuracy    <       0.00003341 Ry

     iteration #  8     ecut=    90.00 Ry     beta= 0.70
     Davidson diagonalization with overlap
     ethr =  5.30E-09,  avg # of iterations =  5.0

     total cpu time spent up to now is      593.0 secs

     End of self-consistent calculation

          k = 0.0000 0.0000 0.0000 (  9771 PWs)   bands (ev):

   -56.5148 -56.5148 -56.4801 -56.4801 -56.4801 -56.4801 -56.4801 -56.4801
   -28.5801 -28.5801 -28.5726 -28.5726 -28.5726 -28.5726 -28.4833 -28.4833
   -27.6145 -27.6145 -27.6145 -27.6145 -27.5379 -27.5379 -27.5379 -27.5379
   -27.5330 -27.5330 -27.4506 -27.4506 -27.4504 -27.4504 -27.4504 -27.4504
     2.6984   2.6984   7.4567   7.4567   7.4567   7.4567   7.4659   7.4659
    10.5370  10.5370  10.5449  10.5449  10.5449  10.5449  11.9113  11.9113
    11.9113  11.9113  11.9224  11.9224  12.6024  12.6024  12.7721  12.7721
    12.7721  12.7721  13.1442  13.1442  13.1442  13.1442  13.1453  13.1453
    13.6722  13.6722  13.6722  13.6722  13.6760  13.6760  15.5521  15.5521
    15.5834  15.5834  15.5834  15.5834  15.7668  15.7668  15.7668  15.7668
    16.6655  16.6655  16.6958  16.6958  16.6958  16.6958

     occupation numbers 
     1.0000   1.0000   1.0000   1.0000   1.0000   1.0000   1.0000   1.0000
     1.0000   1.0000   1.0000   1.0000   1.0000   1.0000   1.0000   1.0000
     1.0000   1.0000   1.0000   1.0000   1.0000   1.0000   1.0000   1.0000
     1.0000   1.0000   1.0000   1.0000   1.0000   1.0000   1.0000   1.0000
     1.0000   1.0000   1.0000   1.0000   1.0000   1.0000   1.0000   1.0000
     1.0000   1.0000   1.0000   1.0000   1.0000   1.0000   1.0000   1.0000
     1.0000   1.0000   1.0000   1.0000   1.0000   1.0000   1.0000   1.0000
     1.0000   1.0000   1.0000   1.0000   1.0000   1.0000   1.0000   1.0000
     1.0000   1.0000   1.0000   1.0000   1.0000   1.0000  -0.0040  -0.0040
    -0.0026  -0.0026  -0.0026  -0.0026  -0.0001  -0.0001  -0.0001  -0.0001
    -0.0000  -0.0000  -0.0000  -0.0000  -0.0000  -0.0000

          k = 0.0000 0.0000 0.1000 (  9695 PWs)   bands (ev):

   -56.5141 -56.5141 -56.4832 -56.4832 -56.4799 -56.4799 -56.4778 -56.4778
   -28.5852 -28.5782 -28.5765 -28.5750 -28.5678 -28.5650 -28.4851 -28.4851
   -27.6255 -27.6200 -27.6073 -27.6019 -27.5451 -27.5426 -27.5394 -27.5332
   -27.5319 -27.5234 -27.4568 -27.4548 -27.4532 -27.4491 -27.4484 -27.4452
     2.7679   2.7679   6.9404   6.9442   7.4970   7.4981   7.8788   7.8871
    10.1586  10.1641  10.5886  10.5898  10.9494  10.9523  11.4175  11.4185
    11.7323  11.7356  12.4389  12.4545  12.5668  12.5711  12.7701  12.7777
    12.8726  12.8731  13.1185  13.1201  13.1688  13.1691  13.1961  13.1965
    13.5360  13.5421  13.6617  13.6627  13.8566  13.8572  15.4473  15.4692
    15.4708  15.4759  15.7040  15.7197  15.7390  15.7529  15.7574  15.7704
    16.5146  16.5327  16.6525  16.6555  16.8457  16.8661

     occupation numbers 
     1.0000   1.0000   1.0000   1.0000   1.0000   1.0000   1.0000   1.0000
     1.0000   1.0000   1.0000   1.0000   1.0000   1.0000   1.0000   1.0000
     1.0000   1.0000   1.0000   1.0000   1.0000   1.0000   1.0000   1.0000
     1.0000   1.0000   1.0000   1.0000   1.0000   1.0000   1.0000   1.0000
     1.0000   1.0000   1.0000   1.0000   1.0000   1.0000   1.0000   1.0000
     1.0000   1.0000   1.0000   1.0000   1.0000   1.0000   1.0000   1.0000
     1.0000   1.0000   1.0000   1.0000   1.0000   1.0000   1.0000   1.0000
     1.0000   1.0000   1.0000   1.0000   1.0000   1.0000   1.0000   1.0000
     1.0000   1.0000   1.0000   1.0000   1.0000   1.0000  -0.0140  -0.0112
    -0.0110  -0.0104  -0.0003  -0.0003  -0.0002  -0.0001  -0.0001  -0.0001
    -0.0000  -0.0000  -0.0000  -0.0000  -0.0000  -0.0000

          k = 0.0000 0.0000 0.2000 (  9663 PWs)   bands (ev):

   -56.5122 -56.5122 -56.4871 -56.4871 -56.4793 -56.4793 -56.4764 -56.4764
   -28.5888 -28.5818 -28.5779 -28.5765 -28.5587 -28.5555 -28.4905 -28.4903
   -27.6336 -27.6248 -27.5980 -27.5900 -27.5530 -27.5452 -27.5399 -27.5316
   -27.5280 -27.5122 -27.4636 -27.4608 -27.4575 -27.4493 -27.4478 -27.4419
     2.9742   2.9742   6.3256   6.3276   7.6078   7.6102   8.2280   8.2377
     9.8576   9.8607  10.7051  10.7085  10.9850  10.9906  11.3743  11.3803
    11.3908  11.3910  12.3760  12.3886  12.8259  12.8322  12.8457  12.8702
    13.0741  13.0797  13.1059  13.1089  13.2183  13.2219  13.2387  13.2388
    13.5737  13.5849  13.6072  13.6109  14.0044  14.0052  15.2043  15.2283
    15.4006  15.4050  15.6651  15.6773  15.7447  15.7656  15.8245  15.8492
    16.3558  16.3706  16.5582  16.5675  17.0728  17.0934

     occupation numbers 
     1.0000   1.0000   1.0000   1.0000   1.0000   1.0000   1.0000   1.0000
     1.0000   1.0000   1.0000   1.0000   1.0000   1.0000   1.0000   1.0000
     1.0000   1.0000   1.0000   1.0000   1.0000   1.0000   1.0000   1.0000
     1.0000   1.0000   1.0000   1.0000   1.0000   1.0000   1.0000   1.0000
     1.0000   1.0000   1.0000   1.0000   1.0000   1.0000   1.0000   1.0000
     1.0000   1.0000   1.0000   1.0000   1.0000   1.0000   1.0000   1.0000
     1.0000   1.0000   1.0000   1.0000   1.0000   1.0000   1.0000   1.0000
     1.0000   1.0000   1.0000   1.0000   1.0000   1.0000   1.0000   1.0000
     1.0000   1.0000   1.0000   1.0000   1.0000   1.0000  -0.0144  -0.0257
    -0.0213  -0.0205  -0.0007  -0.0006  -0.0002  -0.0001  -0.0000  -0.0000
    -0.0000  -0.0000  -0.0000  -0.0000  -0.0000  -0.0000

          k = 0.0000 0.0000 0.3000 (  9638 PWs)   bands (ev):

   -56.5093 -56.5093 -56.4915 -56.4915 -56.4784 -56.4784 -56.4758 -56.4758
   -28.5903 -28.5835 -28.5813 -28.5781 -28.5473 -28.5446 -28.4989 -28.4985
   -27.6382 -27.6296 -27.5867 -27.5811 -27.5605 -27.5443 -27.5355 -27.5328
   -27.5272 -27.5005 -27.4743 -27.4631 -27.4627 -27.4509 -27.4474 -27.4408
     3.3113   3.3113   5.6493   5.6503   7.7870   7.7906   8.4734   8.4834
     9.6691   9.6695  10.7381  10.7431  10.7927  10.8040  11.0721  11.0787
    11.7460  11.7476  12.1735  12.1893  12.8834  12.9008  12.9086  12.9164
    13.1319  13.1375  13.1530  13.1590  13.2603  13.2625  13.3810  13.3817
    13.4581  13.4630  13.8466  13.8506  14.0775  14.0795  14.9572  14.9897
    15.3644  15.3699  15.5688  15.5862  15.7408  15.7677  15.8581  15.8818
    16.2266  16.2420  16.4211  16.4342  17.2683  17.2870

     occupation numbers 
     1.0000   1.0000   1.0000   1.0000   1.0000   1.0000   1.0000   1.0000
     1.0000   1.0000   1.0000   1.0000   1.0000   1.0000   1.0000   1.0000
     1.0000   1.0000   1.0000   1.0000   1.0000   1.0000   1.0000   1.0000
     1.0000   1.0000   1.0000   1.0000   1.0000   1.0000   1.0000   1.0000
     1.0000   1.0000   1.0000   1.0000   1.0000   1.0000   1.0000   1.0000
     1.0000   1.0000   1.0000   1.0000   1.0000   1.0000   1.0000   1.0000
     1.0000   1.0000   1.0000   1.0000   1.0000   1.0000   1.0000   1.0000
     1.0000   1.0000   1.0000   1.0000   1.0000   1.0000   1.0000   1.0000
     1.0000   1.0000   1.0000   1.0000   1.0000   1.0000   0.4918   0.3919
    -0.0274  -0.0265  -0.0032  -0.0025  -0.0002  -0.0001  -0.0000  -0.0000
    -0.0000  -0.0000  -0.0000  -0.0000  -0.0000  -0.0000

          k = 0.0000 0.0000 0.4000 (  9654 PWs)   bands (ev):

   -56.5054 -56.5054 -56.4962 -56.4962 -56.4774 -56.4774 -56.4759 -56.4759
   -28.5899 -28.5849 -28.5835 -28.5802 -28.5348 -28.5327 -28.5097 -28.5088
   -27.6395 -27.6342 -27.5777 -27.5714 -27.5670 -27.5449 -27.5403 -27.5298
   -27.5196 -27.4893 -27.4881 -27.4704 -27.4610 -27.4537 -27.4460 -27.4417
     3.7682   3.7683   4.9673   4.9678   8.0219   8.0268   8.4870   8.4954
     9.7175   9.7208  10.4129  10.4147  10.7852  10.7985  11.0146  11.0190
    12.0860  12.0882  12.1326  12.1463  12.7243  12.7396  12.9200  12.9327
    13.0718  13.0780  13.1927  13.1958  13.2345  13.2380  13.2960  13.2994
    13.5919  13.5931  13.9169  13.9212  14.2937  14.3107  14.7675  14.8022
    15.3613  15.3746  15.4758  15.4950  15.7630  15.7929  15.8408  15.8669
    16.1534  16.1690  16.2726  16.2865  17.3791  17.3869

     occupation numbers 
     1.0000   1.0000   1.0000   1.0000   1.0000   1.0000   1.0000   1.0000
     1.0000   1.0000   1.0000   1.0000   1.0000   1.0000   1.0000   1.0000
     1.0000   1.0000   1.0000   1.0000   1.0000   1.0000   1.0000   1.0000
     1.0000   1.0000   1.0000   1.0000   1.0000   1.0000   1.0000   1.0000
     1.0000   1.0000   1.0000   1.0000   1.0000   1.0000   1.0000   1.0000
     1.0000   1.0000   1.0000   1.0000   1.0000   1.0000   1.0000   1.0000
     1.0000   1.0000   1.0000   1.0000   1.0000   1.0000   1.0000   1.0000
     1.0000   1.0000   1.0000   1.0000   1.0000   1.0000   1.0000   1.0000
     1.0000   1.0000   1.0000   1.0000   1.0016   1.0021   0.9554   0.9012
    -0.0279  -0.0257  -0.0104  -0.0084  -0.0001  -0.0001  -0.0000  -0.0000
    -0.0000  -0.0000  -0.0000  -0.0000  -0.0000  -0.0000

          k = 0.0000 0.0000-0.5000 (  9658 PWs)   bands (ev):

   -56.5010 -56.5010 -56.5010 -56.5010 -56.4765 -56.4765 -56.4765 -56.4765
   -28.5880 -28.5880 -28.5823 -28.5823 -28.5220 -28.5220 -28.5205 -28.5205
   -27.6379 -27.6379 -27.5727 -27.5727 -27.5577 -27.5577 -27.5348 -27.5348
   -27.5038 -27.5038 -27.4791 -27.4791 -27.4574 -27.4574 -27.4438 -27.4438
     4.3284   4.3284   4.3286   4.3286   8.2825   8.2825   8.2890   8.2890
    10.0167  10.0167  10.0207  10.0207  10.8980  10.8980  10.9092  10.9092
    12.2473  12.2473  12.2539  12.2539  12.6856  12.6856  12.6980  12.6980
    13.1423  13.1423  13.1427  13.1427  13.2377  13.2377  13.2413  13.2413
    13.7828  13.7828  13.7859  13.7859  14.5653  14.5653  14.5939  14.5939
    15.4020  15.4020  15.4199  15.4199  15.8066  15.8066  15.8363  15.8363
    16.1660  16.1660  16.1798  16.1798  17.5423  17.5467

     occupation numbers 
     1.0000   1.0000   1.0000   1.0000   1.0000   1.0000   1.0000   1.0000
     1.0000   1.0000   1.0000   1.0000   1.0000   1.0000   1.0000   1.0000
     1.0000   1.0000   1.0000   1.0000   1.0000   1.0000   1.0000   1.0000
     1.0000   1.0000   1.0000   1.0000   1.0000   1.0000   1.0000   1.0000
     1.0000   1.0000   1.0000   1.0000   1.0000   1.0000   1.0000   1.0000
     1.0000   1.0000   1.0000   1.0000   1.0000   1.0000   1.0000   1.0000
     1.0000   1.0000   1.0000   1.0000   1.0000   1.0000   1.0000   1.0000
     1.0000   1.0000   1.0000   1.0000   1.0000   1.0000   1.0000   1.0000
     1.0000   1.0000   1.0000   1.0000   1.0306   1.0306   1.0341   1.0341
    -0.0210  -0.0210  -0.0181  -0.0181  -0.0000  -0.0000  -0.0000  -0.0000
    -0.0000  -0.0000  -0.0000  -0.0000  -0.0000  -0.0000

          k = 0.0000 0.1000 0.1000 (  9675 PWs)   bands (ev):

   -56.5135 -56.5135 -56.4844 -56.4844 -56.4801 -56.4801 -56.4770 -56.4770
   -28.5870 -28.5807 -28.5754 -28.5742 -28.5657 -28.5619 -28.4869 -28.4869
   -27.6274 -27.6240 -27.6018 -27.5981 -27.5478 -27.5435 -27.5412 -27.5365
   -27.5265 -27.5184 -27.4597 -27.4592 -27.4543 -27.4494 -27.4463 -27.4433
     2.8370   2.8370   6.8016   6.8068   7.3665   7.3700   8.0831   8.0892
    10.0376  10.0430  10.6308  10.6346  11.0118  11.0162  11.1727  11.1744
    11.8326  11.8339  12.4244  12.4391  12.5992  12.6055  12.8432  12.8516
    12.9294  12.9360  13.1420  13.1444  13.1618  13.1654  13.2349  13.2372
    13.4844  13.4897  13.6683  13.6773  13.9360  13.9399  15.3917  15.4006
    15.4513  15.4552  15.6589  15.6681  15.7388  15.7508  15.7756  15.7919
    16.4352  16.4539  16.6620  16.6676  16.8850  16.9116

     occupation numbers 
     1.0000   1.0000   1.0000   1.0000   1.0000   1.0000   1.0000   1.0000
     1.0000   1.0000   1.0000   1.0000   1.0000   1.0000   1.0000   1.0000
     1.0000   1.0000   1.0000   1.0000   1.0000   1.0000   1.0000   1.0000
     1.0000   1.0000   1.0000   1.0000   1.0000   1.0000   1.0000   1.0000
     1.0000   1.0000   1.0000   1.0000   1.0000   1.0000   1.0000   1.0000
     1.0000   1.0000   1.0000   1.0000   1.0000   1.0000   1.0000   1.0000
     1.0000   1.0000   1.0000   1.0000   1.0000   1.0000   1.0000   1.0000
     1.0000   1.0000   1.0000   1.0000   1.0000   1.0000   1.0000   1.0000
     1.0000   1.0000   1.0000   1.0000   1.0000   1.0000  -0.0228  -0.0213
    -0.0135  -0.0129  -0.0008  -0.0007  -0.0002  -0.0001  -0.0001  -0.0001
    -0.0000  -0.0000  -0.0000  -0.0000  -0.0000  -0.0000

          k = 0.0000 0.1000 0.2000 (  9636 PWs)   bands (ev):

   -56.5117 -56.5117 -56.4875 -56.4875 -56.4797 -56.4797 -56.4761 -56.4761
   -28.5894 -28.5832 -28.5761 -28.5754 -28.5580 -28.5545 -28.4921 -28.4921
   -27.6331 -27.6267 -27.5944 -27.5884 -27.5531 -27.5463 -27.5419 -27.5357
   -27.5231 -27.5086 -27.4681 -27.4638 -27.4573 -27.4512 -27.4446 -27.4401
     3.0424   3.0424   6.3253   6.3284   7.3966   7.3992   8.3523   8.3585
     9.8333   9.8365  10.6448  10.6478  10.7649  10.7688  11.4220  11.4236
    11.6069  11.6116  12.3952  12.4034  12.6321  12.6356  13.0050  13.0160
    13.0987  13.1052  13.1362  13.1376  13.2150  13.2177  13.3015  13.3038
    13.4902  13.4957  13.7061  13.7195  14.0460  14.0525  15.2135  15.2369
    15.3456  15.3591  15.5964  15.6115  15.7123  15.7303  15.8282  15.8518
    16.3029  16.3200  16.5829  16.5939  17.0593  17.0889

     occupation numbers 
     1.0000   1.0000   1.0000   1.0000   1.0000   1.0000   1.0000   1.0000
     1.0000   1.0000   1.0000   1.0000   1.0000   1.0000   1.0000   1.0000
     1.0000   1.0000   1.0000   1.0000   1.0000   1.0000   1.0000   1.0000
     1.0000   1.0000   1.0000   1.0000   1.0000   1.0000   1.0000   1.0000
     1.0000   1.0000   1.0000   1.0000   1.0000   1.0000   1.0000   1.0000
     1.0000   1.0000   1.0000   1.0000   1.0000   1.0000   1.0000   1.0000
     1.0000   1.0000   1.0000   1.0000   1.0000   1.0000   1.0000   1.0000
     1.0000   1.0000   1.0000   1.0000   1.0000   1.0000   1.0000   1.0000
     1.0000   1.0000   1.0000   1.0000   1.0000   1.0000  -0.0193  -0.0286
    -0.0303  -0.0282  -0.0021  -0.0017  -0.0003  -0.0002  -0.0000  -0.0000
    -0.0000  -0.0000  -0.0000  -0.0000  -0.0000  -0.0000

          k = 0.0000 0.1000 0.3000 (  9642 PWs)   bands (ev):

   -56.5087 -56.5087 -56.4916 -56.4916 -56.4789 -56.4789 -56.4758 -56.4758
   -28.5902 -28.5843 -28.5793 -28.5770 -28.5474 -28.5446 -28.5004 -28.5001
   -27.6370 -27.6296 -27.5851 -27.5800 -27.5601 -27.5457 -27.5392 -27.5345
   -27.5236 -27.4978 -27.4789 -27.4664 -27.4613 -27.4542 -27.4432 -27.4386
     3.3777   3.3778   5.6878   5.6893   7.5760   7.5778   8.5076   8.5134
     9.6887   9.6901  10.3939  10.3983  10.9286  10.9301  11.2911  11.3018
    11.7041  11.7072  12.2164  12.2295  12.7190  12.7225  13.0170  13.0273
    13.0332  13.0362  13.2283  13.2343  13.2991  13.3007  13.4135  13.4174
    13.5156  13.5243  13.8862  13.8983  14.1186  14.1242  14.9668  14.9982
    15.3141  15.3269  15.4920  15.5070  15.7016  15.7258  15.8525  15.8782
    16.1923  16.2059  16.4502  16.4637  17.2313  17.2598

     occupation numbers 
     1.0000   1.0000   1.0000   1.0000   1.0000   1.0000   1.0000   1.0000
     1.0000   1.0000   1.0000   1.0000   1.0000   1.0000   1.0000   1.0000
     1.0000   1.0000   1.0000   1.0000   1.0000   1.0000   1.0000   1.0000
     1.0000   1.0000   1.0000   1.0000   1.0000   1.0000   1.0000   1.0000
     1.0000   1.0000   1.0000   1.0000   1.0000   1.0000   1.0000   1.0000
     1.0000   1.0000   1.0000   1.0000   1.0000   1.0000   1.0000   1.0000
     1.0000   1.0000   1.0000   1.0000   1.0000   1.0000   1.0000   1.0000
     1.0000   1.0000   1.0000   1.0000   1.0000   1.0000   1.0000   1.0000
     1.0000   1.0000   1.0000   1.0000   1.0001   1.0001   0.4618   0.3662
    -0.0342  -0.0329  -0.0087  -0.0072  -0.0004  -0.0002  -0.0000  -0.0000
    -0.0000  -0.0000  -0.0000  -0.0000  -0.0000  -0.0000

          k = 0.0000 0.1000 0.4000 (  9650 PWs)   bands (ev):

   -56.5050 -56.5050 -56.4961 -56.4961 -56.4778 -56.4778 -56.4761 -56.4761
   -28.5893 -28.5847 -28.5821 -28.5793 -28.5354 -28.5334 -28.5109 -28.5102
   -27.6379 -27.6332 -27.5775 -27.5705 -27.5666 -27.5474 -27.5403 -27.5291
   -27.5216 -27.4930 -27.4864 -27.4698 -27.4629 -27.4575 -27.4418 -27.4388
     3.8321   3.8323   5.0202   5.0210   7.8361   7.8384   8.4142   8.4187
     9.7545   9.7580  10.2266  10.2305  11.0029  11.0075  11.0662  11.0791
    11.9590  11.9647  12.1921  12.2007  12.6473  12.6522  12.8525  12.8615
    13.0645  13.0692  13.2693  13.2731  13.3077  13.3102  13.3730  13.3748
    13.6273  13.6314  13.9420  13.9473  14.3352  14.3546  14.7768  14.8109
    15.3094  15.3246  15.3986  15.4132  15.7224  15.7492  15.8313  15.8597
    16.1462  16.1551  16.3080  16.3210  17.3507  17.3685

     occupation numbers 
     1.0000   1.0000   1.0000   1.0000   1.0000   1.0000   1.0000   1.0000
     1.0000   1.0000   1.0000   1.0000   1.0000   1.0000   1.0000   1.0000
     1.0000   1.0000   1.0000   1.0000   1.0000   1.0000   1.0000   1.0000
     1.0000   1.0000   1.0000   1.0000   1.0000   1.0000   1.0000   1.0000
     1.0000   1.0000   1.0000   1.0000   1.0000   1.0000   1.0000   1.0000
     1.0000   1.0000   1.0000   1.0000   1.0000   1.0000   1.0000   1.0000
     1.0000   1.0000   1.0000   1.0000   1.0000   1.0000   1.0000   1.0000
     1.0000   1.0000   1.0000   1.0000   1.0000   1.0000   1.0000   1.0000
     1.0000   1.0000   1.0000   1.0000   1.0030   1.0039   0.9425   0.8850
    -0.0346  -0.0331  -0.0216  -0.0192  -0.0002  -0.0001  -0.0000  -0.0000
    -0.0000  -0.0000  -0.0000  -0.0000  -0.0000  -0.0000

          k = 0.0000 0.1000-0.5000 (  9676 PWs)   bands (ev):

   -56.5007 -56.5007 -56.5007 -56.5007 -56.4768 -56.4768 -56.4768 -56.4768
   -28.5871 -28.5871 -28.5814 -28.5814 -28.5233 -28.5233 -28.5213 -28.5213
   -27.6363 -27.6363 -27.5723 -27.5723 -27.5583 -27.5583 -27.5346 -27.5346
   -27.5073 -27.5073 -27.4774 -27.4774 -27.4606 -27.4606 -27.4402 -27.4402
     4.3883   4.3883   4.3887   4.3887   8.1376   8.1376   8.1444   8.1444
     9.9953   9.9953   9.9997   9.9997  10.9953  10.9953  11.0090  11.0090
    12.1786  12.1786  12.1844  12.1844  12.6279  12.6279  12.6441  12.6441
    13.1995  13.1995  13.2032  13.2032  13.3019  13.3019  13.3036  13.3036
    13.8130  13.8130  13.8165  13.8165  14.5873  14.5873  14.6171  14.6171
    15.3367  15.3367  15.3531  15.3531  15.7770  15.7770  15.8068  15.8068
    16.1900  16.1900  16.2016  16.2016  17.5343  17.5377

     occupation numbers 
     1.0000   1.0000   1.0000   1.0000   1.0000   1.0000   1.0000   1.0000
     1.0000   1.0000   1.0000   1.0000   1.0000   1.0000   1.0000   1.0000
     1.0000   1.0000   1.0000   1.0000   1.0000   1.0000   1.0000   1.0000
     1.0000   1.0000   1.0000   1.0000   1.0000   1.0000   1.0000   1.0000
     1.0000   1.0000   1.0000   1.0000   1.0000   1.0000   1.0000   1.0000
     1.0000   1.0000   1.0000   1.0000   1.0000   1.0000   1.0000   1.0000
     1.0000   1.0000   1.0000   1.0000   1.0000   1.0000   1.0000   1.0000
     1.0000   1.0000   1.0000   1.0000   1.0000   1.0000   1.0000   1.0000
     1.0000   1.0000   1.0000   1.0000   1.0334   1.0334   1.0354   1.0354
    -0.0316  -0.0316  -0.0292  -0.0292  -0.0001  -0.0001  -0.0000  -0.0000
    -0.0000  -0.0000  -0.0000  -0.0000  -0.0000  -0.0000

          k = 0.0000 0.2000 0.2000 (  9629 PWs)   bands (ev):

   -56.5099 -56.5099 -56.4891 -56.4891 -56.4801 -56.4801 -56.4758 -56.4758
   -28.5900 -28.5844 -28.5746 -28.5742 -28.5546 -28.5509 -28.4971 -28.4969
   -27.6329 -27.6290 -27.5873 -27.5843 -27.5526 -27.5511 -27.5441 -27.5377
   -27.5192 -27.5014 -27.4758 -27.4696 -27.4620 -27.4498 -27.4416 -27.4372
     3.2448   3.2449   6.2130   6.2169   7.1062   7.1106   8.4946   8.4998
     9.7694   9.7713  10.3190  10.3228  10.8497  10.8517  11.3879  11.3900
    11.7950  11.7964  12.3654  12.3692  12.5707  12.5786  12.9924  12.9998
    13.1300  13.1412  13.1933  13.1967  13.3270  13.3293  13.4094  13.4217
    13.4901  13.4965  13.8251  13.8391  14.1260  14.1334  15.1684  15.1896
    15.2401  15.2614  15.4456  15.4583  15.6672  15.6907  15.8104  15.8364
    16.2126  16.2275  16.5666  16.5775  17.1083  17.1474

     occupation numbers 
     1.0000   1.0000   1.0000   1.0000   1.0000   1.0000   1.0000   1.0000
     1.0000   1.0000   1.0000   1.0000   1.0000   1.0000   1.0000   1.0000
     1.0000   1.0000   1.0000   1.0000   1.0000   1.0000   1.0000   1.0000
     1.0000   1.0000   1.0000   1.0000   1.0000   1.0000   1.0000   1.0000
     1.0000   1.0000   1.0000   1.0000   1.0000   1.0000   1.0000   1.0000
     1.0000   1.0000   1.0000   1.0000   1.0000   1.0000   1.0000   1.0000
     1.0000   1.0000   1.0000   1.0000   1.0000   1.0000   1.0000   1.0000
     1.0000   1.0000   1.0000   1.0000   1.0000   1.0000   1.0000   1.0000
     1.0000   1.0000   1.0000   1.0000   1.0001   1.0001   0.0136  -0.0046
    -0.0295  -0.0338  -0.0143  -0.0125  -0.0007  -0.0004  -0.0000  -0.0000
    -0.0000  -0.0000  -0.0000  -0.0000  -0.0000  -0.0000

          k = 0.0000 0.2000 0.3000 (  9653 PWs)   bands (ev):

   -56.5072 -56.5072 -56.4921 -56.4921 -56.4797 -56.4797 -56.4760 -56.4760
   -28.5895 -28.5843 -28.5763 -28.5748 -28.5470 -28.5442 -28.5048 -28.5046
   -27.6337 -27.6292 -27.5821 -27.5773 -27.5589 -27.5502 -27.5420 -27.5368
   -27.5199 -27.4946 -27.4864 -27.4732 -27.4652 -27.4504 -27.4391 -27.4352
     3.5750   3.5752   5.7759   5.7784   7.1289   7.1325   8.4352   8.4390
     9.7417   9.7450  10.1777  10.1823  10.9540  10.9558  11.4459  11.4493
    11.7626  11.7641  12.2215  12.2265  12.5369  12.5449  12.8826  12.8906
    13.1670  13.1793  13.2267  13.2307  13.4081  13.4086  13.5509  13.5614
    13.5863  13.5978  13.9906  14.0031  14.2289  14.2378  14.9839  15.0111
    15.1738  15.1955  15.3187  15.3286  15.6318  15.6564  15.7850  15.8151
    16.1559  16.1662  16.4876  16.4993  17.1990  17.2382

     occupation numbers 
     1.0000   1.0000   1.0000   1.0000   1.0000   1.0000   1.0000   1.0000
     1.0000   1.0000   1.0000   1.0000   1.0000   1.0000   1.0000   1.0000
     1.0000   1.0000   1.0000   1.0000   1.0000   1.0000   1.0000   1.0000
     1.0000   1.0000   1.0000   1.0000   1.0000   1.0000   1.0000   1.0000
     1.0000   1.0000   1.0000   1.0000   1.0000   1.0000   1.0000   1.0000
     1.0000   1.0000   1.0000   1.0000   1.0000   1.0000   1.0000   1.0000
     1.0000   1.0000   1.0000   1.0000   1.0000   1.0000   1.0000   1.0000
     1.0000   1.0000   1.0000   1.0000   1.0000   1.0000   1.0000   1.0000
     1.0000   1.0000   1.0000   1.0000   1.0005   1.0006   0.4094   0.3282
     0.0085  -0.0088  -0.0338  -0.0327  -0.0012  -0.0008  -0.0001  -0.0000
    -0.0000  -0.0000  -0.0000  -0.0000  -0.0000  -0.0000

          k = 0.0000 0.2000 0.4000 (  9651 PWs)   bands (ev):

   -56.5038 -56.5038 -56.4958 -56.4958 -56.4788 -56.4788 -56.4766 -56.4766
   -28.5875 -28.5834 -28.5792 -28.5768 -28.5369 -28.5350 -28.5145 -28.5140
   -27.6334 -27.6300 -27.5783 -27.5710 -27.5636 -27.5510 -27.5401 -27.5291
   -27.5238 -27.5002 -27.4874 -27.4775 -27.4630 -27.4534 -27.4370 -27.4346
     4.0211   4.0215   5.1709   5.1722   7.3844   7.3869   8.1321   8.1349
     9.8716   9.8751  10.1407  10.1441  11.0538  11.0606  11.3118  11.3240
    11.8755  11.8799  12.0992  12.1052  12.4987  12.5094  12.6810  12.6917
    13.2253  13.2309  13.2774  13.2827  13.4070  13.4093  13.5618  13.5641
    13.7418  13.7459  14.0117  14.0193  14.4425  14.4677  14.7924  14.8239
    15.1677  15.1857  15.2264  15.2314  15.6306  15.6566  15.7351  15.7671
    16.1808  16.1869  16.3889  16.4015  17.2692  17.2941

     occupation numbers 
     1.0000   1.0000   1.0000   1.0000   1.0000   1.0000   1.0000   1.0000
     1.0000   1.0000   1.0000   1.0000   1.0000   1.0000   1.0000   1.0000
     1.0000   1.0000   1.0000   1.0000   1.0000   1.0000   1.0000   1.0000
     1.0000   1.0000   1.0000   1.0000   1.0000   1.0000   1.0000   1.0000
     1.0000   1.0000   1.0000   1.0000   1.0000   1.0000   1.0000   1.0000
     1.0000   1.0000   1.0000   1.0000   1.0000   1.0000   1.0000   1.0000
     1.0000   1.0000   1.0000   1.0000   1.0000   1.0000   1.0000   1.0000
     1.0000   1.0000   1.0000   1.0000   1.0000   1.0000   1.0000   1.0000
     1.0000   1.0000   1.0000   1.0000   1.0115   1.0148   0.9181   0.8589
     0.0143  -0.0016  -0.0250  -0.0268  -0.0012  -0.0008  -0.0002  -0.0001
    -0.0000  -0.0000  -0.0000  -0.0000  -0.0000  -0.0000

          k = 0.0000 0.2000-0.5000 (  9650 PWs)   bands (ev):

   -56.4998 -56.4998 -56.4998 -56.4998 -56.4776 -56.4776 -56.4776 -56.4776
   -28.5847 -28.5847 -28.5792 -28.5792 -28.5265 -28.5265 -28.5237 -28.5237
   -27.6318 -27.6318 -27.5740 -27.5740 -27.5576 -27.5576 -27.5338 -27.5338
   -27.5136 -27.5136 -27.4824 -27.4824 -27.4580 -27.4580 -27.4354 -27.4354
     4.5640   4.5640   4.5648   4.5648   7.7409   7.7409   7.7475   7.7475
    10.0484  10.0484  10.0520  10.0520  11.1492  11.1492  11.1627  11.1627
    12.0404  12.0404  12.0440  12.0440  12.4900  12.4900  12.5048  12.5048
    13.3104  13.3104  13.3134  13.3134  13.4393  13.4393  13.4420  13.4420
    13.9065  13.9065  13.9110  13.9110  14.6377  14.6377  14.6694  14.6694
    15.1790  15.1790  15.1926  15.1926  15.6727  15.6727  15.7024  15.7024
    16.2738  16.2738  16.2845  16.2845  17.4440  17.4483

     occupation numbers 
     1.0000   1.0000   1.0000   1.0000   1.0000   1.0000   1.0000   1.0000
     1.0000   1.0000   1.0000   1.0000   1.0000   1.0000   1.0000   1.0000
     1.0000   1.0000   1.0000   1.0000   1.0000   1.0000   1.0000   1.0000
     1.0000   1.0000   1.0000   1.0000   1.0000   1.0000   1.0000   1.0000
     1.0000   1.0000   1.0000   1.0000   1.0000   1.0000   1.0000   1.0000
     1.0000   1.0000   1.0000   1.0000   1.0000   1.0000   1.0000   1.0000
     1.0000   1.0000   1.0000   1.0000   1.0000   1.0000   1.0000   1.0000
     1.0000   1.0000   1.0000   1.0000   1.0000   1.0000   1.0000   1.0000
     1.0000   1.0000   1.0000   1.0000   1.0348   1.0348   1.0294   1.0294
     0.0038   0.0038  -0.0068  -0.0068  -0.0006  -0.0006  -0.0004  -0.0004
    -0.0000  -0.0000  -0.0000  -0.0000  -0.0000  -0.0000

          k = 0.0000 0.3000 0.3000 (  9641 PWs)   bands (ev):

   -56.5049 -56.5049 -56.4934 -56.4934 -56.4801 -56.4801 -56.4766 -56.4766
   -28.5875 -28.5830 -28.5746 -28.5737 -28.5443 -28.5416 -28.5118 -28.5112
   -27.6297 -27.6276 -27.5808 -27.5755 -27.5587 -27.5513 -27.5405 -27.5380
   -27.5193 -27.4972 -27.4938 -27.4817 -27.4630 -27.4464 -27.4365 -27.4330
     3.8957   3.8960   5.7557   5.7583   6.7775   6.7808   8.1198   8.1241
     9.8826   9.8860  10.2219  10.2261  10.9528  10.9551  11.2879  11.2892
    11.9118  11.9184  12.2054  12.2108  12.3905  12.4011  12.7570  12.7642
    13.1531  13.1619  13.3640  13.3730  13.4954  13.5005  13.6399  13.6463
    13.7468  13.7585  14.0596  14.0726  14.3830  14.4033  14.9282  14.9453
    15.0239  15.0471  15.1480  15.1598  15.5603  15.5850  15.6737  15.7042
    16.1815  16.1901  16.4872  16.4958  17.1819  17.2190

     occupation numbers 
     1.0000   1.0000   1.0000   1.0000   1.0000   1.0000   1.0000   1.0000
     1.0000   1.0000   1.0000   1.0000   1.0000   1.0000   1.0000   1.0000
     1.0000   1.0000   1.0000   1.0000   1.0000   1.0000   1.0000   1.0000
     1.0000   1.0000   1.0000   1.0000   1.0000   1.0000   1.0000   1.0000
     1.0000   1.0000   1.0000   1.0000   1.0000   1.0000   1.0000   1.0000
     1.0000   1.0000   1.0000   1.0000   1.0000   1.0000   1.0000   1.0000
     1.0000   1.0000   1.0000   1.0000   1.0000   1.0000   1.0000   1.0000
     1.0000   1.0000   1.0000   1.0000   1.0000   1.0000   1.0000   1.0000
     1.0000   1.0000   1.0000   1.0000   1.0057   1.0073   0.5816   0.5288
     0.2918   0.2298   0.0363   0.0226  -0.0036  -0.0025  -0.0006  -0.0003
    -0.0000  -0.0000  -0.0000  -0.0000  -0.0000  -0.0000

          k = 0.0000 0.3000 0.4000 (  9635 PWs)   bands (ev):

   -56.5019 -56.5019 -56.4957 -56.4957 -56.4797 -56.4797 -56.4776 -56.4776
   -28.5845 -28.5809 -28.5760 -28.5744 -28.5381 -28.5363 -28.5201 -28.5196
   -27.6265 -27.6250 -27.5825 -27.5771 -27.5570 -27.5496 -27.5384 -27.5310
   -27.5241 -27.5059 -27.4970 -27.4889 -27.4563 -27.4463 -27.4345 -27.4322
     4.3263   4.3269   5.3790   5.3808   6.8556   6.8587   7.6665   7.6698
    10.0825  10.0850  10.2804  10.2829  11.0336  11.0370  11.3611  11.3685
    11.8664  11.8701  11.9501  11.9526  12.3438  12.3533  12.5150  12.5250
    13.2547  13.2633  13.4286  13.4298  13.4877  13.4881  13.7143  13.7184
    13.9458  13.9517  14.1240  14.1329  14.5477  14.5758  14.7623  14.7841
    14.9736  14.9932  15.0386  15.0514  15.5272  15.5498  15.5914  15.6219
    16.2737  16.2822  16.4808  16.4888  17.1367  17.1602

     occupation numbers 
     1.0000   1.0000   1.0000   1.0000   1.0000   1.0000   1.0000   1.0000
     1.0000   1.0000   1.0000   1.0000   1.0000   1.0000   1.0000   1.0000
     1.0000   1.0000   1.0000   1.0000   1.0000   1.0000   1.0000   1.0000
     1.0000   1.0000   1.0000   1.0000   1.0000   1.0000   1.0000   1.0000
     1.0000   1.0000   1.0000   1.0000   1.0000   1.0000   1.0000   1.0000
     1.0000   1.0000   1.0000   1.0000   1.0000   1.0000   1.0000   1.0000
     1.0000   1.0000   1.0000   1.0000   1.0000   1.0000   1.0000   1.0000
     1.0000   1.0000   1.0000   1.0000   1.0000   1.0000   1.0000   1.0000
     1.0000   1.0000   1.0001   1.0001   1.0279   1.0321   0.9621   0.9316
     0.4411   0.3813   0.2519   0.2189  -0.0056  -0.0042  -0.0023  -0.0014
    -0.0000  -0.0000  -0.0000  -0.0000  -0.0000  -0.0000

          k = 0.0000 0.3000-0.5000 (  9642 PWs)   bands (ev):

   -56.4987 -56.4987 -56.4987 -56.4987 -56.4787 -56.4787 -56.4787 -56.4787
   -28.5811 -28.5811 -28.5764 -28.5764 -28.5304 -28.5304 -28.5274 -28.5274
   -27.6245 -27.6245 -27.5812 -27.5812 -27.5523 -27.5523 -27.5325 -27.5325
   -27.5186 -27.5186 -27.4941 -27.4941 -27.4500 -27.4500 -27.4328 -27.4328
     4.8407   4.8407   4.8419   4.8419   7.2104   7.2104   7.2159   7.2159
    10.2420  10.2420  10.2444  10.2444  11.2285  11.2285  11.2381  11.2381
    11.8472  11.8472  11.8507  11.8507  12.3616  12.3616  12.3710  12.3710
    13.3642  13.3642  13.3718  13.3718  13.6062  13.6062  13.6143  13.6143
    14.0917  14.0917  14.0977  14.0977  14.6427  14.6427  14.6679  14.6679
    14.9963  14.9963  15.0081  15.0081  15.5372  15.5372  15.5639  15.5639
    16.3971  16.3971  16.4081  16.4081  17.2634  17.2668

     occupation numbers 
     1.0000   1.0000   1.0000   1.0000   1.0000   1.0000   1.0000   1.0000
     1.0000   1.0000   1.0000   1.0000   1.0000   1.0000   1.0000   1.0000
     1.0000   1.0000   1.0000   1.0000   1.0000   1.0000   1.0000   1.0000
     1.0000   1.0000   1.0000   1.0000   1.0000   1.0000   1.0000   1.0000
     1.0000   1.0000   1.0000   1.0000   1.0000   1.0000   1.0000   1.0000
     1.0000   1.0000   1.0000   1.0000   1.0000   1.0000   1.0000   1.0000
     1.0000   1.0000   1.0000   1.0000   1.0000   1.0000   1.0000   1.0000
     1.0000   1.0000   1.0000   1.0000   1.0000   1.0000   1.0000   1.0000
     1.0000   1.0000   1.0000   1.0000   1.0344   1.0344   1.0298   1.0298
     0.3719   0.3719   0.3369   0.3369  -0.0049  -0.0049  -0.0034  -0.0034
    -0.0000  -0.0000  -0.0000  -0.0000  -0.0000  -0.0000

          k = 0.0000 0.4000 0.4000 (  9636 PWs)   bands (ev):

   -56.4998 -56.4998 -56.4963 -56.4963 -56.4801 -56.4801 -56.4787 -56.4787
   -28.5806 -28.5779 -28.5744 -28.5736 -28.5371 -28.5357 -28.5267 -28.5258
   -27.6190 -27.6189 -27.5889 -27.5858 -27.5494 -27.5454 -27.5348 -27.5306
   -27.5261 -27.5096 -27.5079 -27.4993 -27.4483 -27.4411 -27.4344 -27.4318
     4.7275   4.7281   5.4685   5.4698   6.5215   6.5232   7.1466   7.1492
    10.3761  10.3765  10.5506  10.5516  10.9051  10.9055  11.2351  11.2385
    11.6920  11.6928  11.9449  11.9502  12.2652  12.2658  12.3942  12.4006
    13.2716  13.2784  13.3827  13.3834  13.7485  13.7503  13.8780  13.8829
    14.1464  14.1551  14.2000  14.2058  14.5514  14.5599  14.6743  14.6925
    14.8203  14.8365  14.9034  14.9277  15.4560  15.4719  15.4773  15.5006
    16.3838  16.3954  16.5293  16.5345  17.0568  17.0745

     occupation numbers 
     1.0000   1.0000   1.0000   1.0000   1.0000   1.0000   1.0000   1.0000
     1.0000   1.0000   1.0000   1.0000   1.0000   1.0000   1.0000   1.0000
     1.0000   1.0000   1.0000   1.0000   1.0000   1.0000   1.0000   1.0000
     1.0000   1.0000   1.0000   1.0000   1.0000   1.0000   1.0000   1.0000
     1.0000   1.0000   1.0000   1.0000   1.0000   1.0000   1.0000   1.0000
     1.0000   1.0000   1.0000   1.0000   1.0000   1.0000   1.0000   1.0000
     1.0000   1.0000   1.0000   1.0000   1.0000   1.0000   1.0000   1.0000
     1.0000   1.0000   1.0000   1.0000   1.0000   1.0000   1.0000   1.0000
     1.0001   1.0001   1.0003   1.0003   1.0285   1.0298   1.0280   1.0208
     0.8665   0.8315   0.6562   0.5832  -0.0128  -0.0109  -0.0102  -0.0078
    -0.0000  -0.0000  -0.0000  -0.0000  -0.0000  -0.0000

          k = 0.0000 0.4000-0.5000 (  9646 PWs)   bands (ev):

   -56.4977 -56.4977 -56.4977 -56.4977 -56.4797 -56.4797 -56.4797 -56.4797
   -28.5772 -28.5772 -28.5743 -28.5743 -28.5335 -28.5335 -28.5313 -28.5313
   -27.6149 -27.6149 -27.5920 -27.5920 -27.5442 -27.5442 -27.5322 -27.5322
   -27.5204 -27.5204 -27.5064 -27.5064 -27.4422 -27.4422 -27.4332 -27.4332
     5.1719   5.1719   5.1733   5.1733   6.6923   6.6923   6.6959   6.6959
    10.5221  10.5221  10.5231  10.5231  11.2416  11.2416  11.2501  11.2501
    11.5670  11.5670  11.5761  11.5761  12.2997  12.2997  12.3035  12.3035
    13.3642  13.3642  13.3689  13.3689  13.8280  13.8280  13.8371  13.8371
    14.3264  14.3264  14.3298  14.3298  14.4977  14.4977  14.5059  14.5059
    14.8518  14.8518  14.8716  14.8716  15.4418  15.4418  15.4580  15.4580
    16.5208  16.5209  16.5301  16.5301  17.0719  17.0731

     occupation numbers 
     1.0000   1.0000   1.0000   1.0000   1.0000   1.0000   1.0000   1.0000
     1.0000   1.0000   1.0000   1.0000   1.0000   1.0000   1.0000   1.0000
     1.0000   1.0000   1.0000   1.0000   1.0000   1.0000   1.0000   1.0000
     1.0000   1.0000   1.0000   1.0000   1.0000   1.0000   1.0000   1.0000
     1.0000   1.0000   1.0000   1.0000   1.0000   1.0000   1.0000   1.0000
     1.0000   1.0000   1.0000   1.0000   1.0000   1.0000   1.0000   1.0000
     1.0000   1.0000   1.0000   1.0000   1.0000   1.0000   1.0000   1.0000
     1.0000   1.0000   1.0000   1.0000   1.0000   1.0000   1.0000   1.0000
     1.0026   1.0026   1.0027   1.0027   1.0195   1.0195   1.0208   1.0208
     0.7957   0.7957   0.7452   0.7452  -0.0148  -0.0148  -0.0126  -0.0126
    -0.0000  -0.0000  -0.0000  -0.0000  -0.0000  -0.0000

          k = 0.0000-0.5000-0.5000 (  9580 PWs)   bands (ev):

   -56.4973 -56.4973 -56.4973 -56.4973 -56.4801 -56.4801 -56.4801 -56.4801
   -28.5745 -28.5745 -28.5745 -28.5745 -28.5338 -28.5338 -28.5338 -28.5338
   -27.6037 -27.6037 -27.6037 -27.6037 -27.5364 -27.5364 -27.5364 -27.5364
   -27.5161 -27.5161 -27.5161 -27.5161 -27.4364 -27.4364 -27.4364 -27.4364
     5.3712   5.3712   5.3712   5.3712   6.4276   6.4276   6.4276   6.4276
    10.7057  10.7057  10.7057  10.7057  11.2426  11.2426  11.2426  11.2426
    11.3851  11.3851  11.3851  11.3851  12.2843  12.2843  12.2843  12.2843
    13.3622  13.3622  13.3622  13.3622  14.0071  14.0071  14.0071  14.0071
    14.2941  14.2941  14.2941  14.2941  14.5252  14.5252  14.5252  14.5252
    14.7576  14.7576  14.7576  14.7576  15.4175  15.4175  15.4175  15.4175
    16.5874  16.5874  16.5874  16.5874  16.9846  16.9846

     occupation numbers 
     1.0000   1.0000   1.0000   1.0000   1.0000   1.0000   1.0000   1.0000
     1.0000   1.0000   1.0000   1.0000   1.0000   1.0000   1.0000   1.0000
     1.0000   1.0000   1.0000   1.0000   1.0000   1.0000   1.0000   1.0000
     1.0000   1.0000   1.0000   1.0000   1.0000   1.0000   1.0000   1.0000
     1.0000   1.0000   1.0000   1.0000   1.0000   1.0000   1.0000   1.0000
     1.0000   1.0000   1.0000   1.0000   1.0000   1.0000   1.0000   1.0000
     1.0000   1.0000   1.0000   1.0000   1.0000   1.0000   1.0000   1.0000
     1.0000   1.0000   1.0000   1.0000   1.0000   1.0000   1.0000   1.0000
     1.0016   1.0016   1.0016   1.0016   1.0241   1.0241   1.0241   1.0241
     0.9679   0.9679   0.9679   0.9679  -0.0185  -0.0185  -0.0185  -0.0185
    -0.0000  -0.0000  -0.0000  -0.0000  -0.0000  -0.0000

          k = 0.1000 0.1000 0.1000 (  9669 PWs)   bands (ev):

   -56.5129 -56.5129 -56.4853 -56.4853 -56.4803 -56.4803 -56.4765 -56.4765
   -28.5882 -28.5821 -28.5745 -28.5734 -28.5640 -28.5599 -28.4887 -28.4886
   -27.6280 -27.6268 -27.5984 -27.5947 -27.5495 -27.5436 -27.5421 -27.5396
   -27.5231 -27.5144 -27.4650 -27.4598 -27.4539 -27.4523 -27.4440 -27.4419
     2.9058   2.9058   6.7161   6.7227   7.2683   7.2745   8.1855   8.1905
     9.9892   9.9947  10.6193  10.6200  10.8704  10.8705  11.1921  11.1975
    11.9272  11.9283  12.3619  12.3753  12.6861  12.6874  12.8055  12.8138
    13.0089  13.0096  13.1678  13.1682  13.2147  13.2197  13.2414  13.2446
    13.4582  13.4619  13.6801  13.6838  13.9973  14.0024  15.3614  15.3655
    15.4277  15.4290  15.6225  15.6284  15.6895  15.7023  15.8024  15.8114
    16.3814  16.4012  16.6655  16.6716  16.9083  16.9397

     occupation numbers 
     1.0000   1.0000   1.0000   1.0000   1.0000   1.0000   1.0000   1.0000
     1.0000   1.0000   1.0000   1.0000   1.0000   1.0000   1.0000   1.0000
     1.0000   1.0000   1.0000   1.0000   1.0000   1.0000   1.0000   1.0000
     1.0000   1.0000   1.0000   1.0000   1.0000   1.0000   1.0000   1.0000
     1.0000   1.0000   1.0000   1.0000   1.0000   1.0000   1.0000   1.0000
     1.0000   1.0000   1.0000   1.0000   1.0000   1.0000   1.0000   1.0000
     1.0000   1.0000   1.0000   1.0000   1.0000   1.0000   1.0000   1.0000
     1.0000   1.0000   1.0000   1.0000   1.0000   1.0000   1.0000   1.0000
     1.0000   1.0000   1.0000   1.0000   1.0000   1.0000  -0.0279  -0.0272
    -0.0169  -0.0167  -0.0014  -0.0013  -0.0005  -0.0004  -0.0000  -0.0000
    -0.0000  -0.0000  -0.0000  -0.0000  -0.0000  -0.0000

          k = 0.1000 0.1000 0.2000 (  9653 PWs)   bands (ev):

   -56.5111 -56.5111 -56.4879 -56.4879 -56.4801 -56.4801 -56.4759 -56.4759
   -28.5897 -28.5839 -28.5748 -28.5744 -28.5575 -28.5538 -28.4939 -28.4937
   -27.6327 -27.6278 -27.5924 -27.5862 -27.5530 -27.5470 -27.5433 -27.5392
   -27.5199 -27.5058 -27.4729 -27.4637 -27.4576 -27.4539 -27.4418 -27.4392
     3.1102   3.1103   6.3279   6.3318   7.2717   7.2761   8.3625   8.3675
     9.8303   9.8335  10.5500  10.5523  10.6975  10.7005  11.3544  11.3593
    11.8165  11.8211  12.3554  12.3582  12.7041  12.7078  12.9589  12.9600
    13.0704  13.0782  13.1349  13.1382  13.2698  13.2743  13.3462  13.3587
    13.5136  13.5286  13.7248  13.7340  14.0858  14.0930  15.2036  15.2269
    15.3344  15.3490  15.5481  15.5615  15.6494  15.6655  15.8258  15.8432
    16.2724  16.2905  16.5958  16.6076  17.0408  17.0740

     occupation numbers 
     1.0000   1.0000   1.0000   1.0000   1.0000   1.0000   1.0000   1.0000
     1.0000   1.0000   1.0000   1.0000   1.0000   1.0000   1.0000   1.0000
     1.0000   1.0000   1.0000   1.0000   1.0000   1.0000   1.0000   1.0000
     1.0000   1.0000   1.0000   1.0000   1.0000   1.0000   1.0000   1.0000
     1.0000   1.0000   1.0000   1.0000   1.0000   1.0000   1.0000   1.0000
     1.0000   1.0000   1.0000   1.0000   1.0000   1.0000   1.0000   1.0000
     1.0000   1.0000   1.0000   1.0000   1.0000   1.0000   1.0000   1.0000
     1.0000   1.0000   1.0000   1.0000   1.0000   1.0000   1.0000   1.0000
     1.0000   1.0000   1.0000   1.0000   1.0000   1.0000  -0.0139  -0.0252
    -0.0319  -0.0298  -0.0043  -0.0035  -0.0009  -0.0007  -0.0000  -0.0000
    -0.0000  -0.0000  -0.0000  -0.0000  -0.0000  -0.0000

          k = 0.1000 0.1000 0.3000 (  9634 PWs)   bands (ev):

   -56.5082 -56.5082 -56.4916 -56.4916 -56.4793 -56.4793 -56.4758 -56.4758
   -28.5900 -28.5845 -28.5778 -28.5759 -28.5476 -28.5447 -28.5020 -28.5015
   -27.6358 -27.6294 -27.5842 -27.5785 -27.5593 -27.5467 -27.5417 -27.5372
   -27.5206 -27.4968 -27.4816 -27.4669 -27.4619 -27.4565 -27.4403 -27.4375
     3.4439   3.4440   5.7259   5.7276   7.4468   7.4491   8.4625   8.4680
     9.6440   9.6451  10.3738  10.3783  10.8191  10.8228  11.3609  11.3654
    11.7650  11.7660  12.2468  12.2547  12.7656  12.7689  13.0175  13.0258
    13.0598  13.0664  13.1627  13.1680  13.3278  13.3314  13.3871  13.3936
    13.5971  13.6000  13.9093  13.9186  14.1568  14.1617  14.9664  14.9966
    15.2984  15.3126  15.4402  15.4552  15.6408  15.6617  15.8299  15.8517
    16.1784  16.1926  16.4654  16.4803  17.1981  17.2273

     occupation numbers 
     1.0000   1.0000   1.0000   1.0000   1.0000   1.0000   1.0000   1.0000
     1.0000   1.0000   1.0000   1.0000   1.0000   1.0000   1.0000   1.0000
     1.0000   1.0000   1.0000   1.0000   1.0000   1.0000   1.0000   1.0000
     1.0000   1.0000   1.0000   1.0000   1.0000   1.0000   1.0000   1.0000
     1.0000   1.0000   1.0000   1.0000   1.0000   1.0000   1.0000   1.0000
     1.0000   1.0000   1.0000   1.0000   1.0000   1.0000   1.0000   1.0000
     1.0000   1.0000   1.0000   1.0000   1.0000   1.0000   1.0000   1.0000
     1.0000   1.0000   1.0000   1.0000   1.0000   1.0000   1.0000   1.0000
     1.0000   1.0000   1.0000   1.0000   1.0001   1.0002   0.4633   0.3710
    -0.0352  -0.0343  -0.0150  -0.0129  -0.0010  -0.0007  -0.0000  -0.0000
    -0.0000  -0.0000  -0.0000  -0.0000  -0.0000  -0.0000

          k = 0.1000 0.1000 0.4000 (  9660 PWs)   bands (ev):

   -56.5046 -56.5046 -56.4959 -56.4959 -56.4782 -56.4782 -56.4763 -56.4763
   -28.5887 -28.5844 -28.5809 -28.5783 -28.5361 -28.5340 -28.5123 -28.5114
   -27.6364 -27.6321 -27.5767 -27.5705 -27.5657 -27.5496 -27.5406 -27.5297
   -27.5220 -27.4980 -27.4827 -27.4695 -27.4642 -27.4600 -27.4391 -27.4372
     3.8956   3.8958   5.0726   5.0733   7.7151   7.7174   8.3338   8.3387
     9.6759   9.6773  10.1904  10.1942  10.9269  10.9309  11.2408  11.2471
    11.8799  11.8843  12.2198  12.2236  12.7277  12.7309  12.9306  12.9382
    13.0632  13.0701  13.2323  13.2381  13.3085  13.3103  13.3804  13.3864
    13.6679  13.6712  13.9460  13.9518  14.3704  14.3916  14.7821  14.8160
    15.2821  15.2984  15.3495  15.3651  15.6680  15.6907  15.7930  15.8173
    16.1493  16.1588  16.3234  16.3373  17.3631  17.3810

     occupation numbers 
     1.0000   1.0000   1.0000   1.0000   1.0000   1.0000   1.0000   1.0000
     1.0000   1.0000   1.0000   1.0000   1.0000   1.0000   1.0000   1.0000
     1.0000   1.0000   1.0000   1.0000   1.0000   1.0000   1.0000   1.0000
     1.0000   1.0000   1.0000   1.0000   1.0000   1.0000   1.0000   1.0000
     1.0000   1.0000   1.0000   1.0000   1.0000   1.0000   1.0000   1.0000
     1.0000   1.0000   1.0000   1.0000   1.0000   1.0000   1.0000   1.0000
     1.0000   1.0000   1.0000   1.0000   1.0000   1.0000   1.0000   1.0000
     1.0000   1.0000   1.0000   1.0000   1.0000   1.0000   1.0000   1.0000
     1.0000   1.0000   1.0000   1.0000   1.0048   1.0064   0.9346   0.8751
    -0.0354  -0.0352  -0.0298  -0.0273  -0.0007  -0.0004  -0.0001  -0.0000
    -0.0000  -0.0000  -0.0000  -0.0000  -0.0000  -0.0000

          k = 0.1000 0.1000-0.5000 (  9662 PWs)   bands (ev):

   -56.5004 -56.5004 -56.5004 -56.5004 -56.4771 -56.4771 -56.4771 -56.4771
   -28.5862 -28.5862 -28.5806 -28.5806 -28.5245 -28.5245 -28.5220 -28.5220
   -27.6349 -27.6349 -27.5715 -27.5715 -27.5594 -27.5594 -27.5343 -27.5343
   -27.5105 -27.5105 -27.4753 -27.4753 -27.4629 -27.4629 -27.4380 -27.4380
     4.4476   4.4476   4.4481   4.4481   8.0328   8.0328   8.0391   8.0391
     9.9190   9.9190   9.9217   9.9217  11.0689  11.0689  11.0795  11.0795
    12.1015  12.1015  12.1058  12.1058  12.7604  12.7604  12.7736  12.7736
    13.1698  13.1698  13.1766  13.1766  13.3264  13.3264  13.3291  13.3291
    13.8213  13.8213  13.8263  13.8263  14.6059  14.6059  14.6368  14.6368
    15.2957  15.2957  15.3144  15.3144  15.7275  15.7275  15.7552  15.7552
    16.2038  16.2038  16.2147  16.2147  17.6023  17.6048

     occupation numbers 
     1.0000   1.0000   1.0000   1.0000   1.0000   1.0000   1.0000   1.0000
     1.0000   1.0000   1.0000   1.0000   1.0000   1.0000   1.0000   1.0000
     1.0000   1.0000   1.0000   1.0000   1.0000   1.0000   1.0000   1.0000
     1.0000   1.0000   1.0000   1.0000   1.0000   1.0000   1.0000   1.0000
     1.0000   1.0000   1.0000   1.0000   1.0000   1.0000   1.0000   1.0000
     1.0000   1.0000   1.0000   1.0000   1.0000   1.0000   1.0000   1.0000
     1.0000   1.0000   1.0000   1.0000   1.0000   1.0000   1.0000   1.0000
     1.0000   1.0000   1.0000   1.0000   1.0000   1.0000   1.0000   1.0000
     1.0000   1.0000   1.0000   1.0000   1.0350   1.0350   1.0349   1.0349
    -0.0353  -0.0353  -0.0342  -0.0342  -0.0002  -0.0002  -0.0001  -0.0001
    -0.0000  -0.0000  -0.0000  -0.0000  -0.0000  -0.0000

          k = 0.1000 0.2000 0.2000 (  9644 PWs)   bands (ev):

   -56.5094 -56.5094 -56.4893 -56.4893 -56.4805 -56.4805 -56.4758 -56.4758
   -28.5899 -28.5845 -28.5735 -28.5732 -28.5545 -28.5507 -28.4988 -28.4984
   -27.6323 -27.6290 -27.5879 -27.5807 -27.5525 -27.5506 -27.5454 -27.5415
   -27.5163 -27.5003 -27.4798 -27.4670 -27.4631 -27.4530 -27.4391 -27.4368
     3.3117   3.3117   6.2294   6.2343   7.0568   7.0632   8.3959   8.3995
     9.6894   9.6918  10.4528  10.4555  10.6343  10.6370  11.4238  11.4289
    11.8988  11.9022  12.3331  12.3374  12.6655  12.6721  13.0041  13.0064
    13.0647  13.0721  13.1671  13.1718  13.2569  13.2621  13.4826  13.4935
    13.6003  13.6094  13.8301  13.8392  14.1574  14.1648  15.1593  15.1770
    15.2427  15.2613  15.4260  15.4379  15.5799  15.5954  15.7961  15.8147
    16.2057  16.2214  16.5739  16.5862  17.0892  17.1294

     occupation numbers 
     1.0000   1.0000   1.0000   1.0000   1.0000   1.0000   1.0000   1.0000
     1.0000   1.0000   1.0000   1.0000   1.0000   1.0000   1.0000   1.0000
     1.0000   1.0000   1.0000   1.0000   1.0000   1.0000   1.0000   1.0000
     1.0000   1.0000   1.0000   1.0000   1.0000   1.0000   1.0000   1.0000
     1.0000   1.0000   1.0000   1.0000   1.0000   1.0000   1.0000   1.0000
     1.0000   1.0000   1.0000   1.0000   1.0000   1.0000   1.0000   1.0000
     1.0000   1.0000   1.0000   1.0000   1.0000   1.0000   1.0000   1.0000
     1.0000   1.0000   1.0000   1.0000   1.0000   1.0000   1.0000   1.0000
     1.0000   1.0000   1.0000   1.0000   1.0001   1.0002   0.0232   0.0056
    -0.0302  -0.0338  -0.0172  -0.0154  -0.0027  -0.0022  -0.0001  -0.0000
    -0.0000  -0.0000  -0.0000  -0.0000  -0.0000  -0.0000

          k = 0.1000 0.2000 0.3000 (  9631 PWs)   bands (ev):

   -56.5067 -56.5067 -56.4920 -56.4920 -56.4801 -56.4801 -56.4761 -56.4761
   -28.5890 -28.5841 -28.5751 -28.5738 -28.5474 -28.5445 -28.5064 -28.5059
   -27.6327 -27.6285 -27.5825 -27.5751 -27.5586 -27.5502 -27.5435 -27.5401
   -27.5170 -27.4986 -27.4840 -27.4705 -27.4675 -27.4531 -27.4373 -27.4348
     3.6401   3.6403   5.8137   5.8165   7.0975   7.1020   8.3492   8.3525
     9.5025   9.5048  10.3404  10.3432  10.7928  10.7975  11.5155  11.5205
    11.8101  11.8161  12.2472  12.2499  12.5913  12.5996  12.9293  12.9367
    13.1511  13.1617  13.2112  13.2158  13.3137  13.3199  13.5203  13.5249
    13.7299  13.7350  13.9823  13.9914  14.2715  14.2811  14.9772  15.0022
    15.1800  15.1986  15.3028  15.3133  15.5608  15.5772  15.7535  15.7773
    16.1617  16.1728  16.4929  16.5060  17.1717  17.2092

     occupation numbers 
     1.0000   1.0000   1.0000   1.0000   1.0000   1.0000   1.0000   1.0000
     1.0000   1.0000   1.0000   1.0000   1.0000   1.0000   1.0000   1.0000
     1.0000   1.0000   1.0000   1.0000   1.0000   1.0000   1.0000   1.0000
     1.0000   1.0000   1.0000   1.0000   1.0000   1.0000   1.0000   1.0000
     1.0000   1.0000   1.0000   1.0000   1.0000   1.0000   1.0000   1.0000
     1.0000   1.0000   1.0000   1.0000   1.0000   1.0000   1.0000   1.0000
     1.0000   1.0000   1.0000   1.0000   1.0000   1.0000   1.0000   1.0000
     1.0000   1.0000   1.0000   1.0000   1.0000   1.0000   1.0000   1.0000
     1.0000   1.0000   1.0000   1.0000   1.0011   1.0013   0.4300   0.3543
     0.0030  -0.0108  -0.0350  -0.0343  -0.0036  -0.0028  -0.0001  -0.0001
    -0.0000  -0.0000  -0.0000  -0.0000  -0.0000  -0.0000

          k = 0.1000 0.2000 0.4000 (  9656 PWs)   bands (ev):

   -56.5033 -56.5033 -56.4956 -56.4956 -56.4792 -56.4792 -56.4769 -56.4769
   -28.5868 -28.5828 -28.5781 -28.5759 -28.5377 -28.5357 -28.5159 -28.5152
   -27.6321 -27.6288 -27.5778 -27.5700 -27.5644 -27.5527 -27.5401 -27.5316
   -27.5217 -27.5053 -27.4828 -27.4753 -27.4650 -27.4556 -27.4357 -27.4341
     4.0835   4.0839   5.2219   5.2232   7.3544   7.3572   8.0847   8.0874
     9.5717   9.5732  10.1179  10.1202  11.0717  11.0769  11.5565  11.5627
    11.7333  11.7356  12.1000  12.1027  12.5623  12.5715  12.7864  12.7944
    13.1901  13.1980  13.2819  13.2868  13.3636  13.3680  13.5210  13.5271
    13.7986  13.8048  14.0211  14.0297  14.4745  14.5014  14.8016  14.8331
    15.1555  15.1700  15.2103  15.2167  15.5829  15.6022  15.6984  15.7245
    16.1854  16.1920  16.3894  16.4021  17.2759  17.2991

     occupation numbers 
     1.0000   1.0000   1.0000   1.0000   1.0000   1.0000   1.0000   1.0000
     1.0000   1.0000   1.0000   1.0000   1.0000   1.0000   1.0000   1.0000
     1.0000   1.0000   1.0000   1.0000   1.0000   1.0000   1.0000   1.0000
     1.0000   1.0000   1.0000   1.0000   1.0000   1.0000   1.0000   1.0000
     1.0000   1.0000   1.0000   1.0000   1.0000   1.0000   1.0000   1.0000
     1.0000   1.0000   1.0000   1.0000   1.0000   1.0000   1.0000   1.0000
     1.0000   1.0000   1.0000   1.0000   1.0000   1.0000   1.0000   1.0000
     1.0000   1.0000   1.0000   1.0000   1.0000   1.0000   1.0000   1.0000
[...]
    11.8851  11.8851  11.8890  11.8890  12.3762  12.3762  12.3837  12.3837
    13.2711  13.2711  13.2760  13.2760  13.8518  13.8518  13.8648  13.8648
    14.2118  14.2118  14.2189  14.2189  14.6454  14.6454  14.6729  14.6729
    14.8181  14.8181  14.8578  14.8578  15.4152  15.4152  15.4297  15.4297
    16.4547  16.4547  16.4659  16.4660  17.1063  17.1087

     occupation numbers 
     1.0000   1.0000   1.0000   1.0000   1.0000   1.0000   1.0000   1.0000
     1.0000   1.0000   1.0000   1.0000   1.0000   1.0000   1.0000   1.0000
     1.0000   1.0000   1.0000   1.0000   1.0000   1.0000   1.0000   1.0000
     1.0000   1.0000   1.0000   1.0000   1.0000   1.0000   1.0000   1.0000
     1.0000   1.0000   1.0000   1.0000   1.0000   1.0000   1.0000   1.0000
     1.0000   1.0000   1.0000   1.0000   1.0000   1.0000   1.0000   1.0000
     1.0000   1.0000   1.0000   1.0000   1.0000   1.0000   1.0000   1.0000
     1.0000   1.0000   1.0000   1.0000   1.0000   1.0000   1.0000   1.0000
     1.0004   1.0004   1.0004   1.0004   1.0341   1.0341   1.0284   1.0284
     0.8709   0.8709   0.7808   0.7808  -0.0189  -0.0189  -0.0166  -0.0166
    -0.0000  -0.0000  -0.0000  -0.0000  -0.0000  -0.0000

          k =-0.2000 0.4000 0.3000 (  9651 PWs)   bands (ev):

   -56.5003 -56.5003 -56.4947 -56.4947 -56.4812 -56.4812 -56.4788 -56.4788
   -28.5815 -28.5782 -28.5724 -28.5711 -28.5414 -28.5393 -28.5251 -28.5238
   -27.6224 -27.6199 -27.5797 -27.5743 -27.5640 -27.5587 -27.5406 -27.5307
   -27.5245 -27.5118 -27.4845 -27.4773 -27.4615 -27.4537 -27.4349 -27.4323
     4.5647   4.5651   5.5667   5.5688   6.8869   6.8912   7.6189   7.6222
     9.1376   9.1411   9.7834   9.7868  11.0154  11.0179  11.5300  11.5318
    11.7529  11.7560  12.2101  12.2133  12.6687  12.6741  12.8324  12.8391
    13.1089  13.1153  13.1939  13.2063  13.4206  13.4271  13.6488  13.6603
    13.9731  13.9837  14.2849  14.2949  14.6197  14.6454  14.8156  14.8313
    14.9767  14.9935  15.1260  15.1546  15.3629  15.3680  15.5070  15.5203
    16.2481  16.2561  16.4036  16.4124  17.1312  17.1474

     occupation numbers 
     1.0000   1.0000   1.0000   1.0000   1.0000   1.0000   1.0000   1.0000
     1.0000   1.0000   1.0000   1.0000   1.0000   1.0000   1.0000   1.0000
     1.0000   1.0000   1.0000   1.0000   1.0000   1.0000   1.0000   1.0000
     1.0000   1.0000   1.0000   1.0000   1.0000   1.0000   1.0000   1.0000
     1.0000   1.0000   1.0000   1.0000   1.0000   1.0000   1.0000   1.0000
     1.0000   1.0000   1.0000   1.0000   1.0000   1.0000   1.0000   1.0000
     1.0000   1.0000   1.0000   1.0000   1.0000   1.0000   1.0000   1.0000
     1.0000   1.0000   1.0000   1.0000   1.0000   1.0000   1.0000   1.0000
     1.0000   1.0000   1.0014   1.0016   1.0355   1.0341   0.8759   0.8432
     0.4313   0.3801   0.0670   0.0285  -0.0276  -0.0268  -0.0072  -0.0061
    -0.0000  -0.0000  -0.0000  -0.0000  -0.0000  -0.0000

          k =-0.2000-0.5000 0.3000 (  9660 PWs)   bands (ev):

   -56.4973 -56.4973 -56.4973 -56.4973 -56.4801 -56.4801 -56.4801 -56.4801
   -28.5778 -28.5778 -28.5732 -28.5732 -28.5347 -28.5347 -28.5311 -28.5311
   -27.6198 -27.6198 -27.5777 -27.5777 -27.5623 -27.5623 -27.5339 -27.5339
   -27.5195 -27.5195 -27.4824 -27.4824 -27.4560 -27.4560 -27.4336 -27.4336
     5.0597   5.0597   5.0609   5.0609   7.2215   7.2215   7.2263   7.2263
     9.4399   9.4399   9.4432   9.4432  11.2336  11.2336  11.2365  11.2365
    11.9948  11.9948  12.0020  12.0020  12.7540  12.7540  12.7645  12.7645
    13.1388  13.1388  13.1493  13.1493  13.5472  13.5472  13.5569  13.5569
    14.1609  14.1609  14.1702  14.1702  14.7345  14.7345  14.7603  14.7603
    15.0226  15.0226  15.0476  15.0476  15.4252  15.4252  15.4418  15.4418
    16.3236  16.3236  16.3340  16.3340  17.2495  17.2552

     occupation numbers 
     1.0000   1.0000   1.0000   1.0000   1.0000   1.0000   1.0000   1.0000
     1.0000   1.0000   1.0000   1.0000   1.0000   1.0000   1.0000   1.0000
     1.0000   1.0000   1.0000   1.0000   1.0000   1.0000   1.0000   1.0000
     1.0000   1.0000   1.0000   1.0000   1.0000   1.0000   1.0000   1.0000
     1.0000   1.0000   1.0000   1.0000   1.0000   1.0000   1.0000   1.0000
     1.0000   1.0000   1.0000   1.0000   1.0000   1.0000   1.0000   1.0000
     1.0000   1.0000   1.0000   1.0000   1.0000   1.0000   1.0000   1.0000
     1.0000   1.0000   1.0000   1.0000   1.0000   1.0000   1.0000   1.0000
     1.0001   1.0001   1.0002   1.0002   0.9922   0.9922   0.9646   0.9646
     0.2956   0.2956   0.2285   0.2285  -0.0173  -0.0173  -0.0148  -0.0148
    -0.0000  -0.0000  -0.0000  -0.0000  -0.0000  -0.0000

          k =-0.2000-0.5000 0.4000 (  9638 PWs)   bands (ev):

   -56.4962 -56.4962 -56.4962 -56.4962 -56.4813 -56.4813 -56.4813 -56.4813
   -28.5738 -28.5738 -28.5709 -28.5709 -28.5378 -28.5378 -28.5353 -28.5353
   -27.6112 -27.6112 -27.5880 -27.5880 -27.5581 -27.5581 -27.5376 -27.5376
   -27.5149 -27.5149 -27.4904 -27.4904 -27.4488 -27.4488 -27.4357 -27.4357
     5.3778   5.3778   5.3792   5.3792   6.8018   6.8018   6.8054   6.8054
     9.5481   9.5481   9.5521   9.5521  10.9114  10.9114  10.9139  10.9139
    12.1982  12.1982  12.2061  12.2061  12.5667  12.5667  12.5766  12.5766
    13.1595  13.1595  13.1654  13.1654  13.6491  13.6491  13.6623  13.6623
    14.3409  14.3409  14.3467  14.3467  14.7475  14.7475  14.7714  14.7714
    14.9079  14.9079  14.9459  14.9459  15.3622  15.3622  15.3745  15.3745
    16.3983  16.3983  16.4080  16.4080  17.0268  17.0310

     occupation numbers 
     1.0000   1.0000   1.0000   1.0000   1.0000   1.0000   1.0000   1.0000
     1.0000   1.0000   1.0000   1.0000   1.0000   1.0000   1.0000   1.0000
     1.0000   1.0000   1.0000   1.0000   1.0000   1.0000   1.0000   1.0000
     1.0000   1.0000   1.0000   1.0000   1.0000   1.0000   1.0000   1.0000
     1.0000   1.0000   1.0000   1.0000   1.0000   1.0000   1.0000   1.0000
     1.0000   1.0000   1.0000   1.0000   1.0000   1.0000   1.0000   1.0000
     1.0000   1.0000   1.0000   1.0000   1.0000   1.0000   1.0000   1.0000
     1.0000   1.0000   1.0000   1.0000   1.0000   1.0000   1.0000   1.0000
     1.0032   1.0032   1.0035   1.0035   0.9793   0.9793   0.9502   0.9502
     0.6428   0.6428   0.5270   0.5270  -0.0277  -0.0277  -0.0257  -0.0257
    -0.0000  -0.0000  -0.0000  -0.0000  -0.0000  -0.0000

          k =-0.3000-0.5000 0.4000 (  9654 PWs)   bands (ev):

   -56.4944 -56.4944 -56.4944 -56.4944 -56.4830 -56.4830 -56.4830 -56.4830
   -28.5699 -28.5699 -28.5670 -28.5670 -28.5424 -28.5424 -28.5398 -28.5398
   -27.6062 -27.6062 -27.5849 -27.5849 -27.5676 -27.5676 -27.5437 -27.5437
   -27.5070 -27.5070 -27.4799 -27.4799 -27.4548 -27.4548 -27.4397 -27.4397
     5.6187   5.6187   5.6208   5.6208   6.8414   6.8414   6.8466   6.8466
     9.1180   9.1180   9.1238   9.1238  10.4445  10.4445  10.4476  10.4476
    12.4413  12.4413  12.4495  12.4495  12.7827  12.7827  12.7917  12.7917
    13.0794  13.0794  13.0889  13.0889  13.4294  13.4294  13.4405  13.4405
    14.5090  14.5090  14.5161  14.5161  14.8784  14.8784  14.9007  14.9007
    15.0318  15.0318  15.0645  15.0645  15.2859  15.2859  15.3015  15.3015
    16.3479  16.3480  16.3569  16.3569  16.8713  16.8772

     occupation numbers 
     1.0000   1.0000   1.0000   1.0000   1.0000   1.0000   1.0000   1.0000
     1.0000   1.0000   1.0000   1.0000   1.0000   1.0000   1.0000   1.0000
     1.0000   1.0000   1.0000   1.0000   1.0000   1.0000   1.0000   1.0000
     1.0000   1.0000   1.0000   1.0000   1.0000   1.0000   1.0000   1.0000
     1.0000   1.0000   1.0000   1.0000   1.0000   1.0000   1.0000   1.0000
     1.0000   1.0000   1.0000   1.0000   1.0000   1.0000   1.0000   1.0000
     1.0000   1.0000   1.0000   1.0000   1.0000   1.0000   1.0000   1.0000
     1.0000   1.0000   1.0000   1.0000   1.0000   1.0000   1.0000   1.0000
     1.0213   1.0213   1.0225   1.0225   0.7269   0.7269   0.6640   0.6640
     0.2701   0.2701   0.1871   0.1871  -0.0355  -0.0355  -0.0351  -0.0351
    -0.0000  -0.0000  -0.0000  -0.0000  -0.0000  -0.0000

     the Fermi energy is    14.9546 ev

!    total energy              =   -1180.35067564 Ry

     total all-electron energy =    -10727.811512 Ry
     estimated scf accuracy    <       0.00000021 Ry
     smearing contrib. (-TS)   =      -0.00091755 Ry
     internal energy E=F+TS    =   -1180.34975809 Ry

     The total energy is F=E-TS. E is the sum of the following terms:
     one-electron contribution =    -336.79680177 Ry
     hartree contribution      =     207.04167839 Ry
     xc contribution           =    -114.36192568 Ry
     ewald contribution        =    -496.51183961 Ry
     one-center paw contrib.   =    -439.72086944 Ry
      -> PAW hartree energy AE =     126.71574380 Ry
      -> PAW hartree energy PS =    -125.74840304 Ry
      -> PAW xc energy AE      =     -96.23982062 Ry
      -> PAW xc energy PS      =      20.93246658 Ry
      -> total E_H with PAW    =     208.00901916 Ry
      -> total E_XC with PAW   =    -189.66927972 Ry

     convergence has been achieved in   8 iterations

     Forces acting on atoms (cartesian axes, Ry/au):

     atom    1 type  1   force =    -0.00294582   -0.00294582    0.00294582
     atom    2 type  1   force =    -0.00294582    0.00294582   -0.00294582
     atom    3 type  1   force =     0.00294582   -0.00294582   -0.00294582
     atom    4 type  1   force =     0.00294582    0.00294582    0.00294582
     atom    5 type  2   force =    -0.00417584   -0.00417584    0.00417584
     atom    6 type  2   force =    -0.00417584    0.00417584   -0.00417584
     atom    7 type  2   force =     0.00417584   -0.00417584   -0.00417584
     atom    8 type  2   force =     0.00417584    0.00417584    0.00417584
     The non-local contrib.  to forces
     atom    1 type  1   force =     0.05117622    0.05117622   -0.05117622
     atom    2 type  1   force =     0.05117622   -0.05117622    0.05117622
     atom    3 type  1   force =    -0.05117622    0.05117622    0.05117622
     atom    4 type  1   force =    -0.05117622   -0.05117622   -0.05117622
     atom    5 type  2   force =    -0.00807598   -0.00807598    0.00807598
     atom    6 type  2   force =    -0.00807598    0.00807598   -0.00807598
     atom    7 type  2   force =     0.00807598   -0.00807598   -0.00807598
     atom    8 type  2   force =     0.00807598    0.00807598    0.00807598
     The ionic contribution  to forces
     atom    1 type  1   force =    -0.85044630   -0.85044630    0.85044630
     atom    2 type  1   force =    -0.85044630    0.85044630   -0.85044630
     atom    3 type  1   force =     0.85044630   -0.85044630   -0.85044630
     atom    4 type  1   force =     0.85044630    0.85044630    0.85044630
     atom    5 type  2   force =    -0.24524978   -0.24524978    0.24524978
     atom    6 type  2   force =    -0.24524978    0.24524978   -0.24524978
     atom    7 type  2   force =     0.24524978   -0.24524978   -0.24524978
     atom    8 type  2   force =     0.24524978    0.24524978    0.24524978
     The local contribution  to forces
     atom    1 type  1   force =     0.79725169    0.79725169   -0.79725169
     atom    2 type  1   force =     0.79725169   -0.79725169    0.79725169
     atom    3 type  1   force =    -0.79725169    0.79725169    0.79725169
     atom    4 type  1   force =    -0.79725169   -0.79725169   -0.79725169
     atom    5 type  2   force =     0.24836156    0.24836156   -0.24836156
     atom    6 type  2   force =     0.24836156   -0.24836156    0.24836156
     atom    7 type  2   force =    -0.24836156    0.24836156    0.24836156
     atom    8 type  2   force =    -0.24836156   -0.24836156   -0.24836156
     The core correction contribution to forces
     atom    1 type  1   force =    -0.00103235   -0.00103235    0.00103235
     atom    2 type  1   force =    -0.00103235    0.00103235   -0.00103235
     atom    3 type  1   force =     0.00103235   -0.00103235   -0.00103235
     atom    4 type  1   force =     0.00103235    0.00103235    0.00103235
     atom    5 type  2   force =     0.00079688    0.00079688   -0.00079688
     atom    6 type  2   force =     0.00079688   -0.00079688    0.00079688
     atom    7 type  2   force =    -0.00079688    0.00079688    0.00079688
     atom    8 type  2   force =    -0.00079688   -0.00079688   -0.00079688
     The Hubbard contrib.    to forces
     atom    1 type  1   force =     0.00000000    0.00000000    0.00000000
     atom    2 type  1   force =     0.00000000    0.00000000    0.00000000
     atom    3 type  1   force =     0.00000000    0.00000000    0.00000000
     atom    4 type  1   force =     0.00000000    0.00000000    0.00000000
     atom    5 type  2   force =     0.00000000    0.00000000    0.00000000
     atom    6 type  2   force =     0.00000000    0.00000000    0.00000000
     atom    7 type  2   force =     0.00000000    0.00000000    0.00000000
     atom    8 type  2   force =     0.00000000    0.00000000    0.00000000
     The SCF correction term to forces
     atom    1 type  1   force =     0.00010492    0.00010492   -0.00010492
     atom    2 type  1   force =     0.00010492   -0.00010492    0.00010492
     atom    3 type  1   force =    -0.00010492    0.00010492    0.00010492
     atom    4 type  1   force =    -0.00010492   -0.00010492   -0.00010492
     atom    5 type  2   force =    -0.00000853   -0.00000853    0.00000853
     atom    6 type  2   force =    -0.00000853    0.00000853   -0.00000853
     atom    7 type  2   force =     0.00000853   -0.00000853   -0.00000853
     atom    8 type  2   force =     0.00000853    0.00000853    0.00000853

     Total force =     0.017703     Total SCF correction =     0.000365


     Computing stress (Cartesian axis) and pressure

          total   stress  (Ry/bohr**3)                   (kbar)     P=      -41.83
  -0.00028435   0.00000000   0.00000000          -41.83        0.00        0.00
   0.00000000  -0.00028435   0.00000000            0.00      -41.83        0.00
   0.00000000   0.00000000  -0.00028435            0.00        0.00      -41.83

     kinetic stress (kbar)  35759.80      0.00      0.00
                                0.00  35759.80      0.00
                                0.00      0.00  35759.80

     local   stress (kbar) -10012.53     -0.00     -0.00
                               -0.00 -10012.53     -0.00
                               -0.00     -0.00 -10012.53

     nonloc. stress (kbar)   2427.54      0.00      0.00
                                0.00   2427.54      0.00
                                0.00      0.00   2427.54

     hartree stress (kbar)  15167.22     -0.00     -0.00
                               -0.00  15167.22     -0.00
                               -0.00     -0.00  15167.22

     exc-cor stress (kbar)  -1706.59     -0.00     -0.00
                               -0.00  -1706.59     -0.00
                               -0.00     -0.00  -1706.59

     corecor stress (kbar)  -5304.38     -0.00     -0.00
                               -0.00  -5304.38      0.00
                               -0.00     -0.00  -5304.38

     ewald   stress (kbar) -36372.90      0.00      0.00
                                0.00 -36372.90      0.00
                                0.00      0.00 -36372.90

     hubbard stress (kbar)      0.00      0.00      0.00
                                0.00      0.00      0.00
                                0.00      0.00      0.00

     DFT-D   stress (kbar)      0.00      0.00      0.00
                                0.00      0.00      0.00
                                0.00      0.00      0.00

     XDM     stress (kbar)      0.00      0.00      0.00
                                0.00      0.00      0.00
                                0.00      0.00      0.00

     dft-nl  stress (kbar)      0.00      0.00      0.00
                                0.00      0.00      0.00
                                0.00      0.00      0.00

     TS-vdW  stress (kbar)      0.00      0.00      0.00
                                0.00      0.00      0.00
                                0.00      0.00      0.00



     Writing output data file /zfs_data/vergnior/martin/Scratch/OAL/CrSi/convergence/smearing/10x10x10/0.02/tmp/CrSi.save/
 
     init_run     :     18.06s CPU     18.62s WALL (       1 calls)
     electrons    :    559.85s CPU    571.01s WALL (       1 calls)
     forces       :     17.68s CPU     17.84s WALL (       1 calls)
     stress       :     45.99s CPU     46.38s WALL (       1 calls)

     Called by init_run:
     wfcinit      :     16.50s CPU     16.89s WALL (       1 calls)
     wfcinit:atom :      0.13s CPU      0.13s WALL (      76 calls)
     wfcinit:wfcr :     15.82s CPU     16.17s WALL (      76 calls)
     potinit      :      0.25s CPU      0.31s WALL (       1 calls)
     hinit0       :      0.23s CPU      0.24s WALL (       1 calls)

     Called by electrons:
     c_bands      :    456.11s CPU    464.14s WALL (       9 calls)
     sum_band     :     96.65s CPU     98.93s WALL (       9 calls)
     v_of_rho     :      0.32s CPU      0.35s WALL (       9 calls)
     v_h          :      0.03s CPU      0.03s WALL (       9 calls)
     v_xc         :      0.36s CPU      0.39s WALL (      11 calls)
     newd         :      5.64s CPU      6.47s WALL (       9 calls)
     PAW_pot      :      1.54s CPU      1.58s WALL (       9 calls)
     mix_rho      :      0.21s CPU      0.22s WALL (       9 calls)

     Called by c_bands:
     init_us_2    :      2.45s CPU      2.50s WALL (    1596 calls)
     cegterg      :    423.17s CPU    430.41s WALL (     684 calls)

     Called by sum_band:
     sum_band:wei :      0.12s CPU      0.14s WALL (       9 calls)
     sum_band:loo :     91.99s CPU     93.25s WALL (       9 calls)
     sum_band:buf :      0.53s CPU      0.57s WALL (     684 calls)
     sum_band:ini :      1.09s CPU      1.11s WALL (     684 calls)
     sum_band:cal :      5.21s CPU      5.23s WALL (     684 calls)
     sum_band:bec :     10.80s CPU     10.84s WALL (     684 calls)
     addusdens    :      4.20s CPU      5.20s WALL (       9 calls)
     addusd:skk   :      0.01s CPU      0.01s WALL (      18 calls)
     addusd:dgemm :      1.61s CPU      2.57s WALL (      18 calls)
     addusd:qvan2 :      2.53s CPU      2.54s WALL (      18 calls)

     Called by *egterg:
     cdiaghg      :     31.64s CPU     31.78s WALL (    3739 calls)
     cegterg:over :     26.96s CPU     27.09s WALL (    3131 calls)
     cegterg:upda :     10.01s CPU     10.14s WALL (    3131 calls)
     cegterg:last :     20.21s CPU     20.30s WALL (    2030 calls)
     h_psi        :    302.43s CPU    309.08s WALL (    3891 calls)
     s_psi        :     35.77s CPU     35.92s WALL (    3891 calls)
     g_psi        :      0.65s CPU      0.66s WALL (    3131 calls)

     Called by h_psi:
     h_psi:calbec :     18.66s CPU     18.78s WALL (    3891 calls)
     vloc_psi     :    248.48s CPU    254.61s WALL (    3891 calls)
     add_vuspsi   :     33.63s CPU     33.90s WALL (    3891 calls)

     General routines
     calbec       :     27.09s CPU     27.27s WALL (    4955 calls)
     fft          :      0.41s CPU      0.42s WALL (     216 calls)
     ffts         :      0.03s CPU      0.07s WALL (      72 calls)
     fftw         :    195.34s CPU    199.51s WALL (  945136 calls)
     interpolate  :      0.10s CPU      0.14s WALL (      36 calls)
 
     Parallel routines
     fft_scatt_xy :     20.17s CPU     20.58s WALL (  945424 calls)
     fft_scatt_yz :     76.18s CPU     77.82s WALL (  945424 calls)

     PAW routines
     PAW_pot      :      1.54s CPU      1.58s WALL (       9 calls)
     PAW_symme    :      0.02s CPU      0.02s WALL (      18 calls)
 
     PWSCF        :  10m46.59s CPU  11m 2.84s WALL

 
   This run was terminated on:  12:45:35   1Aug2021            

=------------------------------------------------------------------------------=
   JOB DONE.
=------------------------------------------------------------------------------=
