
     Program PWSCF v.6.7MaX starts on 18May2022 at 15:58: 6 

     This program is part of the open-source Quantum ESPRESSO suite
     for quantum simulation of materials; please cite
         "P. Giannozzi et al., J. Phys.:Condens. Matter 21 395502 (2009);
         "P. Giannozzi et al., J. Phys.:Condens. Matter 29 465901 (2017);
          URL http://www.quantum-espresso.org", 
     in publications or presentations arising from this work. More details at
     http://www.quantum-espresso.org/quote

     Parallel version (MPI), running on    48 processors

     MPI processes distributed on     1 nodes
     R & G space division:  proc/nbgrp/npool/nimage =      48
     Waiting for input...
     Reading input from standard input

     Current dimensions of program PWSCF are:
     Max number of different atomic species (ntypx) = 10
     Max number of k-points (npk) =  40000
     Max angular momentum in pseudopotentials (lmaxx) =  3
     file O.pbe-nl-kjpaw_psl.1.0.0.UPF: wavefunction(s)  2S 2P renormalized
     file Cl.pbe-nl-kjpaw_psl.1.0.0.UPF: wavefunction(s)  3S renormalized
     file Nb.pbe-spn-kjpaw_psl.1.0.0.UPF: wavefunction(s)  4S 4P 4D renormalized

     Subspace diagonalization in iterative solution of the eigenvalue problem:
     a serial algorithm will be used

     Message from routine setup:
     using ibrav=0 with symmetry is DISCOURAGED, use correct ibrav instead
 
     Parallelization info
     --------------------
     sticks:   dense  smooth     PW     G-vecs:    dense   smooth      PW
     Min         113      45     15                 2831      717     143
     Max         114      46     16                 2832      718     145
     Sum        5431    2167    747               135907    34429    6903
 


     bravais-lattice index     =            0
     lattice parameter (alat)  =      12.6717  a.u.
     unit-cell volume          =     547.9313 (a.u.)^3
     number of atoms/cell      =            4
     number of atomic types    =            3
     number of electrons       =        33.00
     number of Kohn-Sham states=           21
     kinetic-energy cutoff     =      60.0000  Ry
     charge density cutoff     =     600.0000  Ry
     scf convergence threshold =      1.0E-10
     mixing beta               =       0.7000
     number of iterations used =            8  plain     mixing
     Exchange-correlation= SLA  PW   PBX  PBC
                           (   1   4   3   4   0   0   0)

     celldm(1)=  12.671676  celldm(2)=   0.000000  celldm(3)=   0.000000
     celldm(4)=   0.000000  celldm(5)=   0.000000  celldm(6)=   0.000000

     crystal axes: (cart. coord. in units of alat)
               a(1) = (  -0.250426   0.291161   0.923316 )  
               a(2) = (   0.250426  -0.291161   0.923316 )  
               a(3) = (   0.250426   0.291161  -0.923316 )  

     reciprocal axes: (cart. coord. in units 2 pi/alat)
               b(1) = (  0.000000  1.717261  0.541527 )  
               b(2) = (  1.996594  0.000000  0.541527 )  
               b(3) = (  1.996594  1.717261  0.000000 )  


     PseudoPot. # 1 for O  read from file:
     /zfs_data/gutierre/Scratch/Cl2NbO/convergence/cutoff/14x14x14/60/pseudo/O.pbe-nl-kjpaw_psl.1.0.0.UPF
     MD5 check sum: df3ddea38124b4e5de5e1084591730e4
     Pseudo is Projector augmented-wave + core cor, Zval =  6.0
     Generated using 'atomic' code by A. Dal Corso  v.6.7MaX
     Shape of augmentation charge: PSQ
     Using radial grid of 1095 points,  4 beta functions with: 
                l(1) =   0
                l(2) =   0
                l(3) =   1
                l(4) =   1
     Q(r) pseudized with 0 coefficients 


     PseudoPot. # 2 for Cl read from file:
     /zfs_data/gutierre/Scratch/Cl2NbO/convergence/cutoff/14x14x14/60/pseudo/Cl.pbe-nl-kjpaw_psl.1.0.0.UPF
     MD5 check sum: 8cf6bde52c08f6236e0f72a8870677af
     Pseudo is Projector augmented-wave + core cor, Zval =  7.0
     Generated using 'atomic' code by A. Dal Corso  v.6.7MaX
     Shape of augmentation charge: PSQ
     Using radial grid of 1157 points,  4 beta functions with: 
                l(1) =   0
                l(2) =   0
                l(3) =   1
                l(4) =   1
     Q(r) pseudized with 0 coefficients 


     PseudoPot. # 3 for Nb read from file:
     /zfs_data/gutierre/Scratch/Cl2NbO/convergence/cutoff/14x14x14/60/pseudo/Nb.pbe-spn-kjpaw_psl.1.0.0.UPF
     MD5 check sum: 1ec1a3aa7bf3cbf7f7e0d720422bce7a
     Pseudo is Projector augmented-wave + core cor, Zval = 13.0
     Generated using 'atomic' code by A. Dal Corso  v.6.7MaX
     Shape of augmentation charge: PSQ
     Using radial grid of 1227 points,  6 beta functions with: 
                l(1) =   0
                l(2) =   0
                l(3) =   1
                l(4) =   1
                l(5) =   2
                l(6) =   2
     Q(r) pseudized with 0 coefficients 


     atomic species   valence    mass     pseudopotential
        O              6.00    15.99940     O ( 1.00)
        Cl             7.00    35.45150     Cl( 1.00)
        Nb            13.00    92.90637     Nb( 1.00)

      8 Sym. Ops., with inversion, found


                                    s                        frac. trans.

      isym =  1     identity                                     

 cryst.   s( 1) = (     1          0          0      )
                  (     0          1          0      )
                  (     0          0          1      )

 cart.    s( 1) = (  1.0000000  0.0000000  0.0000000 )
                  (  0.0000000  1.0000000  0.0000000 )
                  (  0.0000000  0.0000000  1.0000000 )


      isym =  2     180 deg rotation - cart. axis [0,0,1]        

 cryst.   s( 2) = (     0          1          0      )
                  (     1          0          0      )
                  (    -1         -1         -1      )

 cart.    s( 2) = ( -1.0000000  0.0000000  0.0000000 )
                  (  0.0000000 -1.0000000  0.0000000 )
                  (  0.0000000  0.0000000  1.0000000 )


      isym =  3     180 deg rotation - cart. axis [0,1,0]        

 cryst.   s( 3) = (     0          0          1      )
                  (    -1         -1         -1      )
                  (     1          0          0      )

 cart.    s( 3) = ( -1.0000000  0.0000000  0.0000000 )
                  (  0.0000000  1.0000000  0.0000000 )
                  (  0.0000000  0.0000000 -1.0000000 )


      isym =  4     180 deg rotation - cart. axis [1,0,0]        

 cryst.   s( 4) = (    -1         -1         -1      )
                  (     0          0          1      )
                  (     0          1          0      )

 cart.    s( 4) = (  1.0000000  0.0000000  0.0000000 )
                  (  0.0000000 -1.0000000  0.0000000 )
                  (  0.0000000  0.0000000 -1.0000000 )


      isym =  5     inversion                                    

 cryst.   s( 5) = (    -1          0          0      )
                  (     0         -1          0      )
                  (     0          0         -1      )

 cart.    s( 5) = ( -1.0000000  0.0000000  0.0000000 )
                  (  0.0000000 -1.0000000  0.0000000 )
                  (  0.0000000  0.0000000 -1.0000000 )


      isym =  6     inv. 180 deg rotation - cart. axis [0,0,1]   

 cryst.   s( 6) = (     0         -1          0      )
                  (    -1          0          0      )
                  (     1          1          1      )

 cart.    s( 6) = (  1.0000000  0.0000000  0.0000000 )
                  (  0.0000000  1.0000000  0.0000000 )
                  (  0.0000000  0.0000000 -1.0000000 )


      isym =  7     inv. 180 deg rotation - cart. axis [0,1,0]   

 cryst.   s( 7) = (     0          0         -1      )
                  (     1          1          1      )
                  (    -1          0          0      )

 cart.    s( 7) = (  1.0000000  0.0000000  0.0000000 )
                  (  0.0000000 -1.0000000  0.0000000 )
                  (  0.0000000  0.0000000  1.0000000 )


      isym =  8     inv. 180 deg rotation - cart. axis [1,0,0]   

 cryst.   s( 8) = (     1          1          1      )
                  (     0          0         -1      )
                  (     0         -1          0      )

 cart.    s( 8) = ( -1.0000000  0.0000000  0.0000000 )
                  (  0.0000000  1.0000000  0.0000000 )
                  (  0.0000000  0.0000000  1.0000000 )


   Cartesian axes

     site n.     atom                  positions (alat units)
         1           O   tau(   1) = (   0.0000000   0.2911613   0.0000000  )
         2           Cl  tau(   2) = (  -0.0000000   0.2911613   0.6365338  )
         3           Cl  tau(   3) = (   0.2504264  -0.0000000   0.2867819  )
         4           Nb  tau(   4) = (   0.0000000   0.0000000   0.0000000  )

   Crystallographic axes

     site n.     atom                  positions (cryst. coord.)
         1           O   tau(   1) = (  0.5000000  0.0000000  0.5000000  )
         2           Cl  tau(   2) = (  0.8447000  0.3447000  0.5000000  )
         3           Cl  tau(   3) = (  0.1553000  0.6553000  0.5000000  )
         4           Nb  tau(   4) = (  0.0000000  0.0000000  0.0000000  )

     number of k points=   428  Methfessel-Paxton smearing, width (Ry)=  0.0120
                       cart. coord. in units 2pi/alat
        k(    1) = (   0.0000000   0.0000000   0.0000000), wk =   0.0007289
        k(    2) = (   0.1426139   0.1226615   0.0000000), wk =   0.0029155
        k(    3) = (   0.2852278   0.2453230   0.0000000), wk =   0.0029155
        k(    4) = (   0.4278416   0.3679846   0.0000000), wk =   0.0029155
        k(    5) = (   0.5704555   0.4906461   0.0000000), wk =   0.0029155
        k(    6) = (   0.7130694   0.6133076   0.0000000), wk =   0.0029155
        k(    7) = (   0.8556833   0.7359691   0.0000000), wk =   0.0029155
        k(    8) = (  -0.9982971  -0.8586307   0.0000000), wk =   0.0014577
        k(    9) = (   0.1426139   0.0000000   0.0386805), wk =   0.0029155
        k(   10) = (   0.2852278   0.1226615   0.0386805), wk =   0.0058309
        k(   11) = (   0.4278416   0.2453230   0.0386805), wk =   0.0058309
        k(   12) = (   0.5704555   0.3679846   0.0386805), wk =   0.0058309
        k(   13) = (   0.7130694   0.4906461   0.0386805), wk =   0.0058309
        k(   14) = (   0.8556833   0.6133076   0.0386805), wk =   0.0058309
        k(   15) = (   0.9982971   0.7359691   0.0386805), wk =   0.0058309
        k(   16) = (  -0.8556833  -0.8586307   0.0386805), wk =   0.0058309
        k(   17) = (  -0.7130694  -0.7359691   0.0386805), wk =   0.0058309
        k(   18) = (  -0.5704555  -0.6133076   0.0386805), wk =   0.0058309
        k(   19) = (  -0.4278416  -0.4906461   0.0386805), wk =   0.0058309
        k(   20) = (  -0.2852278  -0.3679846   0.0386805), wk =   0.0058309
        k(   21) = (  -0.1426139  -0.2453230   0.0386805), wk =   0.0058309
        k(   22) = (   0.0000000  -0.1226615   0.0386805), wk =   0.0029155
        k(   23) = (   0.2852278   0.0000000   0.0773609), wk =   0.0029155
        k(   24) = (   0.4278416   0.1226615   0.0773609), wk =   0.0058309
        k(   25) = (   0.5704555   0.2453230   0.0773609), wk =   0.0058309
        k(   26) = (   0.7130694   0.3679846   0.0773609), wk =   0.0058309
        k(   27) = (   0.8556833   0.4906461   0.0773609), wk =   0.0058309
        k(   28) = (   0.9982971   0.6133076   0.0773609), wk =   0.0058309
        k(   29) = (   1.1409110   0.7359691   0.0773609), wk =   0.0058309
        k(   30) = (  -0.7130694  -0.8586307   0.0773609), wk =   0.0058309
        k(   31) = (  -0.5704555  -0.7359691   0.0773609), wk =   0.0058309
        k(   32) = (  -0.4278416  -0.6133076   0.0773609), wk =   0.0058309
        k(   33) = (  -0.2852278  -0.4906461   0.0773609), wk =   0.0058309
        k(   34) = (  -0.1426139  -0.3679846   0.0773609), wk =   0.0058309
        k(   35) = (  -0.0000000  -0.2453230   0.0773609), wk =   0.0029155
        k(   36) = (   0.1426139  -0.1226615   0.0773609), wk =   0.0058309
        k(   37) = (   0.4278416   0.0000000   0.1160414), wk =   0.0029155
        k(   38) = (   0.5704555   0.1226615   0.1160414), wk =   0.0058309
        k(   39) = (   0.7130694   0.2453230   0.1160414), wk =   0.0058309
        k(   40) = (   0.8556833   0.3679846   0.1160414), wk =   0.0058309
        k(   41) = (   0.9982971   0.4906461   0.1160414), wk =   0.0058309
        k(   42) = (   1.1409110   0.6133076   0.1160414), wk =   0.0058309
        k(   43) = (   1.2835249   0.7359691   0.1160414), wk =   0.0058309
        k(   44) = (  -0.5704555  -0.8586307   0.1160414), wk =   0.0058309
        k(   45) = (  -0.4278416  -0.7359691   0.1160414), wk =   0.0058309
        k(   46) = (  -0.2852278  -0.6133076   0.1160414), wk =   0.0058309
        k(   47) = (  -0.1426139  -0.4906461   0.1160414), wk =   0.0058309
        k(   48) = (  -0.0000000  -0.3679846   0.1160414), wk =   0.0029155
        k(   49) = (   0.1426139  -0.2453230   0.1160414), wk =   0.0058309
        k(   50) = (   0.2852278  -0.1226615   0.1160414), wk =   0.0058309
        k(   51) = (   0.5704555   0.0000000   0.1547219), wk =   0.0029155
        k(   52) = (   0.7130694   0.1226615   0.1547219), wk =   0.0058309
        k(   53) = (   0.8556833   0.2453230   0.1547219), wk =   0.0058309
        k(   54) = (   0.9982971   0.3679846   0.1547219), wk =   0.0058309
        k(   55) = (   1.1409110   0.4906461   0.1547219), wk =   0.0058309
        k(   56) = (   1.2835249   0.6133076   0.1547219), wk =   0.0058309
        k(   57) = (   1.4261388   0.7359691   0.1547219), wk =   0.0058309
        k(   58) = (  -0.4278416  -0.8586307   0.1547219), wk =   0.0058309
        k(   59) = (  -0.2852278  -0.7359691   0.1547219), wk =   0.0058309
        k(   60) = (  -0.1426139  -0.6133076   0.1547219), wk =   0.0058309
        k(   61) = (   0.0000000  -0.4906461   0.1547219), wk =   0.0029155
        k(   62) = (   0.1426139  -0.3679846   0.1547219), wk =   0.0058309
        k(   63) = (   0.2852278  -0.2453230   0.1547219), wk =   0.0058309
        k(   64) = (   0.4278416  -0.1226615   0.1547219), wk =   0.0058309
        k(   65) = (   0.7130694   0.0000000   0.1934024), wk =   0.0029155
        k(   66) = (   0.8556833   0.1226615   0.1934024), wk =   0.0058309
        k(   67) = (   0.9982971   0.2453230   0.1934024), wk =   0.0058309
        k(   68) = (   1.1409110   0.3679846   0.1934024), wk =   0.0058309
        k(   69) = (   1.2835249   0.4906461   0.1934024), wk =   0.0058309
        k(   70) = (   1.4261388   0.6133076   0.1934024), wk =   0.0058309
        k(   71) = (   1.5687527   0.7359691   0.1934024), wk =   0.0058309
        k(   72) = (  -0.2852278  -0.8586307   0.1934024), wk =   0.0058309
        k(   73) = (  -0.1426139  -0.7359691   0.1934024), wk =   0.0058309
        k(   74) = (   0.0000000  -0.6133076   0.1934024), wk =   0.0029155
        k(   75) = (   0.1426139  -0.4906461   0.1934024), wk =   0.0058309
        k(   76) = (   0.2852278  -0.3679846   0.1934024), wk =   0.0058309
        k(   77) = (   0.4278416  -0.2453230   0.1934024), wk =   0.0058309
        k(   78) = (   0.5704555  -0.1226615   0.1934024), wk =   0.0058309
        k(   79) = (   0.8556833   0.0000000   0.2320828), wk =   0.0029155
        k(   80) = (   0.9982971   0.1226615   0.2320828), wk =   0.0058309
        k(   81) = (   1.1409110   0.2453230   0.2320828), wk =   0.0058309
        k(   82) = (   1.2835249   0.3679846   0.2320828), wk =   0.0058309
        k(   83) = (   1.4261388   0.4906461   0.2320828), wk =   0.0058309
        k(   84) = (   1.5687527   0.6133076   0.2320828), wk =   0.0058309
        k(   85) = (   1.7113665   0.7359691   0.2320828), wk =   0.0058309
        k(   86) = (  -0.1426139  -0.8586307   0.2320828), wk =   0.0058309
        k(   87) = (  -0.0000000  -0.7359691   0.2320828), wk =   0.0029155
        k(   88) = (   0.1426139  -0.6133076   0.2320828), wk =   0.0058309
        k(   89) = (   0.2852278  -0.4906461   0.2320828), wk =   0.0058309
        k(   90) = (   0.4278416  -0.3679846   0.2320828), wk =   0.0058309
        k(   91) = (   0.5704555  -0.2453230   0.2320828), wk =   0.0058309
        k(   92) = (   0.7130694  -0.1226615   0.2320828), wk =   0.0058309
        k(   93) = (  -0.9982971   0.0000000  -0.2707633), wk =   0.0014577
        k(   94) = (  -0.8556833   0.1226615  -0.2707633), wk =   0.0058309
        k(   95) = (  -0.7130694   0.2453230  -0.2707633), wk =   0.0058309
        k(   96) = (  -0.5704555   0.3679846  -0.2707633), wk =   0.0058309
        k(   97) = (  -0.4278416   0.4906461  -0.2707633), wk =   0.0058309
        k(   98) = (  -0.2852278   0.6133076  -0.2707633), wk =   0.0058309
        k(   99) = (  -0.1426139   0.7359691  -0.2707633), wk =   0.0058309
        k(  100) = (  -1.9965943  -0.8586307  -0.2707633), wk =   0.0014577
        k(  101) = (   0.2852278   0.2453230   0.0773609), wk =   0.0058309
        k(  102) = (   0.4278416   0.3679846   0.0773609), wk =   0.0058309
        k(  103) = (   0.5704555   0.4906461   0.0773609), wk =   0.0058309
        k(  104) = (   0.7130694   0.6133076   0.0773609), wk =   0.0058309
        k(  105) = (   0.8556833   0.7359691   0.0773609), wk =   0.0058309
        k(  106) = (   0.9982971   0.8586307   0.0773609), wk =   0.0029155
        k(  107) = (   0.0000000   0.0000000   0.0773609), wk =   0.0014577
        k(  108) = (   0.4278416   0.2453230   0.1160414), wk =   0.0058309
        k(  109) = (   0.5704555   0.3679846   0.1160414), wk =   0.0058309
        k(  110) = (   0.7130694   0.4906461   0.1160414), wk =   0.0058309
        k(  111) = (   0.8556833   0.6133076   0.1160414), wk =   0.0058309
        k(  112) = (   0.9982971   0.7359691   0.1160414), wk =   0.0058309
        k(  113) = (   1.1409110   0.8586307   0.1160414), wk =   0.0058309
        k(  114) = (  -0.7130694  -0.7359691   0.1160414), wk =   0.0058309
        k(  115) = (  -0.5704555  -0.6133076   0.1160414), wk =   0.0058309
        k(  116) = (  -0.4278416  -0.4906461   0.1160414), wk =   0.0058309
        k(  117) = (  -0.2852278  -0.3679846   0.1160414), wk =   0.0058309
        k(  118) = (  -0.0000000  -0.1226615   0.1160414), wk =   0.0029155
        k(  119) = (   0.1426139   0.0000000   0.1160414), wk =   0.0029155
        k(  120) = (   0.5704555   0.2453230   0.1547219), wk =   0.0058309
        k(  121) = (   0.7130694   0.3679846   0.1547219), wk =   0.0058309
        k(  122) = (   0.8556833   0.4906461   0.1547219), wk =   0.0058309
        k(  123) = (   0.9982971   0.6133076   0.1547219), wk =   0.0058309
        k(  124) = (   1.1409110   0.7359691   0.1547219), wk =   0.0058309
        k(  125) = (   1.2835249   0.8586307   0.1547219), wk =   0.0058309
        k(  126) = (  -0.5704555  -0.7359691   0.1547219), wk =   0.0058309
        k(  127) = (  -0.4278416  -0.6133076   0.1547219), wk =   0.0058309
        k(  128) = (  -0.2852278  -0.4906461   0.1547219), wk =   0.0058309
        k(  129) = (  -0.0000000  -0.2453230   0.1547219), wk =   0.0029155
        k(  130) = (   0.1426139  -0.1226615   0.1547219), wk =   0.0058309
        k(  131) = (   0.2852278   0.0000000   0.1547219), wk =   0.0029155
        k(  132) = (   0.7130694   0.2453230   0.1934024), wk =   0.0058309
        k(  133) = (   0.8556833   0.3679846   0.1934024), wk =   0.0058309
        k(  134) = (   0.9982971   0.4906461   0.1934024), wk =   0.0058309
        k(  135) = (   1.1409110   0.6133076   0.1934024), wk =   0.0058309
        k(  136) = (   1.2835249   0.7359691   0.1934024), wk =   0.0058309
        k(  137) = (   1.4261388   0.8586307   0.1934024), wk =   0.0058309
        k(  138) = (  -0.4278416  -0.7359691   0.1934024), wk =   0.0058309
        k(  139) = (  -0.2852278  -0.6133076   0.1934024), wk =   0.0058309
        k(  140) = (   0.0000000  -0.3679846   0.1934024), wk =   0.0029155
        k(  141) = (   0.1426139  -0.2453230   0.1934024), wk =   0.0058309
        k(  142) = (   0.2852278  -0.1226615   0.1934024), wk =   0.0058309
        k(  143) = (   0.4278416   0.0000000   0.1934024), wk =   0.0029155
        k(  144) = (   0.8556833   0.2453230   0.2320828), wk =   0.0058309
        k(  145) = (   0.9982971   0.3679846   0.2320828), wk =   0.0058309
        k(  146) = (   1.1409110   0.4906461   0.2320828), wk =   0.0058309
        k(  147) = (   1.2835249   0.6133076   0.2320828), wk =   0.0058309
        k(  148) = (   1.4261388   0.7359691   0.2320828), wk =   0.0058309
        k(  149) = (   1.5687527   0.8586307   0.2320828), wk =   0.0058309
        k(  150) = (  -0.2852278  -0.7359691   0.2320828), wk =   0.0058309
        k(  151) = (   0.0000000  -0.4906461   0.2320828), wk =   0.0029155
        k(  152) = (   0.1426139  -0.3679846   0.2320828), wk =   0.0058309
        k(  153) = (   0.2852278  -0.2453230   0.2320828), wk =   0.0058309
        k(  154) = (   0.4278416  -0.1226615   0.2320828), wk =   0.0058309
        k(  155) = (   0.5704555   0.0000000   0.2320828), wk =   0.0029155
        k(  156) = (   0.9982971   0.2453230   0.2707633), wk =   0.0029155
        k(  157) = (   1.1409110   0.3679846   0.2707633), wk =   0.0058309
        k(  158) = (   1.2835249   0.4906461   0.2707633), wk =   0.0058309
        k(  159) = (   1.4261388   0.6133076   0.2707633), wk =   0.0058309
        k(  160) = (   1.5687527   0.7359691   0.2707633), wk =   0.0058309
        k(  161) = (   1.7113665   0.8586307   0.2707633), wk =   0.0029155
        k(  162) = (  -0.0000000  -0.6133076   0.2707633), wk =   0.0029155
        k(  163) = (   0.1426139  -0.4906461   0.2707633), wk =   0.0058309
        k(  164) = (   0.2852278  -0.3679846   0.2707633), wk =   0.0058309
        k(  165) = (   0.4278416  -0.2453230   0.2707633), wk =   0.0058309
        k(  166) = (   0.5704555  -0.1226615   0.2707633), wk =   0.0058309
        k(  167) = (   0.7130694   0.0000000   0.2707633), wk =   0.0029155
        k(  168) = (  -0.7130694   0.3679846  -0.2320828), wk =   0.0058309
        k(  169) = (  -0.5704555   0.4906461  -0.2320828), wk =   0.0058309
        k(  170) = (  -0.4278416   0.6133076  -0.2320828), wk =   0.0058309
        k(  171) = (  -1.9965943  -0.7359691  -0.2320828), wk =   0.0029155
        k(  172) = (  -1.8539804  -0.6133076  -0.2320828), wk =   0.0058309
        k(  173) = (  -1.7113665  -0.4906461  -0.2320828), wk =   0.0058309
        k(  174) = (  -1.5687527  -0.3679846  -0.2320828), wk =   0.0058309
        k(  175) = (  -1.4261388  -0.2453230  -0.2320828), wk =   0.0058309
        k(  176) = (  -1.2835249  -0.1226615  -0.2320828), wk =   0.0058309
        k(  177) = (  -1.1409110   0.0000000  -0.2320828), wk =   0.0029155
        k(  178) = (  -0.5704555   0.3679846  -0.1934024), wk =   0.0058309
        k(  179) = (  -0.4278416   0.4906461  -0.1934024), wk =   0.0058309
        k(  180) = (  -0.0000000   0.8586307  -0.1934024), wk =   0.0029155
        k(  181) = (  -1.8539804  -0.7359691  -0.1934024), wk =   0.0058309
        k(  182) = (  -1.7113665  -0.6133076  -0.1934024), wk =   0.0058309
        k(  183) = (  -1.5687527  -0.4906461  -0.1934024), wk =   0.0058309
        k(  184) = (  -1.4261388  -0.3679846  -0.1934024), wk =   0.0058309
        k(  185) = (  -1.2835249  -0.2453230  -0.1934024), wk =   0.0058309
        k(  186) = (  -1.1409110  -0.1226615  -0.1934024), wk =   0.0058309
        k(  187) = (  -0.9982971   0.0000000  -0.1934024), wk =   0.0029155
        k(  188) = (  -0.4278416   0.3679846  -0.1547219), wk =   0.0058309
        k(  189) = (   0.0000000   0.7359691  -0.1547219), wk =   0.0029155
        k(  190) = (   0.1426139   0.8586307  -0.1547219), wk =   0.0058309
        k(  191) = (  -1.7113665  -0.7359691  -0.1547219), wk =   0.0058309
        k(  192) = (  -1.5687527  -0.6133076  -0.1547219), wk =   0.0058309
        k(  193) = (  -1.4261388  -0.4906461  -0.1547219), wk =   0.0058309
        k(  194) = (  -1.2835249  -0.3679846  -0.1547219), wk =   0.0058309
        k(  195) = (  -1.1409110  -0.2453230  -0.1547219), wk =   0.0058309
        k(  196) = (  -0.9982971  -0.1226615  -0.1547219), wk =   0.0058309
        k(  197) = (  -0.8556833   0.0000000  -0.1547219), wk =   0.0029155
        k(  198) = (   0.0000000   0.6133076  -0.1160414), wk =   0.0029155
        k(  199) = (   0.1426139   0.7359691  -0.1160414), wk =   0.0058309
        k(  200) = (   0.2852278   0.8586307  -0.1160414), wk =   0.0058309
        k(  201) = (  -1.5687527  -0.7359691  -0.1160414), wk =   0.0058309
        k(  202) = (  -1.4261388  -0.6133076  -0.1160414), wk =   0.0058309
        k(  203) = (  -1.2835249  -0.4906461  -0.1160414), wk =   0.0058309
        k(  204) = (  -1.1409110  -0.3679846  -0.1160414), wk =   0.0058309
        k(  205) = (  -0.9982971  -0.2453230  -0.1160414), wk =   0.0058309
        k(  206) = (  -0.8556833  -0.1226615  -0.1160414), wk =   0.0058309
        k(  207) = (  -0.7130694   0.0000000  -0.1160414), wk =   0.0029155
        k(  208) = (  -0.0000000   0.4906461  -0.0773609), wk =   0.0029155
        k(  209) = (   0.1426139   0.6133076  -0.0773609), wk =   0.0058309
        k(  210) = (   0.2852278   0.7359691  -0.0773609), wk =   0.0058309
        k(  211) = (   0.4278416   0.8586307  -0.0773609), wk =   0.0058309
        k(  212) = (  -1.4261388  -0.7359691  -0.0773609), wk =   0.0058309
        k(  213) = (  -1.2835249  -0.6133076  -0.0773609), wk =   0.0058309
        k(  214) = (  -1.1409110  -0.4906461  -0.0773609), wk =   0.0058309
        k(  215) = (  -0.9982971  -0.3679846  -0.0773609), wk =   0.0058309
        k(  216) = (  -0.8556833  -0.2453230  -0.0773609), wk =   0.0058309
        k(  217) = (  -0.7130694  -0.1226615  -0.0773609), wk =   0.0058309
        k(  218) = (  -0.5704555   0.0000000  -0.0773609), wk =   0.0029155
        k(  219) = (  -0.0000000   0.3679846  -0.0386805), wk =   0.0029155
        k(  220) = (   0.1426139   0.4906461  -0.0386805), wk =   0.0058309
        k(  221) = (   0.2852278   0.6133076  -0.0386805), wk =   0.0058309
        k(  222) = (   0.4278416   0.7359691  -0.0386805), wk =   0.0058309
        k(  223) = (   0.5704555   0.8586307  -0.0386805), wk =   0.0058309
        k(  224) = (  -1.2835249  -0.7359691  -0.0386805), wk =   0.0058309
        k(  225) = (  -1.1409110  -0.6133076  -0.0386805), wk =   0.0058309
        k(  226) = (  -0.9982971  -0.4906461  -0.0386805), wk =   0.0058309
        k(  227) = (  -0.8556833  -0.3679846  -0.0386805), wk =   0.0058309
        k(  228) = (  -0.7130694  -0.2453230  -0.0386805), wk =   0.0058309
        k(  229) = (  -0.5704555  -0.1226615  -0.0386805), wk =   0.0058309
        k(  230) = (  -0.4278416   0.0000000  -0.0386805), wk =   0.0029155
        k(  231) = (   0.0000000   0.2453230   0.0000000), wk =   0.0014577
        k(  232) = (   0.1426139   0.3679846   0.0000000), wk =   0.0029155
        k(  233) = (   0.2852278   0.4906461   0.0000000), wk =   0.0029155
        k(  234) = (   0.4278416   0.6133076   0.0000000), wk =   0.0029155
        k(  235) = (   0.5704555   0.7359691   0.0000000), wk =   0.0029155
        k(  236) = (   0.7130694   0.8586307   0.0000000), wk =   0.0029155
        k(  237) = (  -1.1409110  -0.7359691   0.0000000), wk =   0.0029155
        k(  238) = (  -0.9982971  -0.6133076   0.0000000), wk =   0.0029155
        k(  239) = (  -0.8556833  -0.4906461   0.0000000), wk =   0.0029155
        k(  240) = (  -0.7130694  -0.3679846   0.0000000), wk =   0.0029155
        k(  241) = (  -0.5704555  -0.2453230   0.0000000), wk =   0.0029155
        k(  242) = (  -0.4278416  -0.1226615   0.0000000), wk =   0.0029155
        k(  243) = (  -0.2852278   0.0000000   0.0000000), wk =   0.0014577
        k(  244) = (   0.5704555   0.4906461   0.1547219), wk =   0.0058309
        k(  245) = (   0.7130694   0.6133076   0.1547219), wk =   0.0058309
        k(  246) = (   0.8556833   0.7359691   0.1547219), wk =   0.0058309
        k(  247) = (   0.9982971   0.8586307   0.1547219), wk =   0.0029155
        k(  248) = (  -0.0000000  -0.0000000   0.1547219), wk =   0.0014577
        k(  249) = (   0.7130694   0.4906461   0.1934024), wk =   0.0058309
        k(  250) = (   0.8556833   0.6133076   0.1934024), wk =   0.0058309
        k(  251) = (   0.9982971   0.7359691   0.1934024), wk =   0.0058309
        k(  252) = (   1.1409110   0.8586307   0.1934024), wk =   0.0058309
        k(  253) = (   1.2835249   0.9812922   0.1934024), wk =   0.0058309
        k(  254) = (  -0.5704555  -0.6133076   0.1934024), wk =   0.0058309
        k(  255) = (  -0.0000000  -0.1226615   0.1934024), wk =   0.0029155
        k(  256) = (   0.1426139  -0.0000000   0.1934024), wk =   0.0029155
        k(  257) = (   0.8556833   0.4906461   0.2320828), wk =   0.0058309
        k(  258) = (   0.9982971   0.6133076   0.2320828), wk =   0.0058309
        k(  259) = (   1.1409110   0.7359691   0.2320828), wk =   0.0058309
        k(  260) = (   1.2835249   0.8586307   0.2320828), wk =   0.0058309
        k(  261) = (   1.4261388   0.9812922   0.2320828), wk =   0.0058309
        k(  262) = (   0.0000000  -0.2453230   0.2320828), wk =   0.0029155
        k(  263) = (   0.1426139  -0.1226615   0.2320828), wk =   0.0058309
        k(  264) = (   0.2852278  -0.0000000   0.2320828), wk =   0.0029155
        k(  265) = (   0.9982971   0.4906461   0.2707633), wk =   0.0029155
        k(  266) = (   1.1409110   0.6133076   0.2707633), wk =   0.0058309
        k(  267) = (   1.2835249   0.7359691   0.2707633), wk =   0.0058309
        k(  268) = (   1.4261388   0.8586307   0.2707633), wk =   0.0029155
        k(  269) = (   0.0000000  -0.3679846   0.2707633), wk =   0.0029155
        k(  270) = (   0.1426139  -0.2453230   0.2707633), wk =   0.0058309
        k(  271) = (   0.2852278  -0.1226615   0.2707633), wk =   0.0058309
        k(  272) = (   0.4278416  -0.0000000   0.2707633), wk =   0.0029155
        k(  273) = (   1.2835249   0.6133076   0.3094438), wk =   0.0058309
        k(  274) = (  -0.0000000  -0.4906461   0.3094438), wk =   0.0029155
        k(  275) = (   0.1426139  -0.3679846   0.3094438), wk =   0.0058309
        k(  276) = (   0.2852278  -0.2453230   0.3094438), wk =   0.0058309
        k(  277) = (   0.4278416  -0.1226615   0.3094438), wk =   0.0058309
        k(  278) = (   0.5704555  -0.0000000   0.3094438), wk =   0.0029155
        k(  279) = (  -1.9965943  -0.6133076  -0.1934024), wk =   0.0029155
        k(  280) = (  -1.8539804  -0.4906461  -0.1934024), wk =   0.0058309
        k(  281) = (  -1.7113665  -0.3679846  -0.1934024), wk =   0.0058309
        k(  282) = (  -1.5687527  -0.2453230  -0.1934024), wk =   0.0058309
        k(  283) = (  -1.4261388  -0.1226615  -0.1934024), wk =   0.0058309
        k(  284) = (  -1.2835249  -0.0000000  -0.1934024), wk =   0.0029155
        k(  285) = (  -0.0000000   0.9812922  -0.1547219), wk =   0.0029155
        k(  286) = (  -1.8539804  -0.6133076  -0.1547219), wk =   0.0058309
        k(  287) = (  -1.7113665  -0.4906461  -0.1547219), wk =   0.0058309
        k(  288) = (  -1.5687527  -0.3679846  -0.1547219), wk =   0.0058309
        k(  289) = (  -1.4261388  -0.2453230  -0.1547219), wk =   0.0058309
        k(  290) = (  -1.2835249  -0.1226615  -0.1547219), wk =   0.0058309
        k(  291) = (  -1.1409110  -0.0000000  -0.1547219), wk =   0.0029155
        k(  292) = (   0.0000000   0.8586307  -0.1160414), wk =   0.0029155
        k(  293) = (   0.1426139   0.9812922  -0.1160414), wk =   0.0058309
        k(  294) = (  -1.7113665  -0.6133076  -0.1160414), wk =   0.0058309
        k(  295) = (  -1.5687527  -0.4906461  -0.1160414), wk =   0.0058309
        k(  296) = (  -1.4261388  -0.3679846  -0.1160414), wk =   0.0058309
        k(  297) = (  -1.2835249  -0.2453230  -0.1160414), wk =   0.0058309
        k(  298) = (  -1.1409110  -0.1226615  -0.1160414), wk =   0.0058309
        k(  299) = (  -0.9982971  -0.0000000  -0.1160414), wk =   0.0029155
        k(  300) = (   0.0000000   0.7359691  -0.0773609), wk =   0.0029155
        k(  301) = (   0.1426139   0.8586307  -0.0773609), wk =   0.0058309
        k(  302) = (   0.2852278   0.9812922  -0.0773609), wk =   0.0058309
        k(  303) = (  -1.5687527  -0.6133076  -0.0773609), wk =   0.0058309
        k(  304) = (  -1.4261388  -0.4906461  -0.0773609), wk =   0.0058309
        k(  305) = (  -1.2835249  -0.3679846  -0.0773609), wk =   0.0058309
        k(  306) = (  -1.1409110  -0.2453230  -0.0773609), wk =   0.0058309
        k(  307) = (  -0.9982971  -0.1226615  -0.0773609), wk =   0.0058309
        k(  308) = (  -0.8556833  -0.0000000  -0.0773609), wk =   0.0029155
        k(  309) = (  -0.0000000   0.6133076  -0.0386805), wk =   0.0029155
        k(  310) = (   0.1426139   0.7359691  -0.0386805), wk =   0.0058309
        k(  311) = (   0.2852278   0.8586307  -0.0386805), wk =   0.0058309
        k(  312) = (   0.4278416   0.9812922  -0.0386805), wk =   0.0058309
        k(  313) = (  -1.4261388  -0.6133076  -0.0386805), wk =   0.0058309
        k(  314) = (  -1.2835249  -0.4906461  -0.0386805), wk =   0.0058309
        k(  315) = (  -1.1409110  -0.3679846  -0.0386805), wk =   0.0058309
        k(  316) = (  -0.9982971  -0.2453230  -0.0386805), wk =   0.0058309
        k(  317) = (  -0.8556833  -0.1226615  -0.0386805), wk =   0.0058309
        k(  318) = (  -0.7130694  -0.0000000  -0.0386805), wk =   0.0029155
        k(  319) = (  -0.0000000   0.4906461  -0.0000000), wk =   0.0014577
        k(  320) = (   0.1426139   0.6133076  -0.0000000), wk =   0.0029155
        k(  321) = (   0.2852278   0.7359691  -0.0000000), wk =   0.0029155
        k(  322) = (   0.4278416   0.8586307  -0.0000000), wk =   0.0029155
        k(  323) = (   0.5704555   0.9812922  -0.0000000), wk =   0.0029155
        k(  324) = (  -1.2835249  -0.6133076  -0.0000000), wk =   0.0029155
        k(  325) = (  -1.1409110  -0.4906461  -0.0000000), wk =   0.0029155
        k(  326) = (  -0.9982971  -0.3679846  -0.0000000), wk =   0.0029155
        k(  327) = (  -0.8556833  -0.2453230  -0.0000000), wk =   0.0029155
        k(  328) = (  -0.7130694  -0.1226615  -0.0000000), wk =   0.0029155
        k(  329) = (  -0.5704555  -0.0000000  -0.0000000), wk =   0.0014577
        k(  330) = (   0.8556833   0.7359691   0.2320828), wk =   0.0058309
        k(  331) = (   0.9982971   0.8586307   0.2320828), wk =   0.0029155
        k(  332) = (  -0.0000000   0.0000000   0.2320828), wk =   0.0014577
        k(  333) = (   0.9982971   0.7359691   0.2707633), wk =   0.0029155
        k(  334) = (   1.1409110   0.8586307   0.2707633), wk =   0.0029155
        k(  335) = (   0.0000000  -0.1226615   0.2707633), wk =   0.0029155
        k(  336) = (   0.1426139   0.0000000   0.2707633), wk =   0.0029155
        k(  337) = (   0.0000000  -0.2453230   0.3094438), wk =   0.0029155
        k(  338) = (   0.1426139  -0.1226615   0.3094438), wk =   0.0058309
        k(  339) = (   0.2852278   0.0000000   0.3094438), wk =   0.0029155
        k(  340) = (  -0.0000000  -0.3679846   0.3481243), wk =   0.0029155
        k(  341) = (   0.1426139  -0.2453230   0.3481243), wk =   0.0058309
        k(  342) = (   0.2852278  -0.1226615   0.3481243), wk =   0.0058309
        k(  343) = (   0.4278416   0.0000000   0.3481243), wk =   0.0029155
        k(  344) = (  -1.9965943  -0.4906461  -0.1547219), wk =   0.0029155
        k(  345) = (  -1.8539804  -0.3679846  -0.1547219), wk =   0.0058309
        k(  346) = (  -1.7113665  -0.2453230  -0.1547219), wk =   0.0058309
        k(  347) = (  -1.5687527  -0.1226615  -0.1547219), wk =   0.0058309
        k(  348) = (  -1.4261388   0.0000000  -0.1547219), wk =   0.0029155
        k(  349) = (  -0.0000000   1.1039537  -0.1160414), wk =   0.0029155
        k(  350) = (  -1.8539804  -0.4906461  -0.1160414), wk =   0.0058309
        k(  351) = (  -1.7113665  -0.3679846  -0.1160414), wk =   0.0058309
        k(  352) = (  -1.5687527  -0.2453230  -0.1160414), wk =   0.0058309
        k(  353) = (  -1.4261388  -0.1226615  -0.1160414), wk =   0.0058309
        k(  354) = (  -1.2835249   0.0000000  -0.1160414), wk =   0.0029155
        k(  355) = (   0.0000000   0.9812922  -0.0773609), wk =   0.0029155
        k(  356) = (   0.1426139   1.1039537  -0.0773609), wk =   0.0058309
        k(  357) = (  -1.7113665  -0.4906461  -0.0773609), wk =   0.0058309
        k(  358) = (  -1.5687527  -0.3679846  -0.0773609), wk =   0.0058309
        k(  359) = (  -1.4261388  -0.2453230  -0.0773609), wk =   0.0058309
        k(  360) = (  -1.2835249  -0.1226615  -0.0773609), wk =   0.0058309
        k(  361) = (  -1.1409110   0.0000000  -0.0773609), wk =   0.0029155
        k(  362) = (   0.0000000   0.8586307  -0.0386805), wk =   0.0029155
        k(  363) = (   0.1426139   0.9812922  -0.0386805), wk =   0.0058309
        k(  364) = (   0.2852278   1.1039537  -0.0386805), wk =   0.0058309
        k(  365) = (  -1.5687527  -0.4906461  -0.0386805), wk =   0.0058309
        k(  366) = (  -1.4261388  -0.3679846  -0.0386805), wk =   0.0058309
        k(  367) = (  -1.2835249  -0.2453230  -0.0386805), wk =   0.0058309
        k(  368) = (  -1.1409110  -0.1226615  -0.0386805), wk =   0.0058309
        k(  369) = (  -0.9982971   0.0000000  -0.0386805), wk =   0.0029155
        k(  370) = (  -0.0000000   0.7359691  -0.0000000), wk =   0.0014577
        k(  371) = (   0.1426139   0.8586307  -0.0000000), wk =   0.0029155
        k(  372) = (   0.2852278   0.9812922  -0.0000000), wk =   0.0029155
        k(  373) = (   0.4278416   1.1039537  -0.0000000), wk =   0.0029155
        k(  374) = (  -1.4261388  -0.4906461  -0.0000000), wk =   0.0029155
        k(  375) = (  -1.2835249  -0.3679846  -0.0000000), wk =   0.0029155
        k(  376) = (  -1.1409110  -0.2453230  -0.0000000), wk =   0.0029155
        k(  377) = (  -0.9982971  -0.1226615  -0.0000000), wk =   0.0029155
        k(  378) = (  -0.8556833   0.0000000  -0.0000000), wk =   0.0014577
        k(  379) = (   0.0000000   0.0000000   0.3094438), wk =   0.0014577
        k(  380) = (   0.0000000  -0.1226615   0.3481243), wk =   0.0029155
        k(  381) = (   0.1426139   0.0000000   0.3481243), wk =   0.0029155
        k(  382) = (  -0.0000000  -0.2453230   0.3868047), wk =   0.0029155
        k(  383) = (   0.1426139  -0.1226615   0.3868047), wk =   0.0058309
        k(  384) = (   0.2852278   0.0000000   0.3868047), wk =   0.0029155
        k(  385) = (  -1.9965943  -0.3679846  -0.1160414), wk =   0.0029155
        k(  386) = (  -1.8539804  -0.2453230  -0.1160414), wk =   0.0058309
        k(  387) = (  -1.7113665  -0.1226615  -0.1160414), wk =   0.0058309
        k(  388) = (  -1.5687527   0.0000000  -0.1160414), wk =   0.0029155
        k(  389) = (  -0.0000000   1.2266152  -0.0773609), wk =   0.0029155
        k(  390) = (  -1.8539804  -0.3679846  -0.0773609), wk =   0.0058309
        k(  391) = (  -1.7113665  -0.2453230  -0.0773609), wk =   0.0058309
        k(  392) = (  -1.5687527  -0.1226615  -0.0773609), wk =   0.0058309
        k(  393) = (  -1.4261388   0.0000000  -0.0773609), wk =   0.0029155
        k(  394) = (   0.0000000   1.1039537  -0.0386805), wk =   0.0029155
        k(  395) = (   0.1426139   1.2266152  -0.0386805), wk =   0.0058309
        k(  396) = (  -1.7113665  -0.3679846  -0.0386805), wk =   0.0058309
        k(  397) = (  -1.5687527  -0.2453230  -0.0386805), wk =   0.0058309
        k(  398) = (  -1.4261388  -0.1226615  -0.0386805), wk =   0.0058309
        k(  399) = (  -1.2835249   0.0000000  -0.0386805), wk =   0.0029155
        k(  400) = (   0.0000000   0.9812922   0.0000000), wk =   0.0014577
        k(  401) = (   0.1426139   1.1039537   0.0000000), wk =   0.0029155
        k(  402) = (   0.2852278   1.2266152   0.0000000), wk =   0.0029155
        k(  403) = (  -1.5687527  -0.3679846   0.0000000), wk =   0.0029155
        k(  404) = (  -1.4261388  -0.2453230   0.0000000), wk =   0.0029155
        k(  405) = (  -1.2835249  -0.1226615   0.0000000), wk =   0.0029155
        k(  406) = (  -1.1409110   0.0000000   0.0000000), wk =   0.0014577
        k(  407) = (   0.0000000   0.0000000   0.3868047), wk =   0.0014577
        k(  408) = (  -0.0000000  -0.1226615   0.4254852), wk =   0.0029155
        k(  409) = (   0.1426139   0.0000000   0.4254852), wk =   0.0029155
        k(  410) = (  -1.9965943  -0.2453230  -0.0773609), wk =   0.0029155
        k(  411) = (  -1.8539804  -0.1226615  -0.0773609), wk =   0.0058309
        k(  412) = (  -1.7113665   0.0000000  -0.0773609), wk =   0.0029155
        k(  413) = (  -0.0000000   1.3492768  -0.0386805), wk =   0.0029155
        k(  414) = (  -1.8539804  -0.2453230  -0.0386805), wk =   0.0058309
        k(  415) = (  -1.7113665  -0.1226615  -0.0386805), wk =   0.0058309
        k(  416) = (  -1.5687527   0.0000000  -0.0386805), wk =   0.0029155
        k(  417) = (   0.0000000   1.2266152   0.0000000), wk =   0.0014577
        k(  418) = (   0.1426139   1.3492768   0.0000000), wk =   0.0029155
        k(  419) = (  -1.7113665  -0.2453230   0.0000000), wk =   0.0029155
        k(  420) = (  -1.5687527  -0.1226615   0.0000000), wk =   0.0029155
        k(  421) = (  -1.4261388   0.0000000   0.0000000), wk =   0.0014577
        k(  422) = (  -0.0000000   0.0000000   0.4641657), wk =   0.0014577
        k(  423) = (  -1.9965943  -0.1226615  -0.0386805), wk =   0.0029155
        k(  424) = (  -1.8539804   0.0000000  -0.0386805), wk =   0.0029155
        k(  425) = (  -0.0000000   1.4719383  -0.0000000), wk =   0.0014577
        k(  426) = (  -1.8539804  -0.1226615  -0.0000000), wk =   0.0029155
        k(  427) = (  -1.7113665   0.0000000  -0.0000000), wk =   0.0014577
        k(  428) = (  -1.9965943  -1.7172613  -0.5415266), wk =   0.0007289

                       cryst. coord.
        k(    1) = (   0.0000000   0.0000000   0.0000000), wk =   0.0007289
        k(    2) = (  -0.0000000   0.0000000   0.0714286), wk =   0.0029155
        k(    3) = (  -0.0000000   0.0000000   0.1428571), wk =   0.0029155
        k(    4) = (  -0.0000000   0.0000000   0.2142857), wk =   0.0029155
        k(    5) = (  -0.0000000   0.0000000   0.2857143), wk =   0.0029155
        k(    6) = (  -0.0000000   0.0000000   0.3571429), wk =   0.0029155
        k(    7) = (  -0.0000000   0.0000000   0.4285714), wk =   0.0029155
        k(    8) = (   0.0000000   0.0000000  -0.5000000), wk =   0.0014577
        k(    9) = (  -0.0000000   0.0714286   0.0000000), wk =   0.0029155
        k(   10) = (  -0.0000000   0.0714286   0.0714286), wk =   0.0058309
        k(   11) = (  -0.0000000   0.0714286   0.1428571), wk =   0.0058309
        k(   12) = (  -0.0000000   0.0714286   0.2142857), wk =   0.0058309
        k(   13) = (  -0.0000000   0.0714286   0.2857143), wk =   0.0058309
        k(   14) = (  -0.0000000   0.0714286   0.3571429), wk =   0.0058309
        k(   15) = (  -0.0000000   0.0714286   0.4285714), wk =   0.0058309
        k(   16) = (   0.0000000   0.0714286  -0.5000000), wk =   0.0058309
        k(   17) = (   0.0000000   0.0714286  -0.4285714), wk =   0.0058309
        k(   18) = (   0.0000000   0.0714286  -0.3571429), wk =   0.0058309
        k(   19) = (   0.0000000   0.0714286  -0.2857143), wk =   0.0058309
        k(   20) = (   0.0000000   0.0714286  -0.2142857), wk =   0.0058309
        k(   21) = (   0.0000000   0.0714286  -0.1428571), wk =   0.0058309
        k(   22) = (   0.0000000   0.0714286  -0.0714286), wk =   0.0029155
        k(   23) = (  -0.0000000   0.1428571   0.0000000), wk =   0.0029155
        k(   24) = (  -0.0000000   0.1428571   0.0714286), wk =   0.0058309
        k(   25) = (  -0.0000000   0.1428571   0.1428571), wk =   0.0058309
        k(   26) = (  -0.0000000   0.1428571   0.2142857), wk =   0.0058309
        k(   27) = (  -0.0000000   0.1428571   0.2857143), wk =   0.0058309
        k(   28) = (   0.0000000   0.1428571   0.3571429), wk =   0.0058309
        k(   29) = (  -0.0000000   0.1428571   0.4285714), wk =   0.0058309
        k(   30) = (   0.0000000   0.1428571  -0.5000000), wk =   0.0058309
        k(   31) = (   0.0000000   0.1428571  -0.4285714), wk =   0.0058309
        k(   32) = (   0.0000000   0.1428571  -0.3571429), wk =   0.0058309
        k(   33) = (   0.0000000   0.1428571  -0.2857143), wk =   0.0058309
        k(   34) = (   0.0000000   0.1428571  -0.2142857), wk =   0.0058309
        k(   35) = (   0.0000000   0.1428571  -0.1428571), wk =   0.0029155
        k(   36) = (   0.0000000   0.1428571  -0.0714286), wk =   0.0058309
        k(   37) = (  -0.0000000   0.2142857   0.0000000), wk =   0.0029155
        k(   38) = (  -0.0000000   0.2142857   0.0714286), wk =   0.0058309
        k(   39) = (  -0.0000000   0.2142857   0.1428571), wk =   0.0058309
        k(   40) = (  -0.0000000   0.2142857   0.2142857), wk =   0.0058309
        k(   41) = (  -0.0000000   0.2142857   0.2857143), wk =   0.0058309
        k(   42) = (  -0.0000000   0.2142857   0.3571429), wk =   0.0058309
        k(   43) = (   0.0000000   0.2142857   0.4285714), wk =   0.0058309
        k(   44) = (   0.0000000   0.2142857  -0.5000000), wk =   0.0058309
        k(   45) = (   0.0000000   0.2142857  -0.4285714), wk =   0.0058309
        k(   46) = (   0.0000000   0.2142857  -0.3571429), wk =   0.0058309
        k(   47) = (   0.0000000   0.2142857  -0.2857143), wk =   0.0058309
        k(   48) = (   0.0000000   0.2142857  -0.2142857), wk =   0.0029155
        k(   49) = (   0.0000000   0.2142857  -0.1428571), wk =   0.0058309
        k(   50) = (  -0.0000000   0.2142857  -0.0714286), wk =   0.0058309
        k(   51) = (  -0.0000000   0.2857143   0.0000000), wk =   0.0029155
        k(   52) = (  -0.0000000   0.2857143   0.0714286), wk =   0.0058309
        k(   53) = (  -0.0000000   0.2857143   0.1428571), wk =   0.0058309
        k(   54) = (   0.0000000   0.2857143   0.2142857), wk =   0.0058309
        k(   55) = (  -0.0000000   0.2857143   0.2857143), wk =   0.0058309
        k(   56) = (  -0.0000000   0.2857143   0.3571429), wk =   0.0058309
        k(   57) = (  -0.0000000   0.2857143   0.4285714), wk =   0.0058309
        k(   58) = (   0.0000000   0.2857143  -0.5000000), wk =   0.0058309
        k(   59) = (   0.0000000   0.2857143  -0.4285714), wk =   0.0058309
        k(   60) = (   0.0000000   0.2857143  -0.3571429), wk =   0.0058309
        k(   61) = (   0.0000000   0.2857143  -0.2857143), wk =   0.0029155
        k(   62) = (   0.0000000   0.2857143  -0.2142857), wk =   0.0058309
        k(   63) = (   0.0000000   0.2857143  -0.1428571), wk =   0.0058309
        k(   64) = (  -0.0000000   0.2857143  -0.0714286), wk =   0.0058309
        k(   65) = (  -0.0000000   0.3571429   0.0000000), wk =   0.0029155
        k(   66) = (  -0.0000000   0.3571429   0.0714286), wk =   0.0058309
        k(   67) = (   0.0000000   0.3571429   0.1428571), wk =   0.0058309
        k(   68) = (  -0.0000000   0.3571429   0.2142857), wk =   0.0058309
        k(   69) = (  -0.0000000   0.3571429   0.2857143), wk =   0.0058309
        k(   70) = (  -0.0000000   0.3571429   0.3571429), wk =   0.0058309
        k(   71) = (   0.0000000   0.3571429   0.4285714), wk =   0.0058309
        k(   72) = (   0.0000000   0.3571429  -0.5000000), wk =   0.0058309
        k(   73) = (   0.0000000   0.3571429  -0.4285714), wk =   0.0058309
        k(   74) = (   0.0000000   0.3571429  -0.3571429), wk =   0.0029155
        k(   75) = (   0.0000000   0.3571429  -0.2857143), wk =   0.0058309
        k(   76) = (   0.0000000   0.3571429  -0.2142857), wk =   0.0058309
        k(   77) = (  -0.0000000   0.3571429  -0.1428571), wk =   0.0058309
        k(   78) = (  -0.0000000   0.3571429  -0.0714286), wk =   0.0058309
        k(   79) = (  -0.0000000   0.4285714   0.0000000), wk =   0.0029155
        k(   80) = (  -0.0000000   0.4285714   0.0714286), wk =   0.0058309
        k(   81) = (  -0.0000000   0.4285714   0.1428571), wk =   0.0058309
        k(   82) = (   0.0000000   0.4285714   0.2142857), wk =   0.0058309
        k(   83) = (  -0.0000000   0.4285714   0.2857143), wk =   0.0058309
        k(   84) = (   0.0000000   0.4285714   0.3571429), wk =   0.0058309
        k(   85) = (  -0.0000000   0.4285714   0.4285714), wk =   0.0058309
        k(   86) = (   0.0000000   0.4285714  -0.5000000), wk =   0.0058309
        k(   87) = (   0.0000000   0.4285714  -0.4285714), wk =   0.0029155
        k(   88) = (   0.0000000   0.4285714  -0.3571429), wk =   0.0058309
        k(   89) = (   0.0000000   0.4285714  -0.2857143), wk =   0.0058309
        k(   90) = (   0.0000000   0.4285714  -0.2142857), wk =   0.0058309
        k(   91) = (  -0.0000000   0.4285714  -0.1428571), wk =   0.0058309
        k(   92) = (  -0.0000000   0.4285714  -0.0714286), wk =   0.0058309
        k(   93) = (   0.0000000  -0.5000000   0.0000000), wk =   0.0014577
        k(   94) = (   0.0000000  -0.5000000   0.0714286), wk =   0.0058309
        k(   95) = (   0.0000000  -0.5000000   0.1428571), wk =   0.0058309
        k(   96) = (   0.0000000  -0.5000000   0.2142857), wk =   0.0058309
        k(   97) = (   0.0000000  -0.5000000   0.2857143), wk =   0.0058309
        k(   98) = (   0.0000000  -0.5000000   0.3571429), wk =   0.0058309
        k(   99) = (   0.0000000  -0.5000000   0.4285714), wk =   0.0058309
        k(  100) = (   0.0000000  -0.5000000  -0.5000000), wk =   0.0014577
        k(  101) = (   0.0714286   0.0714286   0.0714286), wk =   0.0058309
        k(  102) = (   0.0714286   0.0714286   0.1428571), wk =   0.0058309
        k(  103) = (   0.0714286   0.0714286   0.2142857), wk =   0.0058309
        k(  104) = (   0.0714286   0.0714286   0.2857143), wk =   0.0058309
        k(  105) = (   0.0714286   0.0714286   0.3571429), wk =   0.0058309
        k(  106) = (   0.0714286   0.0714286   0.4285714), wk =   0.0029155
        k(  107) = (   0.0714286   0.0714286  -0.0714286), wk =   0.0014577
        k(  108) = (   0.0714286   0.1428571   0.0714286), wk =   0.0058309
        k(  109) = (   0.0714286   0.1428571   0.1428571), wk =   0.0058309
        k(  110) = (   0.0714286   0.1428571   0.2142857), wk =   0.0058309
        k(  111) = (   0.0714286   0.1428571   0.2857143), wk =   0.0058309
        k(  112) = (   0.0714286   0.1428571   0.3571429), wk =   0.0058309
        k(  113) = (   0.0714286   0.1428571   0.4285714), wk =   0.0058309
        k(  114) = (   0.0714286   0.1428571  -0.5000000), wk =   0.0058309
        k(  115) = (   0.0714286   0.1428571  -0.4285714), wk =   0.0058309
        k(  116) = (   0.0714286   0.1428571  -0.3571429), wk =   0.0058309
        k(  117) = (   0.0714286   0.1428571  -0.2857143), wk =   0.0058309
        k(  118) = (   0.0714286   0.1428571  -0.1428571), wk =   0.0029155
        k(  119) = (   0.0714286   0.1428571  -0.0714286), wk =   0.0029155
        k(  120) = (   0.0714286   0.2142857   0.0714286), wk =   0.0058309
        k(  121) = (   0.0714286   0.2142857   0.1428571), wk =   0.0058309
        k(  122) = (   0.0714286   0.2142857   0.2142857), wk =   0.0058309
        k(  123) = (   0.0714286   0.2142857   0.2857143), wk =   0.0058309
        k(  124) = (   0.0714286   0.2142857   0.3571429), wk =   0.0058309
        k(  125) = (   0.0714286   0.2142857   0.4285714), wk =   0.0058309
        k(  126) = (   0.0714286   0.2142857  -0.5000000), wk =   0.0058309
        k(  127) = (   0.0714286   0.2142857  -0.4285714), wk =   0.0058309
        k(  128) = (   0.0714286   0.2142857  -0.3571429), wk =   0.0058309
        k(  129) = (   0.0714286   0.2142857  -0.2142857), wk =   0.0029155
        k(  130) = (   0.0714286   0.2142857  -0.1428571), wk =   0.0058309
        k(  131) = (   0.0714286   0.2142857  -0.0714286), wk =   0.0029155
        k(  132) = (   0.0714286   0.2857143   0.0714286), wk =   0.0058309
        k(  133) = (   0.0714286   0.2857143   0.1428571), wk =   0.0058309
        k(  134) = (   0.0714286   0.2857143   0.2142857), wk =   0.0058309
        k(  135) = (   0.0714286   0.2857143   0.2857143), wk =   0.0058309
        k(  136) = (   0.0714286   0.2857143   0.3571429), wk =   0.0058309
        k(  137) = (   0.0714286   0.2857143   0.4285714), wk =   0.0058309
        k(  138) = (   0.0714286   0.2857143  -0.5000000), wk =   0.0058309
        k(  139) = (   0.0714286   0.2857143  -0.4285714), wk =   0.0058309
        k(  140) = (   0.0714286   0.2857143  -0.2857143), wk =   0.0029155
        k(  141) = (   0.0714286   0.2857143  -0.2142857), wk =   0.0058309
        k(  142) = (   0.0714286   0.2857143  -0.1428571), wk =   0.0058309
        k(  143) = (   0.0714286   0.2857143  -0.0714286), wk =   0.0029155
        k(  144) = (   0.0714286   0.3571429   0.0714286), wk =   0.0058309
        k(  145) = (   0.0714286   0.3571429   0.1428571), wk =   0.0058309
        k(  146) = (   0.0714286   0.3571429   0.2142857), wk =   0.0058309
        k(  147) = (   0.0714286   0.3571429   0.2857143), wk =   0.0058309
        k(  148) = (   0.0714286   0.3571429   0.3571429), wk =   0.0058309
        k(  149) = (   0.0714286   0.3571429   0.4285714), wk =   0.0058309
        k(  150) = (   0.0714286   0.3571429  -0.5000000), wk =   0.0058309
        k(  151) = (   0.0714286   0.3571429  -0.3571429), wk =   0.0029155
        k(  152) = (   0.0714286   0.3571429  -0.2857143), wk =   0.0058309
        k(  153) = (   0.0714286   0.3571429  -0.2142857), wk =   0.0058309
        k(  154) = (   0.0714286   0.3571429  -0.1428571), wk =   0.0058309
        k(  155) = (   0.0714286   0.3571429  -0.0714286), wk =   0.0029155
        k(  156) = (   0.0714286   0.4285714   0.0714286), wk =   0.0029155
        k(  157) = (   0.0714286   0.4285714   0.1428571), wk =   0.0058309
        k(  158) = (   0.0714286   0.4285714   0.2142857), wk =   0.0058309
        k(  159) = (   0.0714286   0.4285714   0.2857143), wk =   0.0058309
        k(  160) = (   0.0714286   0.4285714   0.3571429), wk =   0.0058309
        k(  161) = (   0.0714286   0.4285714   0.4285714), wk =   0.0029155
        k(  162) = (   0.0714286   0.4285714  -0.4285714), wk =   0.0029155
        k(  163) = (   0.0714286   0.4285714  -0.3571429), wk =   0.0058309
        k(  164) = (   0.0714286   0.4285714  -0.2857143), wk =   0.0058309
        k(  165) = (   0.0714286   0.4285714  -0.2142857), wk =   0.0058309
        k(  166) = (   0.0714286   0.4285714  -0.1428571), wk =   0.0058309
        k(  167) = (   0.0714286   0.4285714  -0.0714286), wk =   0.0029155
        k(  168) = (   0.0714286  -0.5000000   0.1428571), wk =   0.0058309
        k(  169) = (   0.0714286  -0.5000000   0.2142857), wk =   0.0058309
        k(  170) = (   0.0714286  -0.5000000   0.2857143), wk =   0.0058309
        k(  171) = (   0.0714286  -0.5000000  -0.5000000), wk =   0.0029155
        k(  172) = (   0.0714286  -0.5000000  -0.4285714), wk =   0.0058309
        k(  173) = (   0.0714286  -0.5000000  -0.3571429), wk =   0.0058309
        k(  174) = (   0.0714286  -0.5000000  -0.2857143), wk =   0.0058309
        k(  175) = (   0.0714286  -0.5000000  -0.2142857), wk =   0.0058309
        k(  176) = (   0.0714286  -0.5000000  -0.1428571), wk =   0.0058309
        k(  177) = (   0.0714286  -0.5000000  -0.0714286), wk =   0.0029155
        k(  178) = (   0.0714286  -0.4285714   0.1428571), wk =   0.0058309
        k(  179) = (   0.0714286  -0.4285714   0.2142857), wk =   0.0058309
        k(  180) = (   0.0714286  -0.4285714   0.4285714), wk =   0.0029155
        k(  181) = (   0.0714286  -0.4285714  -0.5000000), wk =   0.0058309
        k(  182) = (   0.0714286  -0.4285714  -0.4285714), wk =   0.0058309
        k(  183) = (   0.0714286  -0.4285714  -0.3571429), wk =   0.0058309
        k(  184) = (   0.0714286  -0.4285714  -0.2857143), wk =   0.0058309
        k(  185) = (   0.0714286  -0.4285714  -0.2142857), wk =   0.0058309
        k(  186) = (   0.0714286  -0.4285714  -0.1428571), wk =   0.0058309
        k(  187) = (   0.0714286  -0.4285714  -0.0714286), wk =   0.0029155
        k(  188) = (   0.0714286  -0.3571429   0.1428571), wk =   0.0058309
        k(  189) = (   0.0714286  -0.3571429   0.3571429), wk =   0.0029155
        k(  190) = (   0.0714286  -0.3571429   0.4285714), wk =   0.0058309
        k(  191) = (   0.0714286  -0.3571429  -0.5000000), wk =   0.0058309
        k(  192) = (   0.0714286  -0.3571429  -0.4285714), wk =   0.0058309
        k(  193) = (   0.0714286  -0.3571429  -0.3571429), wk =   0.0058309
        k(  194) = (   0.0714286  -0.3571429  -0.2857143), wk =   0.0058309
        k(  195) = (   0.0714286  -0.3571429  -0.2142857), wk =   0.0058309
        k(  196) = (   0.0714286  -0.3571429  -0.1428571), wk =   0.0058309
        k(  197) = (   0.0714286  -0.3571429  -0.0714286), wk =   0.0029155
        k(  198) = (   0.0714286  -0.2857143   0.2857143), wk =   0.0029155
        k(  199) = (   0.0714286  -0.2857143   0.3571429), wk =   0.0058309
        k(  200) = (   0.0714286  -0.2857143   0.4285714), wk =   0.0058309
        k(  201) = (   0.0714286  -0.2857143  -0.5000000), wk =   0.0058309
        k(  202) = (   0.0714286  -0.2857143  -0.4285714), wk =   0.0058309
        k(  203) = (   0.0714286  -0.2857143  -0.3571429), wk =   0.0058309
        k(  204) = (   0.0714286  -0.2857143  -0.2857143), wk =   0.0058309
        k(  205) = (   0.0714286  -0.2857143  -0.2142857), wk =   0.0058309
        k(  206) = (   0.0714286  -0.2857143  -0.1428571), wk =   0.0058309
        k(  207) = (   0.0714286  -0.2857143  -0.0714286), wk =   0.0029155
        k(  208) = (   0.0714286  -0.2142857   0.2142857), wk =   0.0029155
        k(  209) = (   0.0714286  -0.2142857   0.2857143), wk =   0.0058309
        k(  210) = (   0.0714286  -0.2142857   0.3571429), wk =   0.0058309
        k(  211) = (   0.0714286  -0.2142857   0.4285714), wk =   0.0058309
        k(  212) = (   0.0714286  -0.2142857  -0.5000000), wk =   0.0058309
        k(  213) = (   0.0714286  -0.2142857  -0.4285714), wk =   0.0058309
        k(  214) = (   0.0714286  -0.2142857  -0.3571429), wk =   0.0058309
        k(  215) = (   0.0714286  -0.2142857  -0.2857143), wk =   0.0058309
        k(  216) = (   0.0714286  -0.2142857  -0.2142857), wk =   0.0058309
        k(  217) = (   0.0714286  -0.2142857  -0.1428571), wk =   0.0058309
        k(  218) = (   0.0714286  -0.2142857  -0.0714286), wk =   0.0029155
        k(  219) = (   0.0714286  -0.1428571   0.1428571), wk =   0.0029155
        k(  220) = (   0.0714286  -0.1428571   0.2142857), wk =   0.0058309
        k(  221) = (   0.0714286  -0.1428571   0.2857143), wk =   0.0058309
        k(  222) = (   0.0714286  -0.1428571   0.3571429), wk =   0.0058309
        k(  223) = (   0.0714286  -0.1428571   0.4285714), wk =   0.0058309
        k(  224) = (   0.0714286  -0.1428571  -0.5000000), wk =   0.0058309
        k(  225) = (   0.0714286  -0.1428571  -0.4285714), wk =   0.0058309
        k(  226) = (   0.0714286  -0.1428571  -0.3571429), wk =   0.0058309
        k(  227) = (   0.0714286  -0.1428571  -0.2857143), wk =   0.0058309
        k(  228) = (   0.0714286  -0.1428571  -0.2142857), wk =   0.0058309
        k(  229) = (   0.0714286  -0.1428571  -0.1428571), wk =   0.0058309
        k(  230) = (   0.0714286  -0.1428571  -0.0714286), wk =   0.0029155
        k(  231) = (   0.0714286  -0.0714286   0.0714286), wk =   0.0014577
        k(  232) = (   0.0714286  -0.0714286   0.1428571), wk =   0.0029155
        k(  233) = (   0.0714286  -0.0714286   0.2142857), wk =   0.0029155
        k(  234) = (   0.0714286  -0.0714286   0.2857143), wk =   0.0029155
        k(  235) = (   0.0714286  -0.0714286   0.3571429), wk =   0.0029155
        k(  236) = (   0.0714286  -0.0714286   0.4285714), wk =   0.0029155
        k(  237) = (   0.0714286  -0.0714286  -0.5000000), wk =   0.0029155
        k(  238) = (   0.0714286  -0.0714286  -0.4285714), wk =   0.0029155
        k(  239) = (   0.0714286  -0.0714286  -0.3571429), wk =   0.0029155
        k(  240) = (   0.0714286  -0.0714286  -0.2857143), wk =   0.0029155
        k(  241) = (   0.0714286  -0.0714286  -0.2142857), wk =   0.0029155
        k(  242) = (   0.0714286  -0.0714286  -0.1428571), wk =   0.0029155
        k(  243) = (   0.0714286  -0.0714286  -0.0714286), wk =   0.0014577
        k(  244) = (   0.1428571   0.1428571   0.1428571), wk =   0.0058309
        k(  245) = (   0.1428571   0.1428571   0.2142857), wk =   0.0058309
        k(  246) = (   0.1428571   0.1428571   0.2857143), wk =   0.0058309
        k(  247) = (   0.1428571   0.1428571   0.3571429), wk =   0.0029155
        k(  248) = (   0.1428571   0.1428571  -0.1428571), wk =   0.0014577
        k(  249) = (   0.1428571   0.2142857   0.1428571), wk =   0.0058309
        k(  250) = (   0.1428571   0.2142857   0.2142857), wk =   0.0058309
        k(  251) = (   0.1428571   0.2142857   0.2857143), wk =   0.0058309
        k(  252) = (   0.1428571   0.2142857   0.3571429), wk =   0.0058309
        k(  253) = (   0.1428571   0.2142857   0.4285714), wk =   0.0058309
        k(  254) = (   0.1428571   0.2142857  -0.5000000), wk =   0.0058309
        k(  255) = (   0.1428571   0.2142857  -0.2142857), wk =   0.0029155
        k(  256) = (   0.1428571   0.2142857  -0.1428571), wk =   0.0029155
        k(  257) = (   0.1428571   0.2857143   0.1428571), wk =   0.0058309
        k(  258) = (   0.1428571   0.2857143   0.2142857), wk =   0.0058309
        k(  259) = (   0.1428571   0.2857143   0.2857143), wk =   0.0058309
        k(  260) = (   0.1428571   0.2857143   0.3571429), wk =   0.0058309
        k(  261) = (   0.1428571   0.2857143   0.4285714), wk =   0.0058309
        k(  262) = (   0.1428571   0.2857143  -0.2857143), wk =   0.0029155
        k(  263) = (   0.1428571   0.2857143  -0.2142857), wk =   0.0058309
        k(  264) = (   0.1428571   0.2857143  -0.1428571), wk =   0.0029155
        k(  265) = (   0.1428571   0.3571429   0.1428571), wk =   0.0029155
        k(  266) = (   0.1428571   0.3571429   0.2142857), wk =   0.0058309
        k(  267) = (   0.1428571   0.3571429   0.2857143), wk =   0.0058309
        k(  268) = (   0.1428571   0.3571429   0.3571429), wk =   0.0029155
        k(  269) = (   0.1428571   0.3571429  -0.3571429), wk =   0.0029155
        k(  270) = (   0.1428571   0.3571429  -0.2857143), wk =   0.0058309
        k(  271) = (   0.1428571   0.3571429  -0.2142857), wk =   0.0058309
        k(  272) = (   0.1428571   0.3571429  -0.1428571), wk =   0.0029155
        k(  273) = (   0.1428571   0.4285714   0.2142857), wk =   0.0058309
        k(  274) = (   0.1428571   0.4285714  -0.4285714), wk =   0.0029155
        k(  275) = (   0.1428571   0.4285714  -0.3571429), wk =   0.0058309
        k(  276) = (   0.1428571   0.4285714  -0.2857143), wk =   0.0058309
        k(  277) = (   0.1428571   0.4285714  -0.2142857), wk =   0.0058309
        k(  278) = (   0.1428571   0.4285714  -0.1428571), wk =   0.0029155
        k(  279) = (   0.1428571  -0.5000000  -0.5000000), wk =   0.0029155
        k(  280) = (   0.1428571  -0.5000000  -0.4285714), wk =   0.0058309
        k(  281) = (   0.1428571  -0.5000000  -0.3571429), wk =   0.0058309
        k(  282) = (   0.1428571  -0.5000000  -0.2857143), wk =   0.0058309
        k(  283) = (   0.1428571  -0.5000000  -0.2142857), wk =   0.0058309
        k(  284) = (   0.1428571  -0.5000000  -0.1428571), wk =   0.0029155
        k(  285) = (   0.1428571  -0.4285714   0.4285714), wk =   0.0029155
        k(  286) = (   0.1428571  -0.4285714  -0.5000000), wk =   0.0058309
        k(  287) = (   0.1428571  -0.4285714  -0.4285714), wk =   0.0058309
        k(  288) = (   0.1428571  -0.4285714  -0.3571429), wk =   0.0058309
        k(  289) = (   0.1428571  -0.4285714  -0.2857143), wk =   0.0058309
        k(  290) = (   0.1428571  -0.4285714  -0.2142857), wk =   0.0058309
        k(  291) = (   0.1428571  -0.4285714  -0.1428571), wk =   0.0029155
        k(  292) = (   0.1428571  -0.3571429   0.3571429), wk =   0.0029155
        k(  293) = (   0.1428571  -0.3571429   0.4285714), wk =   0.0058309
        k(  294) = (   0.1428571  -0.3571429  -0.5000000), wk =   0.0058309
        k(  295) = (   0.1428571  -0.3571429  -0.4285714), wk =   0.0058309
        k(  296) = (   0.1428571  -0.3571429  -0.3571429), wk =   0.0058309
        k(  297) = (   0.1428571  -0.3571429  -0.2857143), wk =   0.0058309
        k(  298) = (   0.1428571  -0.3571429  -0.2142857), wk =   0.0058309
        k(  299) = (   0.1428571  -0.3571429  -0.1428571), wk =   0.0029155
        k(  300) = (   0.1428571  -0.2857143   0.2857143), wk =   0.0029155
        k(  301) = (   0.1428571  -0.2857143   0.3571429), wk =   0.0058309
        k(  302) = (   0.1428571  -0.2857143   0.4285714), wk =   0.0058309
        k(  303) = (   0.1428571  -0.2857143  -0.5000000), wk =   0.0058309
        k(  304) = (   0.1428571  -0.2857143  -0.4285714), wk =   0.0058309
        k(  305) = (   0.1428571  -0.2857143  -0.3571429), wk =   0.0058309
        k(  306) = (   0.1428571  -0.2857143  -0.2857143), wk =   0.0058309
        k(  307) = (   0.1428571  -0.2857143  -0.2142857), wk =   0.0058309
        k(  308) = (   0.1428571  -0.2857143  -0.1428571), wk =   0.0029155
        k(  309) = (   0.1428571  -0.2142857   0.2142857), wk =   0.0029155
        k(  310) = (   0.1428571  -0.2142857   0.2857143), wk =   0.0058309
        k(  311) = (   0.1428571  -0.2142857   0.3571429), wk =   0.0058309
        k(  312) = (   0.1428571  -0.2142857   0.4285714), wk =   0.0058309
        k(  313) = (   0.1428571  -0.2142857  -0.5000000), wk =   0.0058309
        k(  314) = (   0.1428571  -0.2142857  -0.4285714), wk =   0.0058309
        k(  315) = (   0.1428571  -0.2142857  -0.3571429), wk =   0.0058309
        k(  316) = (   0.1428571  -0.2142857  -0.2857143), wk =   0.0058309
        k(  317) = (   0.1428571  -0.2142857  -0.2142857), wk =   0.0058309
        k(  318) = (   0.1428571  -0.2142857  -0.1428571), wk =   0.0029155
        k(  319) = (   0.1428571  -0.1428571   0.1428571), wk =   0.0014577
        k(  320) = (   0.1428571  -0.1428571   0.2142857), wk =   0.0029155
        k(  321) = (   0.1428571  -0.1428571   0.2857143), wk =   0.0029155
        k(  322) = (   0.1428571  -0.1428571   0.3571429), wk =   0.0029155
        k(  323) = (   0.1428571  -0.1428571   0.4285714), wk =   0.0029155
        k(  324) = (   0.1428571  -0.1428571  -0.5000000), wk =   0.0029155
        k(  325) = (   0.1428571  -0.1428571  -0.4285714), wk =   0.0029155
        k(  326) = (   0.1428571  -0.1428571  -0.3571429), wk =   0.0029155
        k(  327) = (   0.1428571  -0.1428571  -0.2857143), wk =   0.0029155
        k(  328) = (   0.1428571  -0.1428571  -0.2142857), wk =   0.0029155
        k(  329) = (   0.1428571  -0.1428571  -0.1428571), wk =   0.0014577
        k(  330) = (   0.2142857   0.2142857   0.2142857), wk =   0.0058309
        k(  331) = (   0.2142857   0.2142857   0.2857143), wk =   0.0029155
        k(  332) = (   0.2142857   0.2142857  -0.2142857), wk =   0.0014577
        k(  333) = (   0.2142857   0.2857143   0.2142857), wk =   0.0029155
        k(  334) = (   0.2142857   0.2857143   0.2857143), wk =   0.0029155
        k(  335) = (   0.2142857   0.2857143  -0.2857143), wk =   0.0029155
        k(  336) = (   0.2142857   0.2857143  -0.2142857), wk =   0.0029155
        k(  337) = (   0.2142857   0.3571429  -0.3571429), wk =   0.0029155
        k(  338) = (   0.2142857   0.3571429  -0.2857143), wk =   0.0058309
        k(  339) = (   0.2142857   0.3571429  -0.2142857), wk =   0.0029155
        k(  340) = (   0.2142857   0.4285714  -0.4285714), wk =   0.0029155
        k(  341) = (   0.2142857   0.4285714  -0.3571429), wk =   0.0058309
        k(  342) = (   0.2142857   0.4285714  -0.2857143), wk =   0.0058309
        k(  343) = (   0.2142857   0.4285714  -0.2142857), wk =   0.0029155
        k(  344) = (   0.2142857  -0.5000000  -0.5000000), wk =   0.0029155
        k(  345) = (   0.2142857  -0.5000000  -0.4285714), wk =   0.0058309
        k(  346) = (   0.2142857  -0.5000000  -0.3571429), wk =   0.0058309
        k(  347) = (   0.2142857  -0.5000000  -0.2857143), wk =   0.0058309
        k(  348) = (   0.2142857  -0.5000000  -0.2142857), wk =   0.0029155
        k(  349) = (   0.2142857  -0.4285714   0.4285714), wk =   0.0029155
        k(  350) = (   0.2142857  -0.4285714  -0.5000000), wk =   0.0058309
        k(  351) = (   0.2142857  -0.4285714  -0.4285714), wk =   0.0058309
        k(  352) = (   0.2142857  -0.4285714  -0.3571429), wk =   0.0058309
        k(  353) = (   0.2142857  -0.4285714  -0.2857143), wk =   0.0058309
        k(  354) = (   0.2142857  -0.4285714  -0.2142857), wk =   0.0029155
        k(  355) = (   0.2142857  -0.3571429   0.3571429), wk =   0.0029155
        k(  356) = (   0.2142857  -0.3571429   0.4285714), wk =   0.0058309
        k(  357) = (   0.2142857  -0.3571429  -0.5000000), wk =   0.0058309
        k(  358) = (   0.2142857  -0.3571429  -0.4285714), wk =   0.0058309
        k(  359) = (   0.2142857  -0.3571429  -0.3571429), wk =   0.0058309
        k(  360) = (   0.2142857  -0.3571429  -0.2857143), wk =   0.0058309
        k(  361) = (   0.2142857  -0.3571429  -0.2142857), wk =   0.0029155
        k(  362) = (   0.2142857  -0.2857143   0.2857143), wk =   0.0029155
        k(  363) = (   0.2142857  -0.2857143   0.3571429), wk =   0.0058309
        k(  364) = (   0.2142857  -0.2857143   0.4285714), wk =   0.0058309
        k(  365) = (   0.2142857  -0.2857143  -0.5000000), wk =   0.0058309
        k(  366) = (   0.2142857  -0.2857143  -0.4285714), wk =   0.0058309
        k(  367) = (   0.2142857  -0.2857143  -0.3571429), wk =   0.0058309
        k(  368) = (   0.2142857  -0.2857143  -0.2857143), wk =   0.0058309
        k(  369) = (   0.2142857  -0.2857143  -0.2142857), wk =   0.0029155
        k(  370) = (   0.2142857  -0.2142857   0.2142857), wk =   0.0014577
        k(  371) = (   0.2142857  -0.2142857   0.2857143), wk =   0.0029155
        k(  372) = (   0.2142857  -0.2142857   0.3571429), wk =   0.0029155
        k(  373) = (   0.2142857  -0.2142857   0.4285714), wk =   0.0029155
        k(  374) = (   0.2142857  -0.2142857  -0.5000000), wk =   0.0029155
        k(  375) = (   0.2142857  -0.2142857  -0.4285714), wk =   0.0029155
        k(  376) = (   0.2142857  -0.2142857  -0.3571429), wk =   0.0029155
        k(  377) = (   0.2142857  -0.2142857  -0.2857143), wk =   0.0029155
        k(  378) = (   0.2142857  -0.2142857  -0.2142857), wk =   0.0014577
        k(  379) = (   0.2857143   0.2857143  -0.2857143), wk =   0.0014577
        k(  380) = (   0.2857143   0.3571429  -0.3571429), wk =   0.0029155
        k(  381) = (   0.2857143   0.3571429  -0.2857143), wk =   0.0029155
        k(  382) = (   0.2857143   0.4285714  -0.4285714), wk =   0.0029155
        k(  383) = (   0.2857143   0.4285714  -0.3571429), wk =   0.0058309
        k(  384) = (   0.2857143   0.4285714  -0.2857143), wk =   0.0029155
        k(  385) = (   0.2857143  -0.5000000  -0.5000000), wk =   0.0029155
        k(  386) = (   0.2857143  -0.5000000  -0.4285714), wk =   0.0058309
        k(  387) = (   0.2857143  -0.5000000  -0.3571429), wk =   0.0058309
        k(  388) = (   0.2857143  -0.5000000  -0.2857143), wk =   0.0029155
        k(  389) = (   0.2857143  -0.4285714   0.4285714), wk =   0.0029155
        k(  390) = (   0.2857143  -0.4285714  -0.5000000), wk =   0.0058309
        k(  391) = (   0.2857143  -0.4285714  -0.4285714), wk =   0.0058309
        k(  392) = (   0.2857143  -0.4285714  -0.3571429), wk =   0.0058309
        k(  393) = (   0.2857143  -0.4285714  -0.2857143), wk =   0.0029155
        k(  394) = (   0.2857143  -0.3571429   0.3571429), wk =   0.0029155
        k(  395) = (   0.2857143  -0.3571429   0.4285714), wk =   0.0058309
        k(  396) = (   0.2857143  -0.3571429  -0.5000000), wk =   0.0058309
        k(  397) = (   0.2857143  -0.3571429  -0.4285714), wk =   0.0058309
        k(  398) = (   0.2857143  -0.3571429  -0.3571429), wk =   0.0058309
        k(  399) = (   0.2857143  -0.3571429  -0.2857143), wk =   0.0029155
        k(  400) = (   0.2857143  -0.2857143   0.2857143), wk =   0.0014577
        k(  401) = (   0.2857143  -0.2857143   0.3571429), wk =   0.0029155
        k(  402) = (   0.2857143  -0.2857143   0.4285714), wk =   0.0029155
        k(  403) = (   0.2857143  -0.2857143  -0.5000000), wk =   0.0029155
        k(  404) = (   0.2857143  -0.2857143  -0.4285714), wk =   0.0029155
        k(  405) = (   0.2857143  -0.2857143  -0.3571429), wk =   0.0029155
        k(  406) = (   0.2857143  -0.2857143  -0.2857143), wk =   0.0014577
        k(  407) = (   0.3571429   0.3571429  -0.3571429), wk =   0.0014577
        k(  408) = (   0.3571429   0.4285714  -0.4285714), wk =   0.0029155
        k(  409) = (   0.3571429   0.4285714  -0.3571429), wk =   0.0029155
        k(  410) = (   0.3571429  -0.5000000  -0.5000000), wk =   0.0029155
        k(  411) = (   0.3571429  -0.5000000  -0.4285714), wk =   0.0058309
        k(  412) = (   0.3571429  -0.5000000  -0.3571429), wk =   0.0029155
        k(  413) = (   0.3571429  -0.4285714   0.4285714), wk =   0.0029155
        k(  414) = (   0.3571429  -0.4285714  -0.5000000), wk =   0.0058309
        k(  415) = (   0.3571429  -0.4285714  -0.4285714), wk =   0.0058309
        k(  416) = (   0.3571429  -0.4285714  -0.3571429), wk =   0.0029155
        k(  417) = (   0.3571429  -0.3571429   0.3571429), wk =   0.0014577
        k(  418) = (   0.3571429  -0.3571429   0.4285714), wk =   0.0029155
        k(  419) = (   0.3571429  -0.3571429  -0.5000000), wk =   0.0029155
        k(  420) = (   0.3571429  -0.3571429  -0.4285714), wk =   0.0029155
        k(  421) = (   0.3571429  -0.3571429  -0.3571429), wk =   0.0014577
        k(  422) = (   0.4285714   0.4285714  -0.4285714), wk =   0.0014577
        k(  423) = (   0.4285714  -0.5000000  -0.5000000), wk =   0.0029155
        k(  424) = (   0.4285714  -0.5000000  -0.4285714), wk =   0.0029155
        k(  425) = (   0.4285714  -0.4285714   0.4285714), wk =   0.0014577
        k(  426) = (   0.4285714  -0.4285714  -0.5000000), wk =   0.0029155
        k(  427) = (   0.4285714  -0.4285714  -0.4285714), wk =   0.0014577
        k(  428) = (  -0.5000000  -0.5000000  -0.5000000), wk =   0.0007289

     Dense  grid:   135907 G-vectors     FFT dimensions: ( 100, 100, 100)

     Smooth grid:    34429 G-vectors     FFT dimensions: (  64,  64,  64)

     Dynamical RAM for                 wfc:       0.03 MB

     Dynamical RAM for     wfc (w. buffer):      12.23 MB

     Dynamical RAM for           str. fact:       0.13 MB

     Dynamical RAM for           local pot:       0.00 MB

     Dynamical RAM for          nlocal pot:       0.06 MB

     Dynamical RAM for                qrad:       5.90 MB

     Dynamical RAM for          rho,v,vnew:       0.82 MB

     Dynamical RAM for               rhoin:       0.27 MB

     Dynamical RAM for            rho*nmix:       0.69 MB

     Dynamical RAM for           G-vectors:       0.17 MB

     Dynamical RAM for          h,s,v(r/c):       0.08 MB

     Dynamical RAM for          <psi|beta>:       0.01 MB

     Dynamical RAM for                 psi:       0.06 MB

     Dynamical RAM for                hpsi:       0.06 MB

     Dynamical RAM for                spsi:       0.06 MB

     Dynamical RAM for      wfcinit/wfcrot:       0.08 MB

     Dynamical RAM for           addusdens:       8.12 MB

     Dynamical RAM for          addusforce:       8.24 MB

     Dynamical RAM for         addusstress:       8.69 MB

     Estimated static dynamical RAM per process >      21.58 MB

     Estimated max dynamical RAM per process >      30.27 MB

     Estimated total dynamical RAM >       1.42 GB

     Initial potential from superposition of free atoms

     starting charge   32.99867, renormalised to   33.00000
     Starting wfcs are   25 randomized atomic wfcs
     Checking if some PAW data can be deallocated... 
       PAW data deallocated on   36 nodes for type:  1
       PAW data deallocated on   24 nodes for type:  2
       PAW data deallocated on   36 nodes for type:  3

     total cpu time spent up to now is        4.8 secs

     Self-consistent Calculation

     iteration #  1     ecut=    60.00 Ry     beta= 0.70
     Davidson diagonalization with overlap
     ethr =  1.00E-02,  avg # of iterations =  2.2

     total cpu time spent up to now is       14.8 secs

     total energy              =    -534.52576195 Ry
     estimated scf accuracy    <       0.76082314 Ry

     iteration #  2     ecut=    60.00 Ry     beta= 0.70
     Davidson diagonalization with overlap
     ethr =  2.31E-03,  avg # of iterations =  3.7

     total cpu time spent up to now is       27.2 secs

     total energy              =    -533.62756237 Ry
     estimated scf accuracy    <       8.36709422 Ry

     iteration #  3     ecut=    60.00 Ry     beta= 0.70
     Davidson diagonalization with overlap
     ethr =  2.31E-03,  avg # of iterations =  3.5

     total cpu time spent up to now is       38.5 secs

     total energy              =    -534.97143009 Ry
     estimated scf accuracy    <       0.12449499 Ry

     iteration #  4     ecut=    60.00 Ry     beta= 0.70
     Davidson diagonalization with overlap
     ethr =  3.77E-04,  avg # of iterations =  1.3

     total cpu time spent up to now is       47.4 secs

     total energy              =    -534.96465863 Ry
     estimated scf accuracy    <       0.05957183 Ry

     iteration #  5     ecut=    60.00 Ry     beta= 0.70
     Davidson diagonalization with overlap
     ethr =  1.81E-04,  avg # of iterations =  1.5

     total cpu time spent up to now is       56.4 secs

     total energy              =    -534.96108603 Ry
     estimated scf accuracy    <       0.02350741 Ry

     iteration #  6     ecut=    60.00 Ry     beta= 0.70
     Davidson diagonalization with overlap
     ethr =  7.12E-05,  avg # of iterations =  1.9

     total cpu time spent up to now is       65.7 secs

     total energy              =    -534.96367799 Ry
     estimated scf accuracy    <       0.00063683 Ry

     iteration #  7     ecut=    60.00 Ry     beta= 0.70
     Davidson diagonalization with overlap
     ethr =  1.93E-06,  avg # of iterations =  3.4

     total cpu time spent up to now is       77.8 secs

     total energy              =    -534.96388309 Ry
     estimated scf accuracy    <       0.00018805 Ry

     iteration #  8     ecut=    60.00 Ry     beta= 0.70
     Davidson diagonalization with overlap
     ethr =  5.70E-07,  avg # of iterations =  1.1

     total cpu time spent up to now is       86.6 secs

     total energy              =    -534.96388151 Ry
     estimated scf accuracy    <       0.00003487 Ry

     iteration #  9     ecut=    60.00 Ry     beta= 0.70
     Davidson diagonalization with overlap
     ethr =  1.06E-07,  avg # of iterations =  2.1

     total cpu time spent up to now is       96.6 secs

     total energy              =    -534.96388965 Ry
     estimated scf accuracy    <       0.00000107 Ry

     iteration # 10     ecut=    60.00 Ry     beta= 0.70
     Davidson diagonalization with overlap
     ethr =  3.24E-09,  avg # of iterations =  3.1

     total cpu time spent up to now is      107.7 secs

     total energy              =    -534.96388997 Ry
     estimated scf accuracy    <          8.4E-09 Ry

     iteration # 11     ecut=    60.00 Ry     beta= 0.70
     Davidson diagonalization with overlap
     ethr =  2.55E-11,  avg # of iterations =  5.0

     total cpu time spent up to now is      123.5 secs

     total energy              =    -534.96388998 Ry
     estimated scf accuracy    <       0.00000003 Ry

     iteration # 12     ecut=    60.00 Ry     beta= 0.70
     Davidson diagonalization with overlap
     ethr =  2.55E-11,  avg # of iterations =  2.7

[...]

   -49.8599 -26.1378 -25.7931 -25.7116 -12.3648  -9.2905  -9.0511   1.2959
     2.2528   2.6615   2.6644   2.8604   3.2934   3.5811   3.8670   4.0203
     5.5802   7.3369   7.5798   8.9792  10.0093

     occupation numbers 
     1.0000   1.0000   1.0000   1.0000   1.0000   1.0000   1.0000   1.0000
     1.0000   1.0000   1.0000   1.0000   1.0000   1.0000   1.0000   1.0000
     1.0000  -0.0000  -0.0000  -0.0000  -0.0000

          k = 0.1426 0.0000 0.4255 (  4284 PWs)   bands (ev):

   -49.8594 -26.1277 -25.7916 -25.7227 -12.4186  -9.2810  -9.0391   1.3259
     2.1302   2.6694   2.7802   3.1770   3.3469   3.4866   3.8344   3.9550
     5.7753   7.1406   7.4731   8.8857   9.8970

     occupation numbers 
     1.0000   1.0000   1.0000   1.0000   1.0000   1.0000   1.0000   1.0000
     1.0000   1.0000   1.0000   1.0000   1.0000   1.0000   1.0000   1.0000
     1.0000  -0.0009  -0.0000  -0.0000  -0.0000

          k =-1.9966-0.2453-0.0774 (  4281 PWs)   bands (ev):

   -49.8595 -26.1639 -25.7921 -25.7107 -12.1939  -9.2381  -9.0817   1.3378
     2.1197   2.2443   2.4071   2.6821   3.1653   3.3135   3.9043   4.1439
     5.5977   7.7237   7.8075   8.9918  10.3687

     occupation numbers 
     1.0000   1.0000   1.0000   1.0000   1.0000   1.0000   1.0000   1.0000
     1.0000   1.0000   1.0000   1.0000   1.0000   1.0000   1.0000   1.0000
     1.0000  -0.0000  -0.0000  -0.0000  -0.0000

          k =-1.8540-0.1227-0.0774 (  4277 PWs)   bands (ev):

   -49.8592 -26.1370 -25.7912 -25.7224 -12.3590  -9.2450  -9.0688   1.4051
     2.0438   2.5956   2.6662   3.0232   3.1497   3.5970   3.8754   3.8774
     5.7827   7.2890   7.5544   8.9056  10.0665

     occupation numbers 
     1.0000   1.0000   1.0000   1.0000   1.0000   1.0000   1.0000   1.0000
     1.0000   1.0000   1.0000   1.0000   1.0000   1.0000   1.0000   1.0000
     1.0000  -0.0000  -0.0000  -0.0000  -0.0000

          k =-1.7114 0.0000-0.0774 (  4277 PWs)   bands (ev):

   -49.8574 -26.1253 -25.7862 -25.7528 -12.4025  -9.2157  -9.0210   1.4354
     1.7992   2.6348   2.7779   2.8137   3.4576   3.6785   3.7806   3.8035
     6.2081   7.0187   7.3706   8.7309   9.9472

     occupation numbers 
     1.0000   1.0000   1.0000   1.0000   1.0000   1.0000   1.0000   1.0000
     1.0000   1.0000   1.0000   1.0000   1.0000   1.0000   1.0000   1.0000
     1.0000  -0.0142  -0.0000  -0.0000  -0.0000

          k =-0.0000 1.3493-0.0387 (  4288 PWs)   bands (ev):

   -49.8589 -26.2011 -25.7908 -25.7096 -11.9357  -9.1776  -9.1084   1.2200
     1.5977   1.8367   2.2557   2.6922   2.9665   3.0760   3.8330   4.3198
     5.6218   8.1772   8.2348   8.9888  10.6963

     occupation numbers 
     1.0000   1.0000   1.0000   1.0000   1.0000   1.0000   1.0000   1.0000
     1.0000   1.0000   1.0000   1.0000   1.0000   1.0000   1.0000   1.0000
     1.0000  -0.0000  -0.0000  -0.0000  -0.0000

          k =-1.8540-0.2453-0.0387 (  4284 PWs)   bands (ev):

   -49.8588 -26.1630 -25.7902 -25.7215 -12.1883  -9.1964  -9.0945   1.4195
     2.0018   2.2387   2.2712   2.8874   3.0043   3.3529   3.7259   4.1634
     5.7982   7.6769   7.7814   8.9181  10.4195

     occupation numbers 
     1.0000   1.0000   1.0000   1.0000   1.0000   1.0000   1.0000   1.0000
     1.0000   1.0000   1.0000   1.0000   1.0000   1.0000   1.0000   1.0000
     1.0000  -0.0000  -0.0000  -0.0000  -0.0000

          k =-1.7114-0.1227-0.0387 (  4281 PWs)   bands (ev):

   -49.8572 -26.1346 -25.7859 -25.7525 -12.3431  -9.1921  -9.0371   1.5175
     1.7039   2.5884   2.6495   2.7512   3.2650   3.5401   3.7451   3.9602
     6.2163   7.1662   7.4545   8.7423  10.1040

     occupation numbers 
     1.0000   1.0000   1.0000   1.0000   1.0000   1.0000   1.0000   1.0000
     1.0000   1.0000   1.0000   1.0000   1.0000   1.0000   1.0000   1.0000
     1.0001  -0.0004  -0.0000  -0.0000  -0.0000

          k =-1.5688 0.0000-0.0387 (  4282 PWs)   bands (ev):

   -49.8545 -26.1219 -25.7961 -25.7785 -12.3795  -9.1599  -8.9517   1.3277
     1.6272   2.2556   2.6587   2.8703   3.6013   3.6712   3.7210   3.8676
     6.7199   6.8727   7.1972   8.6667   9.9138

     occupation numbers 
     1.0000   1.0000   1.0000   1.0000   1.0000   1.0000   1.0000   1.0000
     1.0000   1.0000   1.0000   1.0000   1.0000   1.0000   1.0000   1.0000
     0.5193  -0.0136  -0.0002  -0.0000  -0.0000

          k = 0.0000 1.2266 0.0000 (  4307 PWs)   bands (ev):

   -49.8582 -26.2419 -25.7892 -25.7082 -11.6303  -9.1515  -9.0958   0.6116
     1.3460   1.4342   2.3301   2.6928   2.7470   2.9142   3.8205   4.3646
     5.6452   8.6382   8.7673   8.9707  10.8810

     occupation numbers 
     1.0000   1.0000   1.0000   1.0000   1.0000   1.0000   1.0000   1.0000
     1.0000   1.0000   1.0000   1.0000   1.0000   1.0000   1.0000   1.0000
     1.0000  -0.0000  -0.0000  -0.0000  -0.0000

          k = 0.1426 1.3493 0.0000 (  4283 PWs)   bands (ev):

   -49.8581 -26.2002 -25.7889 -25.7203 -11.9302  -9.1416  -9.1147   1.2497
     1.6354   1.8296   2.0572   2.7788   2.8669   3.1962   3.6153   4.3186
     5.8173   8.1516   8.1906   8.9221  10.7477

     occupation numbers 
     1.0000   1.0000   1.0000   1.0000   1.0000   1.0000   1.0000   1.0000
     1.0000   1.0000   1.0000   1.0000   1.0000   1.0000   1.0000   1.0000
     1.0000  -0.0000  -0.0000  -0.0000  -0.0000

          k =-1.7114-0.2453 0.0000 (  4273 PWs)   bands (ev):

   -49.8567 -26.1606 -25.7849 -25.7516 -12.1726  -9.1606  -9.0450   1.5214
     1.6578   2.2624   2.3049   2.6371   3.1199   3.2562   3.5879   4.1931
     6.2265   7.5559   7.6999   8.7634  10.4602

     occupation numbers 
     1.0000   1.0000   1.0000   1.0000   1.0000   1.0000   1.0000   1.0000
     1.0000   1.0000   1.0000   1.0000   1.0000   1.0000   1.0000   1.0000
     1.0001  -0.0000  -0.0000  -0.0000  -0.0000

          k =-1.5688-0.1227 0.0000 (  4270 PWs)   bands (ev):

   -49.8542 -26.1312 -25.7957 -25.7782 -12.3201  -9.1496  -8.9537   1.3451
     1.6054   2.2244   2.5832   2.7540   3.4311   3.4333   3.7239   4.0355
     6.7243   7.0181   7.2972   8.6745  10.0677

     occupation numbers 
     1.0000   1.0000   1.0000   1.0000   1.0000   1.0000   1.0000   1.0000
     1.0000   1.0000   1.0000   1.0000   1.0000   1.0000   1.0000   1.0000
     0.4963  -0.0143  -0.0000  -0.0000  -0.0000

          k =-1.4261 0.0000 0.0000 (  4292 PWs)   bands (ev):

   -49.8513 -26.1181 -25.8437 -25.7700 -12.3539  -9.1118  -8.8577   1.1331
     1.3456   2.0683   2.5772   2.9499   3.6431   3.6472   3.7607   3.8918
     6.7542   6.9831   7.2697   8.8009   9.8127

     occupation numbers 
     1.0000   1.0000   1.0000   1.0000   1.0000   1.0000   1.0000   1.0000
     1.0000   1.0000   1.0000   1.0000   1.0000   1.0000   1.0000   1.0000
     0.3445  -0.0236  -0.0000  -0.0000  -0.0000

          k =-0.0000 0.0000 0.4642 (  4284 PWs)   bands (ev):

   -49.8602 -26.1285 -25.7935 -25.7119 -12.4242  -9.2668  -9.0858   1.3875
     2.1983   2.6786   2.7638   3.3187   3.3368   3.3531   3.8044   4.0617
     5.5747   7.1882   7.5218   9.0019   9.8877

     occupation numbers 
     1.0000   1.0000   1.0000   1.0000   1.0000   1.0000   1.0000   1.0000
     1.0000   1.0000   1.0000   1.0000   1.0000   1.0000   1.0000   1.0000
     1.0000  -0.0002  -0.0000  -0.0000  -0.0000

          k =-1.9966-0.1227-0.0387 (  4279 PWs)   bands (ev):

   -49.8600 -26.1379 -25.7931 -25.7116 -12.3646  -9.2313  -9.1143   1.4371
     2.1429   2.6417   2.6895   2.8368   3.2770   3.6011   3.8194   3.9976
     5.5813   7.3369   7.5966   9.0122  10.0563

     occupation numbers 
     1.0000   1.0000   1.0000   1.0000   1.0000   1.0000   1.0000   1.0000
     1.0000   1.0000   1.0000   1.0000   1.0000   1.0000   1.0000   1.0000
     1.0000  -0.0000  -0.0000  -0.0000  -0.0000

          k =-1.8540 0.0000-0.0387 (  4284 PWs)   bands (ev):

   -49.8594 -26.1277 -25.7916 -25.7227 -12.4184  -9.2292  -9.0946   1.4847
     1.9745   2.6977   2.7742   3.1529   3.4038   3.4599   3.7739   3.9348
     5.7797   7.1398   7.4894   8.9162   9.9232

     occupation numbers 
     1.0000   1.0000   1.0000   1.0000   1.0000   1.0000   1.0000   1.0000
     1.0000   1.0000   1.0000   1.0000   1.0000   1.0000   1.0000   1.0000
     1.0000  -0.0009  -0.0000  -0.0000  -0.0000

          k =-0.0000 1.4719-0.0000 (  4295 PWs)   bands (ev):

   -49.8596 -26.1639 -25.7922 -25.7108 -12.1938  -9.1908  -9.1309   1.4027
     2.1483   2.2216   2.3333   2.6942   3.1601   3.2964   3.8907   4.1470
     5.5990   7.7237   7.8136   9.0074  10.3970

     occupation numbers 
     1.0000   1.0000   1.0000   1.0000   1.0000   1.0000   1.0000   1.0000
     1.0000   1.0000   1.0000   1.0000   1.0000   1.0000   1.0000   1.0000
     1.0000  -0.0000  -0.0000  -0.0000  -0.0000

          k =-1.8540-0.1227-0.0000 (  4270 PWs)   bands (ev):

   -49.8592 -26.1370 -25.7912 -25.7224 -12.3589  -9.2097  -9.1059   1.4970
     1.9572   2.6180   2.6502   3.0371   3.1249   3.6039   3.8555   3.8659
     5.7853   7.2887   7.5615   8.9208  10.0817

     occupation numbers 
     1.0000   1.0000   1.0000   1.0000   1.0000   1.0000   1.0000   1.0000
     1.0000   1.0000   1.0000   1.0000   1.0000   1.0000   1.0000   1.0000
     1.0000  -0.0000  -0.0000  -0.0000  -0.0000

          k =-1.7114 0.0000-0.0000 (  4280 PWs)   bands (ev):

   -49.8574 -26.1253 -25.7862 -25.7528 -12.4025  -9.1948  -9.0433   1.5977
     1.6305   2.6960   2.7207   2.8099   3.4937   3.7024   3.7456   3.7710
     6.2153   7.0168   7.3758   8.7364   9.9458

     occupation numbers 
     1.0000   1.0000   1.0000   1.0000   1.0000   1.0000   1.0000   1.0000
     1.0000   1.0000   1.0000   1.0000   1.0000   1.0000   1.0000   1.0000
     1.0000  -0.0146  -0.0000  -0.0000  -0.0000

          k =-1.9966-1.7173-0.5415 (  4270 PWs)   bands (ev):

   -49.8601 -26.1285 -25.7934 -25.7119 -12.4241  -9.2272  -9.1275   1.4768
     2.1107   2.6923   2.7611   3.3082   3.3194   3.3843   3.7702   4.0511
     5.5747   7.1883   7.5314   9.0195   9.9091

     occupation numbers 
     1.0000   1.0000   1.0000   1.0000   1.0000   1.0000   1.0000   1.0000
     1.0000   1.0000   1.0000   1.0000   1.0000   1.0000   1.0000   1.0000
     1.0000  -0.0002  -0.0000  -0.0000  -0.0000

     the Fermi energy is     6.7236 ev

!    total energy              =    -534.96388999 Ry

     total all-electron energy =     -9636.854133 Ry
     estimated scf accuracy    <          1.2E-11 Ry
     smearing contrib. (-TS)   =      -0.00028260 Ry
     internal energy E=F+TS    =    -534.96360738 Ry

     The total energy is F=E-TS. E is the sum of the following terms:
     one-electron contribution =     -93.92734425 Ry
     hartree contribution      =      61.20164385 Ry
     xc contribution           =     -39.53639235 Ry
     ewald contribution        =    -135.48921389 Ry
     one-center paw contrib.   =    -327.21230075 Ry
      -> PAW hartree energy AE =      29.07513202 Ry
      -> PAW hartree energy PS =     -29.04505025 Ry
      -> PAW xc energy AE      =     -17.03631579 Ry
      -> PAW xc energy PS      =       7.41205436 Ry
      -> total E_H with PAW    =      61.23172561 Ry
      -> total E_XC with PAW   =     -49.16065378 Ry

     convergence has been achieved in  13 iterations

     Forces acting on atoms (cartesian axes, Ry/au):

     atom    1 type  1   force =    -0.00000000   -0.00000000    0.00000000
     atom    2 type  2   force =     0.00000000    0.00000000    0.03571439
     atom    3 type  2   force =     0.00000000    0.00000000   -0.03571439
     atom    4 type  3   force =     0.00000000    0.00000000    0.00000000
     The non-local contrib.  to forces
     atom    1 type  1   force =     0.00000000    0.00000000    0.00000000
     atom    2 type  2   force =     0.00000000    0.00000000    0.08844152
     atom    3 type  2   force =     0.00000000    0.00000000   -0.08844152
     atom    4 type  3   force =     0.00000000    0.00000000    0.00000000
     The ionic contribution  to forces
     atom    1 type  1   force =    -0.00000000   -0.00000000    0.00000000
     atom    2 type  2   force =     0.00000001    0.00000000  -10.07462875
     atom    3 type  2   force =    -0.00000001   -0.00000000   10.07462875
     atom    4 type  3   force =    -0.00000000   -0.00000000    0.00000000
     The local contribution  to forces
     atom    1 type  1   force =    -0.00000000    0.00000000   -0.00000000
     atom    2 type  2   force =     0.00000002   -0.00000003   10.02075749
     atom    3 type  2   force =    -0.00000002    0.00000003  -10.02075749
     atom    4 type  3   force =    -0.00000000   -0.00000000   -0.00000000
     The core correction contribution to forces
     atom    1 type  1   force =    -0.00000000    0.00000000   -0.00000000
     atom    2 type  2   force =    -0.00000000    0.00000000    0.00114307
     atom    3 type  2   force =     0.00000000   -0.00000000   -0.00114307
     atom    4 type  3   force =    -0.00000000   -0.00000000   -0.00000000
     The Hubbard contrib.    to forces
     atom    1 type  1   force =     0.00000000    0.00000000    0.00000000
     atom    2 type  2   force =     0.00000000    0.00000000    0.00000000
     atom    3 type  2   force =     0.00000000    0.00000000    0.00000000
     atom    4 type  3   force =     0.00000000    0.00000000    0.00000000
     The SCF correction term to forces
     atom    1 type  1   force =     0.00000000    0.00000000    0.00000000
     atom    2 type  2   force =     0.00000000   -0.00000000    0.00000106
     atom    3 type  2   force =    -0.00000000    0.00000000   -0.00000106
     atom    4 type  3   force =     0.00000000   -0.00000000    0.00000000

     Total force =     0.050508     Total SCF correction =     0.000001


     Computing stress (Cartesian axis) and pressure

          total   stress  (Ry/bohr**3)                   (kbar)     P=      -41.72
  -0.00029661  -0.00000000   0.00000000          -43.63       -0.00        0.00
   0.00000000  -0.00027622   0.00000000            0.00      -40.63        0.00
   0.00000000  -0.00000000  -0.00027800            0.00       -0.00      -40.90

     kinetic stress (kbar)  14771.85      0.00      0.00
                                0.00  14788.31      0.00
                               -0.00     -0.00  14785.80

     local   stress (kbar) -18916.61      0.00      0.00
                                0.00 -24158.11      0.00
                                0.00      0.00   4084.75

     nonloc. stress (kbar)   8004.19      0.00      0.00
                                0.00   7927.54      0.00
                                0.00      0.00   8001.60

     hartree stress (kbar)   8382.13      0.00      0.00
                                0.00  10093.65     -0.00
                                0.00     -0.00  -2044.75

     exc-cor stress (kbar)  -1130.73     -0.00     -0.00
                               -0.00  -1121.79     -0.00
                               -0.00     -0.00  -1130.30

     corecor stress (kbar)  -2029.33      0.00      0.00
                                0.00  -2028.78      0.00
                                0.00      0.00  -2029.30

     ewald   stress (kbar)  -9125.13     -0.00     -0.00
                               -0.00  -5541.44     -0.00
                               -0.00     -0.00 -21708.70

     hubbard stress (kbar)      0.00      0.00      0.00
                                0.00      0.00      0.00
                                0.00      0.00      0.00

     DFT-D   stress (kbar)      0.00      0.00      0.00
                                0.00      0.00      0.00
                                0.00      0.00      0.00

     XDM     stress (kbar)      0.00      0.00      0.00
                                0.00      0.00      0.00
                                0.00      0.00      0.00

     dft-nl  stress (kbar)      0.00      0.00      0.00
                                0.00      0.00      0.00
                                0.00      0.00      0.00

     TS-vdW  stress (kbar)      0.00      0.00      0.00
                                0.00      0.00      0.00
                                0.00      0.00      0.00



     Writing output data file /zfs_data/gutierre/Scratch/Cl2NbO/convergence/cutoff/14x14x14/60/tmp/Cl2NbO.save/
 
     init_run     :      4.27s CPU      4.47s WALL (       1 calls)
     electrons    :    136.09s CPU    141.43s WALL (       1 calls)
     forces       :      0.53s CPU      0.54s WALL (       1 calls)
     stress       :      1.31s CPU      1.31s WALL (       1 calls)

     Called by init_run:
     wfcinit      :      3.83s CPU      4.00s WALL (       1 calls)
     wfcinit:atom :      0.03s CPU      0.03s WALL (     428 calls)
     wfcinit:wfcr :      3.71s CPU      3.87s WALL (     428 calls)
     potinit      :      0.16s CPU      0.18s WALL (       1 calls)
     hinit0       :      0.19s CPU      0.20s WALL (       1 calls)

     Called by electrons:
     c_bands      :    112.26s CPU    116.76s WALL (      13 calls)
     sum_band     :     22.33s CPU     23.11s WALL (      13 calls)
     v_of_rho     :      0.39s CPU      0.43s WALL (      14 calls)
     v_h          :      0.03s CPU      0.03s WALL (      14 calls)
     v_xc         :      0.41s CPU      0.45s WALL (      16 calls)
     newd         :      0.36s CPU      0.36s WALL (      14 calls)
     PAW_pot      :      0.72s CPU      0.74s WALL (      14 calls)
     mix_rho      :      0.05s CPU      0.05s WALL (      13 calls)

     Called by c_bands:
     init_us_2    :      1.01s CPU      1.07s WALL (   12412 calls)
     cegterg      :    109.40s CPU    113.71s WALL (    5564 calls)

     Called by sum_band:
     sum_band:wei :      0.19s CPU      0.21s WALL (      13 calls)
     sum_band:loo :     21.74s CPU     22.48s WALL (      13 calls)
     sum_band:buf :      0.09s CPU      0.09s WALL (    5564 calls)
     sum_band:ini :      0.42s CPU      0.44s WALL (    5564 calls)
     sum_band:cal :      0.49s CPU      0.51s WALL (    5564 calls)
     sum_band:bec :      0.13s CPU      0.13s WALL (    5564 calls)
     addusdens    :      0.35s CPU      0.36s WALL (      13 calls)
     addusd:skk   :      0.00s CPU      0.00s WALL (      39 calls)
     addusd:dgemm :      0.09s CPU      0.10s WALL (      39 calls)
     addusd:qvan2 :      0.24s CPU      0.24s WALL (      39 calls)

     Called by *egterg:
     cdiaghg      :     11.39s CPU     12.14s WALL (   20551 calls)
     cegterg:over :      1.55s CPU      1.62s WALL (   14987 calls)
     cegterg:upda :      0.44s CPU      0.46s WALL (   14987 calls)
     cegterg:last :      0.64s CPU      0.66s WALL (   10885 calls)
     h_psi        :     96.14s CPU     99.71s WALL (   20979 calls)
     s_psi        :      0.61s CPU      0.63s WALL (   20979 calls)
     g_psi        :      0.12s CPU      0.12s WALL (   14987 calls)

     Called by h_psi:
     h_psi:calbec :      1.64s CPU      1.70s WALL (   20979 calls)
     vloc_psi     :     93.33s CPU     96.78s WALL (   20979 calls)
     add_vuspsi   :      0.82s CPU      0.86s WALL (   20979 calls)

     General routines
     calbec       :      2.18s CPU      2.26s WALL (   28683 calls)
     fft          :      0.27s CPU      0.28s WALL (     205 calls)
     ffts         :      0.01s CPU      0.01s WALL (      27 calls)
     fftw         :    104.12s CPU    107.96s WALL (  717594 calls)
     interpolate  :      0.03s CPU      0.03s WALL (      14 calls)
 
     Parallel routines
     fft_scatt_xy :     17.06s CPU     17.67s WALL (  717826 calls)
     fft_scatt_yz :     60.43s CPU     62.61s WALL (  717826 calls)

     PAW routines
     PAW_pot      :      0.72s CPU      0.74s WALL (      14 calls)
     PAW_symme    :      0.01s CPU      0.01s WALL (      27 calls)
 
     PWSCF        :   2m24.53s CPU   2m32.23s WALL

 
   This run was terminated on:  16: 0:38  18May2022            

=------------------------------------------------------------------------------=
   JOB DONE.
=------------------------------------------------------------------------------=
