MPI startup(): Warning: I_MPI_PMI_LIBRARY will be ignored since the hydra process manager was found
MPI startup(): Warning: I_MPI_PMI_LIBRARY will be ignored since the hydra process manager was found
MPI startup(): Warning: I_MPI_PMI_LIBRARY will be ignored since the hydra process manager was found
MPI startup(): Warning: I_MPI_PMI_LIBRARY will be ignored since the hydra process manager was found
MPI startup(): Warning: I_MPI_PMI_LIBRARY will be ignored since the hydra process manager was found
MPI startup(): Warning: I_MPI_PMI_LIBRARY will be ignored since the hydra process manager was found
MPI startup(): Warning: I_MPI_PMI_LIBRARY will be ignored since the hydra process manager was found
MPI startup(): Warning: I_MPI_PMI_LIBRARY will be ignored since the hydra process manager was found
MPI startup(): Warning: I_MPI_PMI_LIBRARY will be ignored since the hydra process manager was found
MPI startup(): Warning: I_MPI_PMI_LIBRARY will be ignored since the hydra process manager was found
MPI startup(): Warning: I_MPI_PMI_LIBRARY will be ignored since the hydra process manager was found
MPI startup(): Warning: I_MPI_PMI_LIBRARY will be ignored since the hydra process manager was found
MPI startup(): Warning: I_MPI_PMI_LIBRARY will be ignored since the hydra process manager was found
MPI startup(): Warning: I_MPI_PMI_LIBRARY will be ignored since the hydra process manager was found
MPI startup(): Warning: I_MPI_PMI_LIBRARY will be ignored since the hydra process manager was found
MPI startup(): Warning: I_MPI_PMI_LIBRARY will be ignored since the hydra process manager was found
MPI startup(): Warning: I_MPI_PMI_LIBRARY will be ignored since the hydra process manager was found
MPI startup(): Warning: I_MPI_PMI_LIBRARY will be ignored since the hydra process manager was found
MPI startup(): Warning: I_MPI_PMI_LIBRARY will be ignored since the hydra process manager was found
MPI startup(): Warning: I_MPI_PMI_LIBRARY will be ignored since the hydra process manager was found
MPI startup(): Warning: I_MPI_PMI_LIBRARY will be ignored since the hydra process manager was found
MPI startup(): Warning: I_MPI_PMI_LIBRARY will be ignored since the hydra process manager was found
MPI startup(): Warning: I_MPI_PMI_LIBRARY will be ignored since the hydra process manager was found
MPI startup(): Warning: I_MPI_PMI_LIBRARY will be ignored since the hydra process manager was found

     Program PWSCF v.6.7MaX starts on 30Jul2021 at 18:34:39 

     This program is part of the open-source Quantum ESPRESSO suite
     for quantum simulation of materials; please cite
         "P. Giannozzi et al., J. Phys.:Condens. Matter 21 395502 (2009);
         "P. Giannozzi et al., J. Phys.:Condens. Matter 29 465901 (2017);
          URL http://www.quantum-espresso.org", 
     in publications or presentations arising from this work. More details at
     http://www.quantum-espresso.org/quote

     Parallel version (MPI), running on    24 processors

     MPI processes distributed on     1 nodes
     R & G space division:  proc/nbgrp/npool/nimage =      24
     Waiting for input...
     Reading input from standard input

     Current dimensions of program PWSCF are:
     Max number of different atomic species (ntypx) = 10
     Max number of k-points (npk) =  40000
     Max angular momentum in pseudopotentials (lmaxx) =  3
     file Cr.rel-pbe-spn-kjpaw_psl.1.0.0.UPF: wavefunction(s)  3S 3P 3P 3D 3D renormalized
     file Si.rel-pbe-n-kjpaw_psl.1.0.0.UPF: wavefunction(s)  3S 3P 3P renormalized

     Subspace diagonalization in iterative solution of the eigenvalue problem:
     a serial algorithm will be used

     Message from routine setup:
     using ibrav=0 with symmetry is DISCOURAGED, use correct ibrav instead
 
     Parallelization info
     --------------------
     sticks:   dense  smooth     PW     G-vecs:    dense   smooth      PW
     Min         152      61     17                 6920     1753     273
     Max         153      62     18                 6923     1756     278
     Sum        3657    1465    421               166101    42115    6619
 


     bravais-lattice index     =            0
     lattice parameter (alat)  =       8.7475  a.u.
     unit-cell volume          =     669.3575 (a.u.)^3
     number of atoms/cell      =            8
     number of atomic types    =            2
     number of electrons       =        72.00
     number of Kohn-Sham states=           86
     kinetic-energy cutoff     =      60.0000  Ry
     charge density cutoff     =     600.0000  Ry
     scf convergence threshold =      1.0E-06
     mixing beta               =       0.7000
     number of iterations used =            8  plain     mixing
     Exchange-correlation= SLA  PW   PBX  PBC
                           (   1   4   3   4   0   0   0)
     Non magnetic calculation with spin-orbit


     celldm(1)=   8.747542  celldm(2)=   0.000000  celldm(3)=   0.000000
     celldm(4)=   0.000000  celldm(5)=   0.000000  celldm(6)=   0.000000

     crystal axes: (cart. coord. in units of alat)
               a(1) = (   1.000000   0.000000   0.000000 )  
               a(2) = (   0.000000   1.000000   0.000000 )  
               a(3) = (   0.000000   0.000000   1.000000 )  

     reciprocal axes: (cart. coord. in units 2 pi/alat)
               b(1) = (  1.000000  0.000000  0.000000 )  
               b(2) = (  0.000000  1.000000  0.000000 )  
               b(3) = (  0.000000  0.000000  1.000000 )  


     PseudoPot. # 1 for Cr read from file:
     ../../../../pseudo/Cr.rel-pbe-spn-kjpaw_psl.1.0.0.UPF
     MD5 check sum: 1e24e2b5251376a8b945118fca0c7981
     Pseudo is Projector augmented-wave + core cor, Zval = 14.0
     Generated using &quot;atomic&quot; code by A. Dal Corso  v.6.3
     Shape of augmentation charge: PSQ
     Using radial grid of 1183 points, 10 beta functions with: 
                l(1) =   0
                l(2) =   0
                l(3) =   1
                l(4) =   1
                l(5) =   1
                l(6) =   1
                l(7) =   2
                l(8) =   2
                l(9) =   2
               l(10) =   2
     Q(r) pseudized with 0 coefficients 


     PseudoPot. # 2 for Si read from file:
     ../../../../pseudo/Si.rel-pbe-n-kjpaw_psl.1.0.0.UPF
     MD5 check sum: d74f6caf6830ea4c2076867160cab1b0
     Pseudo is Projector augmented-wave + core cor, Zval =  4.0
     Generated using &quot;atomic&quot; code by A. Dal Corso  v.6.3
     Shape of augmentation charge: PSQ
     Using radial grid of 1141 points, 10 beta functions with: 
                l(1) =   0
                l(2) =   0
                l(3) =   1
                l(4) =   1
                l(5) =   1
                l(6) =   1
                l(7) =   2
                l(8) =   2
                l(9) =   2
               l(10) =   2
     Q(r) pseudized with 0 coefficients 


     atomic species   valence    mass     pseudopotential
        Cr            14.00    51.99600     Cr( 1.00)
        Si             4.00    28.08500     Si( 1.00)

     12 Sym. Ops. (no inversion) found ( 9 have fractional translation)


                                    s                        frac. trans.

      isym =  1     identity                                     

 cryst.   s( 1) = (     1          0          0      )
                  (     0          1          0      )
                  (     0          0          1      )

 cart.    s( 1) = (  1.0000000  0.0000000  0.0000000 )
                  (  0.0000000  1.0000000  0.0000000 )
                  (  0.0000000  0.0000000  1.0000000 )


      isym =  2     180 deg rotation - cart. axis [0,0,1]        

 cryst.   s( 2) = (    -1          0          0      )    f =(  0.5000000 )
                  (     0         -1          0      )       (  0.0000000 )
                  (     0          0          1      )       ( -0.5000000 )

 cart.    s( 2) = ( -1.0000000  0.0000000  0.0000000 )    f =(  0.5000000 )
                  (  0.0000000 -1.0000000  0.0000000 )       (  0.0000000 )
                  (  0.0000000  0.0000000  1.0000000 )       ( -0.5000000 )


      isym =  3     180 deg rotation - cart. axis [0,1,0]        

 cryst.   s( 3) = (    -1          0          0      )    f =(  0.0000000 )
                  (     0          1          0      )       ( -0.5000000 )
                  (     0          0         -1      )       (  0.5000000 )

 cart.    s( 3) = ( -1.0000000  0.0000000  0.0000000 )    f =(  0.0000000 )
                  (  0.0000000  1.0000000  0.0000000 )       ( -0.5000000 )
                  (  0.0000000  0.0000000 -1.0000000 )       (  0.5000000 )


      isym =  4     180 deg rotation - cart. axis [1,0,0]        

 cryst.   s( 4) = (     1          0          0      )    f =(  0.5000000 )
                  (     0         -1          0      )       (  0.5000000 )
                  (     0          0         -1      )       (  0.0000000 )

 cart.    s( 4) = (  1.0000000  0.0000000  0.0000000 )    f =(  0.5000000 )
                  (  0.0000000 -1.0000000  0.0000000 )       (  0.5000000 )
                  (  0.0000000  0.0000000 -1.0000000 )       (  0.0000000 )


      isym =  5     120 deg rotation - cart. axis [-1,-1,-1]     

 cryst.   s( 5) = (     0          0          1      )
                  (     1          0          0      )
                  (     0          1          0      )

 cart.    s( 5) = (  0.0000000  1.0000000  0.0000000 )
                  (  0.0000000  0.0000000  1.0000000 )
                  (  1.0000000  0.0000000  0.0000000 )


      isym =  6     120 deg rotation - cart. axis [-1,1,1]       

 cryst.   s( 6) = (     0          0         -1      )    f =(  0.0000000 )
                  (    -1          0          0      )       ( -0.5000000 )
                  (     0          1          0      )       (  0.5000000 )

 cart.    s( 6) = (  0.0000000 -1.0000000  0.0000000 )    f =(  0.0000000 )
                  (  0.0000000  0.0000000  1.0000000 )       ( -0.5000000 )
                  ( -1.0000000  0.0000000  0.0000000 )       (  0.5000000 )


      isym =  7     120 deg rotation - cart. axis [1,1,-1]       

 cryst.   s( 7) = (     0          0         -1      )    f =(  0.5000000 )
                  (     1          0          0      )       (  0.5000000 )
                  (     0         -1          0      )       (  0.0000000 )

 cart.    s( 7) = (  0.0000000  1.0000000  0.0000000 )    f =(  0.5000000 )
                  (  0.0000000  0.0000000 -1.0000000 )       (  0.5000000 )
                  ( -1.0000000  0.0000000  0.0000000 )       (  0.0000000 )


      isym =  8     120 deg rotation - cart. axis [1,-1,1]       

 cryst.   s( 8) = (     0          0          1      )    f =(  0.5000000 )
                  (    -1          0          0      )       (  0.0000000 )
                  (     0         -1          0      )       ( -0.5000000 )

 cart.    s( 8) = (  0.0000000 -1.0000000  0.0000000 )    f =(  0.5000000 )
                  (  0.0000000  0.0000000 -1.0000000 )       (  0.0000000 )
                  (  1.0000000  0.0000000  0.0000000 )       ( -0.5000000 )


      isym =  9     120 deg rotation - cart. axis [1,1,1]        

 cryst.   s( 9) = (     0          1          0      )
                  (     0          0          1      )
                  (     1          0          0      )

 cart.    s( 9) = (  0.0000000  0.0000000  1.0000000 )
                  (  1.0000000  0.0000000  0.0000000 )
                  (  0.0000000  1.0000000  0.0000000 )


      isym = 10     120 deg rotation - cart. axis [-1,1,-1]      

 cryst.   s(10) = (     0         -1          0      )    f =(  0.5000000 )
                  (     0          0         -1      )       (  0.5000000 )
                  (     1          0          0      )       (  0.0000000 )

 cart.    s(10) = (  0.0000000  0.0000000  1.0000000 )    f =(  0.5000000 )
                  ( -1.0000000  0.0000000  0.0000000 )       (  0.5000000 )
                  (  0.0000000 -1.0000000  0.0000000 )       (  0.0000000 )


      isym = 11     120 deg rotation - cart. axis [1,-1,-1]      

 cryst.   s(11) = (     0         -1          0      )    f =(  0.5000000 )
                  (     0          0          1      )       (  0.0000000 )
                  (    -1          0          0      )       ( -0.5000000 )

 cart.    s(11) = (  0.0000000  0.0000000 -1.0000000 )    f =(  0.5000000 )
                  ( -1.0000000  0.0000000  0.0000000 )       (  0.0000000 )
                  (  0.0000000  1.0000000  0.0000000 )       ( -0.5000000 )


      isym = 12     120 deg rotation - cart. axis [-1,-1,1]      

 cryst.   s(12) = (     0          1          0      )    f =(  0.0000000 )
                  (     0          0         -1      )       ( -0.5000000 )
                  (    -1          0          0      )       (  0.5000000 )

 cart.    s(12) = (  0.0000000  0.0000000 -1.0000000 )    f =(  0.0000000 )
                  (  1.0000000  0.0000000  0.0000000 )       ( -0.5000000 )
                  (  0.0000000 -1.0000000  0.0000000 )       (  0.5000000 )


   Cartesian axes

     site n.     atom                  positions (alat units)
         1           Cr  tau(   1) = (   0.8640000   0.3640000   0.1360000  )
         2           Cr  tau(   2) = (   0.3640000   0.1360000   0.8640000  )
         3           Cr  tau(   3) = (   0.1360000   0.8640000   0.3640000  )
         4           Cr  tau(   4) = (   0.6360000   0.6360000   0.6360000  )
         5           Si  tau(   5) = (   0.1540000   0.6540000   0.8460000  )
         6           Si  tau(   6) = (   0.6540000   0.8460000   0.1540000  )
         7           Si  tau(   7) = (   0.8460000   0.1540000   0.6540000  )
         8           Si  tau(   8) = (   0.3460000   0.3460000   0.3460000  )

   Crystallographic axes

     site n.     atom                  positions (cryst. coord.)
         1           Cr  tau(   1) = (  0.8640000  0.3640000  0.1360000  )
         2           Cr  tau(   2) = (  0.3640000  0.1360000  0.8640000  )
         3           Cr  tau(   3) = (  0.1360000  0.8640000  0.3640000  )
         4           Cr  tau(   4) = (  0.6360000  0.6360000  0.6360000  )
         5           Si  tau(   5) = (  0.1540000  0.6540000  0.8460000  )
         6           Si  tau(   6) = (  0.6540000  0.8460000  0.1540000  )
         7           Si  tau(   7) = (  0.8460000  0.1540000  0.6540000  )
         8           Si  tau(   8) = (  0.3460000  0.3460000  0.3460000  )

     number of k points=    24  Methfessel-Paxton smearing, width (Ry)=  0.0200
                       cart. coord. in units 2pi/alat
        k(    1) = (   0.0000000   0.0000000   0.0000000), wk =   0.0046296
        k(    2) = (   0.0000000   0.0000000   0.1666667), wk =   0.0277778
        k(    3) = (   0.0000000   0.0000000   0.3333333), wk =   0.0277778
        k(    4) = (   0.0000000   0.0000000  -0.5000000), wk =   0.0138889
        k(    5) = (   0.0000000   0.1666667   0.1666667), wk =   0.0555556
        k(    6) = (   0.0000000   0.1666667   0.3333333), wk =   0.0555556
        k(    7) = (   0.0000000   0.1666667  -0.5000000), wk =   0.0277778
        k(    8) = (   0.0000000   0.3333333   0.3333333), wk =   0.0555556
        k(    9) = (   0.0000000   0.3333333  -0.5000000), wk =   0.0277778
        k(   10) = (   0.0000000  -0.5000000  -0.5000000), wk =   0.0138889
        k(   11) = (   0.1666667   0.1666667   0.1666667), wk =   0.0370370
        k(   12) = (   0.1666667   0.1666667   0.3333333), wk =   0.1111111
        k(   13) = (   0.1666667   0.1666667  -0.5000000), wk =   0.0555556
        k(   14) = (   0.1666667   0.3333333   0.3333333), wk =   0.1111111
        k(   15) = (   0.1666667   0.3333333  -0.5000000), wk =   0.0555556
        k(   16) = (   0.1666667  -0.5000000  -0.5000000), wk =   0.0277778
        k(   17) = (   0.3333333   0.3333333   0.3333333), wk =   0.0370370
        k(   18) = (   0.3333333   0.3333333  -0.5000000), wk =   0.0555556
        k(   19) = (   0.3333333  -0.5000000  -0.5000000), wk =   0.0277778
        k(   20) = (  -0.5000000  -0.5000000  -0.5000000), wk =   0.0046296
        k(   21) = (   0.0000000   0.3333333   0.1666667), wk =   0.0555556
        k(   22) = (   0.0000000  -0.5000000   0.1666667), wk =   0.0277778
        k(   23) = (   0.0000000  -0.5000000   0.3333333), wk =   0.0277778
        k(   24) = (  -0.1666667  -0.5000000   0.3333333), wk =   0.0555556

                       cryst. coord.
        k(    1) = (   0.0000000   0.0000000   0.0000000), wk =   0.0046296
        k(    2) = (   0.0000000   0.0000000   0.1666667), wk =   0.0277778
        k(    3) = (   0.0000000   0.0000000   0.3333333), wk =   0.0277778
        k(    4) = (   0.0000000   0.0000000  -0.5000000), wk =   0.0138889
        k(    5) = (   0.0000000   0.1666667   0.1666667), wk =   0.0555556
        k(    6) = (   0.0000000   0.1666667   0.3333333), wk =   0.0555556
        k(    7) = (   0.0000000   0.1666667  -0.5000000), wk =   0.0277778
        k(    8) = (   0.0000000   0.3333333   0.3333333), wk =   0.0555556
        k(    9) = (   0.0000000   0.3333333  -0.5000000), wk =   0.0277778
        k(   10) = (   0.0000000  -0.5000000  -0.5000000), wk =   0.0138889
        k(   11) = (   0.1666667   0.1666667   0.1666667), wk =   0.0370370
        k(   12) = (   0.1666667   0.1666667   0.3333333), wk =   0.1111111
        k(   13) = (   0.1666667   0.1666667  -0.5000000), wk =   0.0555556
        k(   14) = (   0.1666667   0.3333333   0.3333333), wk =   0.1111111
        k(   15) = (   0.1666667   0.3333333  -0.5000000), wk =   0.0555556
        k(   16) = (   0.1666667  -0.5000000  -0.5000000), wk =   0.0277778
        k(   17) = (   0.3333333   0.3333333   0.3333333), wk =   0.0370370
        k(   18) = (   0.3333333   0.3333333  -0.5000000), wk =   0.0555556
        k(   19) = (   0.3333333  -0.5000000  -0.5000000), wk =   0.0277778
        k(   20) = (  -0.5000000  -0.5000000  -0.5000000), wk =   0.0046296
        k(   21) = (   0.0000000   0.3333333   0.1666667), wk =   0.0555556
        k(   22) = (   0.0000000  -0.5000000   0.1666667), wk =   0.0277778
        k(   23) = (   0.0000000  -0.5000000   0.3333333), wk =   0.0277778
        k(   24) = (  -0.1666667  -0.5000000   0.3333333), wk =   0.0555556

     Dense  grid:   166101 G-vectors     FFT dimensions: (  72,  72,  72)

     Smooth grid:    42115 G-vectors     FFT dimensions: (  48,  48,  48)

     Dynamical RAM for                 wfc:       0.57 MB

     Dynamical RAM for     wfc (w. buffer):      14.30 MB

     Dynamical RAM for           str. fact:       0.21 MB

     Dynamical RAM for           local pot:       0.00 MB

     Dynamical RAM for          nlocal pot:       0.90 MB

     Dynamical RAM for                qrad:      10.29 MB

     Dynamical RAM for          rho,v,vnew:       2.69 MB

     Dynamical RAM for               rhoin:       0.90 MB

     Dynamical RAM for            rho*nmix:       6.76 MB

     Dynamical RAM for           G-vectors:       0.41 MB

     Dynamical RAM for          h,s,v(r/c):       1.35 MB

     Dynamical RAM for          <psi|beta>:       0.71 MB

     Dynamical RAM for                 psi:       1.14 MB

     Dynamical RAM for                hpsi:       1.14 MB

     Dynamical RAM for                spsi:       1.14 MB

     Dynamical RAM for      wfcinit/wfcrot:       1.41 MB

     Dynamical RAM for           addusdens:      64.86 MB

     Estimated static dynamical RAM per process >      37.74 MB

     Estimated max dynamical RAM per process >     102.60 MB

     Estimated total dynamical RAM >       2.40 GB

     Check: negative core charge=   -0.000001

     Initial potential from superposition of free atoms

     starting charge   71.99469, renormalised to   72.00000
     Starting wfcs are  112 randomized atomic wfcs
     Checking if some PAW data can be deallocated... 
       PAW data deallocated on   12 nodes for type:  1
       PAW data deallocated on   12 nodes for type:  2

     total cpu time spent up to now is        5.4 secs

     Self-consistent Calculation

     iteration #  1     ecut=    60.00 Ry     beta= 0.70
     Davidson diagonalization with overlap
     ethr =  1.00E-02,  avg # of iterations =  2.0

     Threshold (ethr) on eigenvalues was too large:
     Diagonalizing with lowered threshold

     Davidson diagonalization with overlap
     ethr =  2.09E-04,  avg # of iterations =  4.4

     total cpu time spent up to now is       18.9 secs

     total energy              =   -1180.29296100 Ry
     estimated scf accuracy    <       0.18820613 Ry

     iteration #  2     ecut=    60.00 Ry     beta= 0.70
     Davidson diagonalization with overlap
     ethr =  2.61E-04,  avg # of iterations =  3.2

     total cpu time spent up to now is       26.1 secs

     total energy              =   -1180.29803097 Ry
     estimated scf accuracy    <       0.08017804 Ry

     iteration #  3     ecut=    60.00 Ry     beta= 0.70
     Davidson diagonalization with overlap
     ethr =  1.11E-04,  avg # of iterations =  5.0

     total cpu time spent up to now is       34.8 secs

     total energy              =   -1180.30890822 Ry
     estimated scf accuracy    <       0.16086226 Ry

     iteration #  4     ecut=    60.00 Ry     beta= 0.70
     Davidson diagonalization with overlap
     ethr =  1.11E-04,  avg # of iterations =  4.1

     total cpu time spent up to now is       41.9 secs

     total energy              =   -1180.33269406 Ry
     estimated scf accuracy    <       0.00037576 Ry

     iteration #  5     ecut=    60.00 Ry     beta= 0.70
     Davidson diagonalization with overlap
     ethr =  5.22E-07,  avg # of iterations =  7.5

     total cpu time spent up to now is       52.5 secs

     total energy              =   -1180.33328717 Ry
     estimated scf accuracy    <       0.00028209 Ry

     iteration #  6     ecut=    60.00 Ry     beta= 0.70
     Davidson diagonalization with overlap
     ethr =  3.92E-07,  avg # of iterations =  2.8

     total cpu time spent up to now is       58.7 secs

     total energy              =   -1180.33333612 Ry
     estimated scf accuracy    <       0.00000227 Ry

     iteration #  7     ecut=    60.00 Ry     beta= 0.70
     Davidson diagonalization with overlap
     ethr =  3.16E-09,  avg # of iterations =  7.5

     total cpu time spent up to now is       69.6 secs

     total energy              =   -1180.33333788 Ry
     estimated scf accuracy    <       0.00002963 Ry

     iteration #  8     ecut=    60.00 Ry     beta= 0.70
     Davidson diagonalization with overlap
     ethr =  3.16E-09,  avg # of iterations =  5.1

     total cpu time spent up to now is       78.7 secs

     End of self-consistent calculation

          k = 0.0000 0.0000 0.0000 (  5257 PWs)   bands (ev):

   -56.5096 -56.5096 -56.4749 -56.4749 -56.4749 -56.4749 -56.4749 -56.4749
   -28.5791 -28.5791 -28.5717 -28.5717 -28.5717 -28.5717 -28.4825 -28.4825
   -27.6142 -27.6142 -27.6142 -27.6142 -27.5378 -27.5378 -27.5378 -27.5378
   -27.5334 -27.5334 -27.4512 -27.4512 -27.4507 -27.4507 -27.4507 -27.4507
     2.6991   2.6991   7.4573   7.4573   7.4573   7.4573   7.4663   7.4663
    10.5376  10.5376  10.5454  10.5454  10.5454  10.5454  11.9115  11.9115
    11.9115  11.9115  11.9226  11.9226  12.6026  12.6026  12.7725  12.7725
    12.7725  12.7725  13.1447  13.1447  13.1447  13.1447  13.1459  13.1459
    13.6730  13.6730  13.6730  13.6730  13.6769  13.6769  15.5536  15.5536
    15.5849  15.5849  15.5849  15.5849  15.7688  15.7688  15.7688  15.7688
    16.6673  16.6673  16.6977  16.6977  16.6977  16.6977

     occupation numbers 
     1.0000   1.0000   1.0000   1.0000   1.0000   1.0000   1.0000   1.0000
     1.0000   1.0000   1.0000   1.0000   1.0000   1.0000   1.0000   1.0000
     1.0000   1.0000   1.0000   1.0000   1.0000   1.0000   1.0000   1.0000
     1.0000   1.0000   1.0000   1.0000   1.0000   1.0000   1.0000   1.0000
     1.0000   1.0000   1.0000   1.0000   1.0000   1.0000   1.0000   1.0000
     1.0000   1.0000   1.0000   1.0000   1.0000   1.0000   1.0000   1.0000
     1.0000   1.0000   1.0000   1.0000   1.0000   1.0000   1.0000   1.0000
     1.0000   1.0000   1.0000   1.0000   1.0000   1.0000   1.0000   1.0000
     1.0000   1.0000   1.0000   1.0000   1.0000   1.0000  -0.0038  -0.0038
    -0.0024  -0.0024  -0.0024  -0.0024  -0.0001  -0.0001  -0.0001  -0.0001
    -0.0000  -0.0000  -0.0000  -0.0000  -0.0000  -0.0000

          k = 0.0000 0.0000 0.1667 (  5233 PWs)   bands (ev):

   -56.5078 -56.5078 -56.4805 -56.4805 -56.4744 -56.4744 -56.4716 -56.4716
   -28.5867 -28.5798 -28.5758 -28.5752 -28.5611 -28.5579 -28.4875 -28.4874
   -27.6308 -27.6227 -27.6010 -27.5933 -27.5503 -27.5444 -27.5407 -27.5313
   -27.5287 -27.5164 -27.4614 -27.4594 -27.4563 -27.4494 -27.4484 -27.4432
     2.8911   2.8911   6.5404   6.5429   7.5634   7.5653   8.1200   8.1293
     9.9486   9.9527  10.6632  10.6657  11.0722  11.0751  11.2876  11.2883
    11.5005  11.5053  12.4496  12.4599  12.7398  12.7620  12.8031  12.8097
    13.0118  13.0151  13.1090  13.1115  13.1981  13.2001  13.2287  13.2290
    13.5327  13.5428  13.6334  13.6359  13.9647  13.9652  15.2954  15.3163
    15.4191  15.4266  15.6956  15.7051  15.7508  15.7692  15.7941  15.8197
    16.4090  16.4245  16.5972  16.6047  16.9925  17.0130

     occupation numbers 
     1.0000   1.0000   1.0000   1.0000   1.0000   1.0000   1.0000   1.0000
     1.0000   1.0000   1.0000   1.0000   1.0000   1.0000   1.0000   1.0000
     1.0000   1.0000   1.0000   1.0000   1.0000   1.0000   1.0000   1.0000
     1.0000   1.0000   1.0000   1.0000   1.0000   1.0000   1.0000   1.0000
     1.0000   1.0000   1.0000   1.0000   1.0000   1.0000   1.0000   1.0000
     1.0000   1.0000   1.0000   1.0000   1.0000   1.0000   1.0000   1.0000
     1.0000   1.0000   1.0000   1.0000   1.0000   1.0000   1.0000   1.0000
     1.0000   1.0000   1.0000   1.0000   1.0000   1.0000   1.0000   1.0000
     1.0000   1.0000   1.0000   1.0000   1.0000   1.0000  -0.0352  -0.0337
    -0.0178  -0.0166  -0.0004  -0.0003  -0.0001  -0.0001  -0.0001  -0.0000
    -0.0000  -0.0000  -0.0000  -0.0000  -0.0000  -0.0000

          k = 0.0000 0.0000 0.3333 (  5242 PWs)   bands (ev):

   -56.5029 -56.5029 -56.4879 -56.4879 -56.4729 -56.4729 -56.4706 -56.4706
   -28.5894 -28.5827 -28.5815 -28.5777 -28.5422 -28.5397 -28.5015 -28.5010
   -27.6386 -27.6307 -27.5828 -27.5782 -27.5628 -27.5430 -27.5378 -27.5291
   -27.5274 -27.4971 -27.4789 -27.4658 -27.4629 -27.4521 -27.4475 -27.4414
     3.4515   3.4516   5.4206   5.4213   7.8605   7.8645   8.5102   8.5198
     9.6518   9.6533  10.6593  10.6615  10.7719  10.7842  11.0451  11.0480
    11.8632  11.8652  12.1348  12.1505  12.8392  12.8552  12.9336  12.9430
    13.1154  13.1213  13.1709  13.1761  13.2591  13.2620  13.3949  13.3973
    13.4526  13.4547  13.9169  13.9207  14.1184  14.1251  14.8907  14.9248
    15.3600  15.3685  15.5384  15.5567  15.7467  15.7750  15.8565  15.8805
    16.1966  16.2124  16.3725  16.3861  17.3079  17.3239

     occupation numbers 
     1.0000   1.0000   1.0000   1.0000   1.0000   1.0000   1.0000   1.0000
     1.0000   1.0000   1.0000   1.0000   1.0000   1.0000   1.0000   1.0000
     1.0000   1.0000   1.0000   1.0000   1.0000   1.0000   1.0000   1.0000
     1.0000   1.0000   1.0000   1.0000   1.0000   1.0000   1.0000   1.0000
     1.0000   1.0000   1.0000   1.0000   1.0000   1.0000   1.0000   1.0000
     1.0000   1.0000   1.0000   1.0000   1.0000   1.0000   1.0000   1.0000
     1.0000   1.0000   1.0000   1.0000   1.0000   1.0000   1.0000   1.0000
     1.0000   1.0000   1.0000   1.0000   1.0000   1.0000   1.0000   1.0000
     1.0000   1.0000   1.0000   1.0000   1.0001   1.0001   0.6852   0.5839
    -0.0277  -0.0263  -0.0047  -0.0036  -0.0001  -0.0001  -0.0000  -0.0000
    -0.0000  -0.0000  -0.0000  -0.0000  -0.0000  -0.0000

          k = 0.0000 0.0000-0.5000 (  5294 PWs)   bands (ev):

   -56.4958 -56.4958 -56.4958 -56.4958 -56.4714 -56.4714 -56.4714 -56.4714
   -28.5870 -28.5870 -28.5814 -28.5814 -28.5213 -28.5213 -28.5199 -28.5199
   -27.6375 -27.6375 -27.5727 -27.5727 -27.5577 -27.5577 -27.5347 -27.5347
   -27.5041 -27.5041 -27.4797 -27.4797 -27.4580 -27.4580 -27.4445 -27.4445
     4.3290   4.3290   4.3292   4.3292   8.2829   8.2829   8.2893   8.2893
    10.0171  10.0171  10.0210  10.0210  10.8986  10.8986  10.9097  10.9097
    12.2477  12.2477  12.2542  12.2542  12.6864  12.6864  12.6987  12.6987
    13.1427  13.1427  13.1431  13.1431  13.2381  13.2381  13.2419  13.2419
    13.7833  13.7833  13.7865  13.7865  14.5660  14.5660  14.5946  14.5946
    15.4036  15.4036  15.4214  15.4214  15.8083  15.8083  15.8379  15.8379
    16.1677  16.1677  16.1814  16.1814  17.5438  17.5494

     occupation numbers 
     1.0000   1.0000   1.0000   1.0000   1.0000   1.0000   1.0000   1.0000
     1.0000   1.0000   1.0000   1.0000   1.0000   1.0000   1.0000   1.0000
     1.0000   1.0000   1.0000   1.0000   1.0000   1.0000   1.0000   1.0000
     1.0000   1.0000   1.0000   1.0000   1.0000   1.0000   1.0000   1.0000
     1.0000   1.0000   1.0000   1.0000   1.0000   1.0000   1.0000   1.0000
     1.0000   1.0000   1.0000   1.0000   1.0000   1.0000   1.0000   1.0000
     1.0000   1.0000   1.0000   1.0000   1.0000   1.0000   1.0000   1.0000
     1.0000   1.0000   1.0000   1.0000   1.0000   1.0000   1.0000   1.0000
     1.0000   1.0000   1.0000   1.0000   1.0311   1.0311   1.0344   1.0344
    -0.0203  -0.0203  -0.0175  -0.0175  -0.0000  -0.0000  -0.0000  -0.0000
    -0.0000  -0.0000  -0.0000  -0.0000  -0.0000  -0.0000

          k = 0.0000 0.1667 0.1667 (  5253 PWs)   bands (ev):

   -56.5062 -56.5062 -56.4824 -56.4824 -56.4749 -56.4749 -56.4708 -56.4708
   -28.5886 -28.5828 -28.5736 -28.5735 -28.5574 -28.5536 -28.4924 -28.4922
   -27.6316 -27.6275 -27.5918 -27.5879 -27.5516 -27.5483 -27.5441 -27.5369
   -27.5206 -27.5072 -27.4703 -27.4666 -27.4593 -27.4506 -27.4438 -27.4396
     3.0807   3.0808   6.3977   6.4020   7.2081   7.2124   8.4072   8.4126
     9.8330   9.8363  10.5104  10.5128  10.7874  10.7887  11.3575  11.3604
    11.7802  11.7806  12.4124  12.4180  12.5881  12.5957  12.9954  12.9967
    13.0912  13.0994  13.1727  13.1735  13.2442  13.2508  13.3366  13.3417
    13.4681  13.4759  13.7333  13.7474  14.0764  14.0837  15.2534  15.2751
    15.3028  15.3222  15.5378  15.5498  15.6979  15.7188  15.8161  15.8405
    16.2791  16.2960  16.6088  16.6185  17.0346  17.0690

     occupation numbers 
     1.0000   1.0000   1.0000   1.0000   1.0000   1.0000   1.0000   1.0000
     1.0000   1.0000   1.0000   1.0000   1.0000   1.0000   1.0000   1.0000
     1.0000   1.0000   1.0000   1.0000   1.0000   1.0000   1.0000   1.0000
     1.0000   1.0000   1.0000   1.0000   1.0000   1.0000   1.0000   1.0000
     1.0000   1.0000   1.0000   1.0000   1.0000   1.0000   1.0000   1.0000
     1.0000   1.0000   1.0000   1.0000   1.0000   1.0000   1.0000   1.0000
     1.0000   1.0000   1.0000   1.0000   1.0000   1.0000   1.0000   1.0000
     1.0000   1.0000   1.0000   1.0000   1.0000   1.0000   1.0000   1.0000
     1.0000   1.0000   1.0000   1.0000   1.0000   1.0000  -0.0330  -0.0352
    -0.0349  -0.0331  -0.0047  -0.0040  -0.0004  -0.0002  -0.0000  -0.0000
    -0.0000  -0.0000  -0.0000  -0.0000  -0.0000  -0.0000

          k = 0.0000 0.1667 0.3333 (  5255 PWs)   bands (ev):

   -56.5016 -56.5016 -56.4880 -56.4880 -56.4740 -56.4740 -56.4708 -56.4708
   -28.5884 -28.5834 -28.5773 -28.5752 -28.5429 -28.5404 -28.5054 -28.5051
   -27.6349 -27.6295 -27.5809 -27.5754 -27.5615 -27.5482 -27.5415 -27.5338
   -27.5219 -27.4934 -27.4877 -27.4720 -27.4650 -27.4536 -27.4402 -27.4364
     3.6332   3.6334   5.5382   5.5398   7.3633   7.3659   8.4330   8.4363
     9.7333   9.7364  10.1897  10.1939  10.9880  10.9910  11.3857  11.3952
    11.7524  11.7567  12.1894  12.1981  12.5947  12.6024  12.8767  12.8855
    13.1131  13.1225  13.2521  13.2579  13.3799  13.3812  13.5266  13.5366
    13.5898  13.6029  13.9895  14.0001  14.2442  14.2567  14.9103  14.9413
    15.2264  15.2451  15.3471  15.3571  15.6561  15.6812  15.8079  15.8382
    16.1535  16.1629  16.4412  16.4542  17.2381  17.2710

     occupation numbers 
     1.0000   1.0000   1.0000   1.0000   1.0000   1.0000   1.0000   1.0000
     1.0000   1.0000   1.0000   1.0000   1.0000   1.0000   1.0000   1.0000
     1.0000   1.0000   1.0000   1.0000   1.0000   1.0000   1.0000   1.0000
     1.0000   1.0000   1.0000   1.0000   1.0000   1.0000   1.0000   1.0000
     1.0000   1.0000   1.0000   1.0000   1.0000   1.0000   1.0000   1.0000
     1.0000   1.0000   1.0000   1.0000   1.0000   1.0000   1.0000   1.0000
     1.0000   1.0000   1.0000   1.0000   1.0000   1.0000   1.0000   1.0000
     1.0000   1.0000   1.0000   1.0000   1.0000   1.0000   1.0000   1.0000
     1.0000   1.0000   1.0000   1.0000   1.0007   1.0009   0.6276   0.5328
    -0.0260  -0.0314  -0.0297  -0.0281  -0.0008  -0.0005  -0.0000  -0.0000
    -0.0000  -0.0000  -0.0000  -0.0000  -0.0000  -0.0000

          k = 0.0000 0.1667-0.5000 (  5268 PWs)   bands (ev):

   -56.4950 -56.4950 -56.4950 -56.4950 -56.4722 -56.4722 -56.4722 -56.4722
   -28.5847 -28.5847 -28.5792 -28.5792 -28.5245 -28.5245 -28.5219 -28.5219
   -27.6333 -27.6333 -27.5728 -27.5728 -27.5582 -27.5582 -27.5341 -27.5341
   -27.5118 -27.5118 -27.4799 -27.4799 -27.4605 -27.4605 -27.4374 -27.4374
     4.4937   4.4937   4.4944   4.4944   7.8954   7.8954   7.9022   7.9022
    10.0152  10.0152  10.0191  10.0191  11.1038  11.1038  11.1178  11.1178
    12.0904  12.0904  12.0950  12.0950  12.5405  12.5405  12.5563  12.5563
    13.2766  13.2766  13.2775  13.2775  13.3917  13.3917  13.3929  13.3929
    13.8671  13.8671  13.8711  13.8711  14.6213  14.6213  14.6526  14.6526
    15.2394  15.2394  15.2541  15.2541  15.7163  15.7163  15.7460  15.7460
    16.2414  16.2414  16.2520  16.2520  17.4847  17.4914

     occupation numbers 
     1.0000   1.0000   1.0000   1.0000   1.0000   1.0000   1.0000   1.0000
     1.0000   1.0000   1.0000   1.0000   1.0000   1.0000   1.0000   1.0000
     1.0000   1.0000   1.0000   1.0000   1.0000   1.0000   1.0000   1.0000
     1.0000   1.0000   1.0000   1.0000   1.0000   1.0000   1.0000   1.0000
     1.0000   1.0000   1.0000   1.0000   1.0000   1.0000   1.0000   1.0000
     1.0000   1.0000   1.0000   1.0000   1.0000   1.0000   1.0000   1.0000
     1.0000   1.0000   1.0000   1.0000   1.0000   1.0000   1.0000   1.0000
     1.0000   1.0000   1.0000   1.0000   1.0000   1.0000   1.0000   1.0000
     1.0000   1.0000   1.0000   1.0000   1.0354   1.0354   1.0326   1.0326
    -0.0300  -0.0300  -0.0331  -0.0331  -0.0003  -0.0003  -0.0001  -0.0001
    -0.0000  -0.0000  -0.0000  -0.0000  -0.0000  -0.0000

          k = 0.0000 0.3333 0.3333 (  5271 PWs)   bands (ev):

   -56.4979 -56.4979 -56.4894 -56.4894 -56.4750 -56.4750 -56.4721 -56.4721
   -28.5846 -28.5807 -28.5736 -28.5727 -28.5407 -28.5384 -28.5162 -28.5155
   -27.6265 -27.6252 -27.5820 -27.5764 -27.5575 -27.5498 -27.5382 -27.5371
   -27.5208 -27.5014 -27.4992 -27.4878 -27.4591 -27.4453 -27.4359 -27.4327
     4.1588   4.1592   5.6403   5.6424   6.6788   6.6816   7.8202   7.8239
    10.0319  10.0346  10.3054  10.3084  10.9411  10.9428  11.2586  11.2607
    11.8951  11.9016  12.1584  12.1629  12.3097  12.3193  12.6287  12.6366
    13.1798  13.1881  13.3917  13.3967  13.5605  13.5633  13.7210  13.7263
    13.8838  13.8954  14.0950  14.1077  14.4884  14.5141  14.8492  14.8608
    14.9421  14.9623  15.0589  15.0755  15.5240  15.5471  15.6044  15.6343
    16.2341  16.2429  16.4915  16.4984  17.1488  17.1794

     occupation numbers 
     1.0000   1.0000   1.0000   1.0000   1.0000   1.0000   1.0000   1.0000
     1.0000   1.0000   1.0000   1.0000   1.0000   1.0000   1.0000   1.0000
     1.0000   1.0000   1.0000   1.0000   1.0000   1.0000   1.0000   1.0000
     1.0000   1.0000   1.0000   1.0000   1.0000   1.0000   1.0000   1.0000
     1.0000   1.0000   1.0000   1.0000   1.0000   1.0000   1.0000   1.0000
     1.0000   1.0000   1.0000   1.0000   1.0000   1.0000   1.0000   1.0000
     1.0000   1.0000   1.0000   1.0000   1.0000   1.0000   1.0000   1.0000
     1.0000   1.0000   1.0000   1.0000   1.0000   1.0000   1.0000   1.0000
     1.0000   1.0000   1.0000   1.0001   1.0184   1.0227   0.7956   0.7664
     0.5305   0.4676   0.1941   0.1561  -0.0057  -0.0042  -0.0018  -0.0011
    -0.0000  -0.0000  -0.0000  -0.0000  -0.0000  -0.0000

          k = 0.0000 0.3333-0.5000 (  5260 PWs)   bands (ev):

   -56.4932 -56.4932 -56.4932 -56.4932 -56.4740 -56.4740 -56.4740 -56.4740
   -28.5787 -28.5787 -28.5746 -28.5746 -28.5308 -28.5308 -28.5279 -28.5279
   -27.6211 -27.6211 -27.5842 -27.5842 -27.5498 -27.5498 -27.5320 -27.5320
   -27.5200 -27.5200 -27.4986 -27.4986 -27.4477 -27.4477 -27.4332 -27.4332
     4.9499   4.9499   4.9513   4.9513   7.0290   7.0290   7.0338   7.0338
    10.3309  10.3309  10.3329  10.3329  11.2382  11.2382  11.2466  11.2466
    11.7611  11.7611  11.7666  11.7666  12.3343  12.3343  12.3417  12.3417
    13.3675  13.3675  13.3746  13.3746  13.6756  13.6756  13.6843  13.6843
    14.1710  14.1710  14.1766  14.1766  14.6116  14.6116  14.6308  14.6308
    14.9445  14.9445  14.9594  14.9594  15.4998  15.4998  15.5239  15.5239
    16.4422  16.4422  16.4529  16.4529  17.1977  17.2014

     occupation numbers 
     1.0000   1.0000   1.0000   1.0000   1.0000   1.0000   1.0000   1.0000
     1.0000   1.0000   1.0000   1.0000   1.0000   1.0000   1.0000   1.0000
     1.0000   1.0000   1.0000   1.0000   1.0000   1.0000   1.0000   1.0000
     1.0000   1.0000   1.0000   1.0000   1.0000   1.0000   1.0000   1.0000
     1.0000   1.0000   1.0000   1.0000   1.0000   1.0000   1.0000   1.0000
     1.0000   1.0000   1.0000   1.0000   1.0000   1.0000   1.0000   1.0000
     1.0000   1.0000   1.0000   1.0000   1.0000   1.0000   1.0000   1.0000
     1.0000   1.0000   1.0000   1.0000   1.0000   1.0000   1.0000   1.0000
     1.0002   1.0002   1.0002   1.0002   1.0354   1.0354   1.0351   1.0351
     0.5229   0.5229   0.4766   0.4766  -0.0077  -0.0077  -0.0057  -0.0057
    -0.0000  -0.0000  -0.0000  -0.0000  -0.0000  -0.0000

          k = 0.0000-0.5000-0.5000 (  5248 PWs)   bands (ev):

   -56.4922 -56.4922 -56.4922 -56.4922 -56.4750 -56.4750 -56.4750 -56.4750
   -28.5735 -28.5735 -28.5735 -28.5735 -28.5329 -28.5329 -28.5329 -28.5329
   -27.6033 -27.6033 -27.6033 -27.6033 -27.5363 -27.5363 -27.5363 -27.5363
   -27.5165 -27.5165 -27.5165 -27.5165 -27.4369 -27.4369 -27.4369 -27.4369
     5.3718   5.3718   5.3718   5.3718   6.4282   6.4282   6.4282   6.4282
    10.7061  10.7061  10.7061  10.7061  11.2431  11.2431  11.2431  11.2431
    11.3857  11.3857  11.3857  11.3857  12.2846  12.2846  12.2846  12.2846
    13.3629  13.3629  13.3629  13.3629  14.0079  14.0079  14.0079  14.0079
    14.2951  14.2951  14.2951  14.2951  14.5260  14.5260  14.5260  14.5260
    14.7584  14.7584  14.7584  14.7584  15.4191  15.4191  15.4191  15.4191
    16.5891  16.5891  16.5891  16.5891  16.9867  16.9867

     occupation numbers 
     1.0000   1.0000   1.0000   1.0000   1.0000   1.0000   1.0000   1.0000
     1.0000   1.0000   1.0000   1.0000   1.0000   1.0000   1.0000   1.0000
     1.0000   1.0000   1.0000   1.0000   1.0000   1.0000   1.0000   1.0000
     1.0000   1.0000   1.0000   1.0000   1.0000   1.0000   1.0000   1.0000
     1.0000   1.0000   1.0000   1.0000   1.0000   1.0000   1.0000   1.0000
     1.0000   1.0000   1.0000   1.0000   1.0000   1.0000   1.0000   1.0000
     1.0000   1.0000   1.0000   1.0000   1.0000   1.0000   1.0000   1.0000
     1.0000   1.0000   1.0000   1.0000   1.0000   1.0000   1.0000   1.0000
     1.0017   1.0017   1.0017   1.0017   1.0247   1.0247   1.0247   1.0247
     0.9636   0.9636   0.9636   0.9636  -0.0178  -0.0178  -0.0178  -0.0178
    -0.0000  -0.0000  -0.0000  -0.0000  -0.0000  -0.0000

          k = 0.1667 0.1667 0.1667 (  5263 PWs)   bands (ev):

   -56.5046 -56.5046 -56.4835 -56.4835 -56.4756 -56.4756 -56.4706 -56.4706
   -28.5890 -28.5836 -28.5717 -28.5716 -28.5553 -28.5514 -28.4970 -28.4966
   -27.6311 -27.6287 -27.5894 -27.5805 -27.5520 -27.5479 -27.5469 -27.5441
   -27.5150 -27.5021 -27.4798 -27.4668 -27.4600 -27.4562 -27.4387 -27.4382
     3.2679   3.2679   6.3454   6.3521   7.0387   7.0473   8.3237   8.3259
     9.7325   9.7352  10.5177  10.5185  10.5477  10.5491  11.3857  11.3912
    11.9879  11.9884  12.3203  12.3284  12.8287  12.8342  12.8348  12.8410
    13.1025  13.1079  13.1345  13.1345  13.2103  13.2163  13.5218  13.5268
    13.6011  13.6106  13.7840  13.7894  14.1532  14.1618  15.2059  15.2205
    15.2735  15.2882  15.4722  15.4735  15.5244  15.5400  15.7939  15.8086
    16.2253  16.2421  16.6043  16.6158  17.0489  17.0891

     occupation numbers 
     1.0000   1.0000   1.0000   1.0000   1.0000   1.0000   1.0000   1.0000
     1.0000   1.0000   1.0000   1.0000   1.0000   1.0000   1.0000   1.0000
     1.0000   1.0000   1.0000   1.0000   1.0000   1.0000   1.0000   1.0000
     1.0000   1.0000   1.0000   1.0000   1.0000   1.0000   1.0000   1.0000
     1.0000   1.0000   1.0000   1.0000   1.0000   1.0000   1.0000   1.0000
     1.0000   1.0000   1.0000   1.0000   1.0000   1.0000   1.0000   1.0000
     1.0000   1.0000   1.0000   1.0000   1.0000   1.0000   1.0000   1.0000
     1.0000   1.0000   1.0000   1.0000   1.0000   1.0000   1.0000   1.0000
     1.0000   1.0000   1.0000   1.0000   1.0001   1.0002  -0.0168  -0.0237
    -0.0352  -0.0354  -0.0105  -0.0104  -0.0056  -0.0046  -0.0001  -0.0000
    -0.0000  -0.0000  -0.0000  -0.0000  -0.0000  -0.0000

          k = 0.1667 0.1667 0.3333 (  5259 PWs)   bands (ev):

   -56.5003 -56.5003 -56.4879 -56.4879 -56.4750 -56.4750 -56.4713 -56.4713
   -28.5871 -28.5825 -28.5744 -28.5728 -28.5440 -28.5413 -28.5095 -28.5087
   -27.6317 -27.6274 -27.5805 -27.5723 -27.5602 -27.5511 -27.5439 -27.5393
   -27.5165 -27.5034 -27.4810 -27.4708 -27.4686 -27.4571 -27.4365 -27.4349
     3.8122   3.8123   5.6527   5.6548   7.1830   7.1870   8.2392   8.2428
     9.3524   9.3548  10.2217  10.2241  10.9249  10.9285  11.4679  11.4711
    11.8292  11.8333  12.2176  12.2197  12.7509  12.7598  12.9443  12.9504
    13.0784  13.0870  13.1966  13.2050  13.2927  13.2962  13.5439  13.5507
    13.7623  13.7675  14.0128  14.0217  14.3523  14.3696  14.9070  14.9344
    15.1907  15.2059  15.2831  15.2931  15.5036  15.5182  15.7142  15.7350
    16.1669  16.1763  16.4541  16.4680  17.2181  17.2493

     occupation numbers 
     1.0000   1.0000   1.0000   1.0000   1.0000   1.0000   1.0000   1.0000
     1.0000   1.0000   1.0000   1.0000   1.0000   1.0000   1.0000   1.0000
     1.0000   1.0000   1.0000   1.0000   1.0000   1.0000   1.0000   1.0000
     1.0000   1.0000   1.0000   1.0000   1.0000   1.0000   1.0000   1.0000
     1.0000   1.0000   1.0000   1.0000   1.0000   1.0000   1.0000   1.0000
     1.0000   1.0000   1.0000   1.0000   1.0000   1.0000   1.0000   1.0000
     1.0000   1.0000   1.0000   1.0000   1.0000   1.0000   1.0000   1.0000
     1.0000   1.0000   1.0000   1.0000   1.0000   1.0000   1.0000   1.0000
     1.0000   1.0000   1.0000   1.0000   1.0039   1.0050   0.6376   0.5543
    -0.0073  -0.0168  -0.0354  -0.0353  -0.0073  -0.0061  -0.0003  -0.0002
    -0.0000  -0.0000  -0.0000  -0.0000  -0.0000  -0.0000

          k = 0.1667 0.1667-0.5000 (  5234 PWs)   bands (ev):

   -56.4941 -56.4941 -56.4941 -56.4941 -56.4730 -56.4730 -56.4730 -56.4730
   -28.5822 -28.5822 -28.5769 -28.5769 -28.5275 -28.5275 -28.5242 -28.5242
   -27.6292 -27.6292 -27.5708 -27.5708 -27.5619 -27.5619 -27.5326 -27.5326
   -27.5178 -27.5178 -27.4760 -27.4760 -27.4633 -27.4633 -27.4347 -27.4347
     4.6550   4.6550   4.6558   4.6558   7.7187   7.7187   7.7249   7.7249
     9.6728   9.6728   9.6741   9.6741  11.3993  11.3993  11.4074  11.4074
    11.8732  11.8732  11.8768  11.8768  12.7974  12.7974  12.8094  12.8094
    13.1816  13.1816  13.1921  13.1921  13.4176  13.4176  13.4217  13.4217
    13.9224  13.9224  13.9303  13.9303  14.6728  14.6728  14.7067  14.7067
    15.1631  15.1631  15.1832  15.1832  15.6046  15.6046  15.6272  15.6272
    16.2608  16.2608  16.2705  16.2705  17.5719  17.5732

     occupation numbers 
     1.0000   1.0000   1.0000   1.0000   1.0000   1.0000   1.0000   1.0000
     1.0000   1.0000   1.0000   1.0000   1.0000   1.0000   1.0000   1.0000
     1.0000   1.0000   1.0000   1.0000   1.0000   1.0000   1.0000   1.0000
     1.0000   1.0000   1.0000   1.0000   1.0000   1.0000   1.0000   1.0000
     1.0000   1.0000   1.0000   1.0000   1.0000   1.0000   1.0000   1.0000
     1.0000   1.0000   1.0000   1.0000   1.0000   1.0000   1.0000   1.0000
     1.0000   1.0000   1.0000   1.0000   1.0000   1.0000   1.0000   1.0000
     1.0000   1.0000   1.0000   1.0000   1.0000   1.0000   1.0000   1.0000
     1.0000   1.0000   1.0000   1.0000   1.0276   1.0276   1.0116   1.0116
     0.0163   0.0163  -0.0017  -0.0017  -0.0018  -0.0018  -0.0013  -0.0013
    -0.0000  -0.0000  -0.0000  -0.0000  -0.0000  -0.0000

          k = 0.1667 0.3333 0.3333 (  5261 PWs)   bands (ev):

   -56.4967 -56.4967 -56.4887 -56.4887 -56.4760 -56.4760 -56.4728 -56.4728
   -28.5826 -28.5789 -28.5710 -28.5702 -28.5426 -28.5404 -28.5198 -28.5188
   -27.6241 -27.6213 -27.5811 -27.5738 -27.5622 -27.5536 -27.5426 -27.5356
   -27.5198 -27.5107 -27.4871 -27.4790 -27.4629 -27.4514 -27.4357 -27.4324
     4.3287   4.3291   5.7586   5.7620   6.7218   6.7273   7.7772   7.7807
     9.2007   9.2041  10.0630  10.0665  10.9683  10.9705  11.5787  11.5829
    11.7448  11.7469  12.2590  12.2626  12.4933  12.4995  12.8111  12.8176
    13.1511  13.1553  13.2527  13.2649  13.3997  13.4070  13.6919  13.7071
    13.9169  13.9331  14.2283  14.2391  14.5643  14.5924  14.8639  14.8780
    14.9479  14.9590  15.1236  15.1503  15.4068  15.4096  15.5532  15.5687
    16.2292  16.2368  16.4584  16.4664  17.0981  17.1229

     occupation numbers 
     1.0000   1.0000   1.0000   1.0000   1.0000   1.0000   1.0000   1.0000
     1.0000   1.0000   1.0000   1.0000   1.0000   1.0000   1.0000   1.0000
     1.0000   1.0000   1.0000   1.0000   1.0000   1.0000   1.0000   1.0000
     1.0000   1.0000   1.0000   1.0000   1.0000   1.0000   1.0000   1.0000
     1.0000   1.0000   1.0000   1.0000   1.0000   1.0000   1.0000   1.0000
     1.0000   1.0000   1.0000   1.0000   1.0000   1.0000   1.0000   1.0000
     1.0000   1.0000   1.0000   1.0000   1.0000   1.0000   1.0000   1.0000
     1.0000   1.0000   1.0000   1.0000   1.0000   1.0000   1.0000   1.0000
     1.0000   1.0000   1.0006   1.0007   1.0308   1.0342   0.7585   0.7208
     0.5124   0.4779   0.0665   0.0303  -0.0198  -0.0193  -0.0038  -0.0031
    -0.0000  -0.0000  -0.0000  -0.0000  -0.0000  -0.0000

          k = 0.1667 0.3333-0.5000 (  5240 PWs)   bands (ev):

   -56.4922 -56.4922 -56.4922 -56.4922 -56.4750 -56.4750 -56.4750 -56.4750
   -28.5764 -28.5764 -28.5722 -28.5722 -28.5338 -28.5338 -28.5306 -28.5306
   -27.6179 -27.6179 -27.5819 -27.5819 -27.5577 -27.5577 -27.5337 -27.5337
   -27.5197 -27.5197 -27.4884 -27.4884 -27.4523 -27.4523 -27.4340 -27.4340
     5.1006   5.1006   5.1020   5.1020   7.0736   7.0736   7.0790   7.0790
     9.6229   9.6229   9.6266   9.6266  11.2870  11.2870  11.2888  11.2888
    11.9345  11.9345  11.9434  11.9434  12.5633  12.5633  12.5726  12.5726
    13.2652  13.2652  13.2713  13.2713  13.5485  13.5485  13.5634  13.5634
    14.2344  14.2344  14.2432  14.2432  14.7094  14.7094  14.7306  14.7306
    14.9623  14.9623  14.9801  14.9801  15.4438  15.4438  15.4607  15.4607
    16.3849  16.3849  16.3925  16.3925  17.1606  17.1648

     occupation numbers 
     1.0000   1.0000   1.0000   1.0000   1.0000   1.0000   1.0000   1.0000
     1.0000   1.0000   1.0000   1.0000   1.0000   1.0000   1.0000   1.0000
     1.0000   1.0000   1.0000   1.0000   1.0000   1.0000   1.0000   1.0000
     1.0000   1.0000   1.0000   1.0000   1.0000   1.0000   1.0000   1.0000
     1.0000   1.0000   1.0000   1.0000   1.0000   1.0000   1.0000   1.0000
     1.0000   1.0000   1.0000   1.0000   1.0000   1.0000   1.0000   1.0000
     1.0000   1.0000   1.0000   1.0000   1.0000   1.0000   1.0000   1.0000
     1.0000   1.0000   1.0000   1.0000   1.0000   1.0000   1.0000   1.0000
     1.0006   1.0006   1.0007   1.0007   1.0099   1.0099   0.9933   0.9933
     0.4677   0.4677   0.4127   0.4127  -0.0141  -0.0141  -0.0119  -0.0119
    -0.0000  -0.0000  -0.0000  -0.0000  -0.0000  -0.0000

          k = 0.1667-0.5000-0.5000 (  5260 PWs)   bands (ev):

   -56.4910 -56.4910 -56.4910 -56.4910 -56.4761 -56.4761 -56.4761 -56.4761
   -28.5712 -28.5712 -28.5710 -28.5710 -28.5361 -28.5361 -28.5359 -28.5359
   -27.6041 -27.6041 -27.5973 -27.5973 -27.5522 -27.5522 -27.5378 -27.5378
   -27.5142 -27.5142 -27.4992 -27.4992 -27.4433 -27.4433 -27.4374 -27.4374
     5.5083   5.5083   5.5097   5.5097   6.5310   6.5310   6.5336   6.5336
     9.8346   9.8346   9.8387   9.8387  10.8960  10.8960  10.8982  10.8982
    12.1893  12.1893  12.1919  12.1919  12.3741  12.3741  12.3772  12.3772
    13.2216  13.2216  13.2223  13.2223  13.7557  13.7557  13.7696  13.7696
    14.3911  14.3911  14.3981  14.3981  14.6959  14.6959  14.7132  14.7132
    14.8373  14.8373  14.8391  14.8391  15.3658  15.3658  15.3660  15.3660
    16.4857  16.4857  16.4873  16.4873  16.9524  16.9556

     occupation numbers 
     1.0000   1.0000   1.0000   1.0000   1.0000   1.0000   1.0000   1.0000
     1.0000   1.0000   1.0000   1.0000   1.0000   1.0000   1.0000   1.0000
     1.0000   1.0000   1.0000   1.0000   1.0000   1.0000   1.0000   1.0000
     1.0000   1.0000   1.0000   1.0000   1.0000   1.0000   1.0000   1.0000
     1.0000   1.0000   1.0000   1.0000   1.0000   1.0000   1.0000   1.0000
     1.0000   1.0000   1.0000   1.0000   1.0000   1.0000   1.0000   1.0000
     1.0000   1.0000   1.0000   1.0000   1.0000   1.0000   1.0000   1.0000
     1.0000   1.0000   1.0000   1.0000   1.0000   1.0000   1.0000   1.0000
     1.0065   1.0065   1.0071   1.0071   1.0179   1.0179   1.0072   1.0072
     0.8238   0.8238   0.8196   0.8196  -0.0267  -0.0267  -0.0267  -0.0267
    -0.0000  -0.0000  -0.0000  -0.0000  -0.0000  -0.0000

          k = 0.3333 0.3333 0.3333 (  5256 PWs)   bands (ev):

   -56.4935 -56.4935 -56.4878 -56.4878 -56.4780 -56.4780 -56.4750 -56.4750
   -28.5771 -28.5739 -28.5660 -28.5659 -28.5454 -28.5435 -28.5290 -28.5275
   -27.6165 -27.6129 -27.5797 -27.5699 -27.5697 -27.5682 -27.5465 -27.5334
   -27.5232 -27.5032 -27.4828 -27.4646 -27.4643 -27.4637 -27.4379 -27.4346
     4.8148   4.8153   5.9671   5.9735   6.6632   6.6735   7.5023   7.5049
     8.7485   8.7535   9.4980   9.5043  10.5493  10.5537  11.1930  11.1948
    12.0053  12.0071  12.4958  12.4989  12.7671  12.7712  12.8474  12.8491
    13.1367  13.1485  13.1946  13.2014  13.2642  13.2664  13.5431  13.5463
    14.1382  14.1428  14.4901  14.4984  14.7906  14.8274  14.8487  14.8604
    14.9942  15.0051  15.1355  15.1414  15.2616  15.2886  15.4119  15.4311
    16.2535  16.2605  16.3876  16.3903  16.9541  16.9624

     occupation numbers 
     1.0000   1.0000   1.0000   1.0000   1.0000   1.0000   1.0000   1.0000
     1.0000   1.0000   1.0000   1.0000   1.0000   1.0000   1.0000   1.0000
     1.0000   1.0000   1.0000   1.0000   1.0000   1.0000   1.0000   1.0000
     1.0000   1.0000   1.0000   1.0000   1.0000   1.0000   1.0000   1.0000
     1.0000   1.0000   1.0000   1.0000   1.0000   1.0000   1.0000   1.0000
     1.0000   1.0000   1.0000   1.0000   1.0000   1.0000   1.0000   1.0000
     1.0000   1.0000   1.0000   1.0000   1.0000   1.0000   1.0000   1.0000
     1.0000   1.0000   1.0000   1.0000   1.0000   1.0000   1.0000   1.0000
     1.0001   1.0001   1.0187   1.0200   0.9167   0.8459   0.7967   0.7674
     0.3703   0.3381   0.0492   0.0413  -0.0342  -0.0354  -0.0190  -0.0160
    -0.0000  -0.0000  -0.0000  -0.0000  -0.0000  -0.0000

          k = 0.3333 0.3333-0.5000 (  5264 PWs)   bands (ev):

   -56.4897 -56.4897 -56.4897 -56.4897 -56.4775 -56.4775 -56.4775 -56.4775
   -28.5703 -28.5703 -28.5667 -28.5667 -28.5408 -28.5408 -28.5376 -28.5376
   -27.6088 -27.6088 -27.5800 -27.5800 -27.5697 -27.5697 -27.5432 -27.5432
   -27.5087 -27.5087 -27.4771 -27.4771 -27.4587 -27.4587 -27.4389 -27.4389
     5.5141   5.5141   5.5160   5.5160   6.9765   6.9765   6.9823   6.9823
     9.0505   9.0505   9.0563   9.0563  10.5633  10.5633  10.5662  10.5662
    12.3836  12.3836  12.3920  12.3920  12.8171  12.8171  12.8247  12.8247
    13.1312  13.1312  13.1422  13.1422  13.3760  13.3760  13.3843  13.3843
    14.4641  14.4641  14.4724  14.4724  14.8594  14.8594  14.8751  14.8751
    15.0791  15.0791  15.0984  15.0984  15.2951  15.2951  15.3114  15.3114
    16.3296  16.3296  16.3390  16.3390  16.9282  16.9292

     occupation numbers 
     1.0000   1.0000   1.0000   1.0000   1.0000   1.0000   1.0000   1.0000
     1.0000   1.0000   1.0000   1.0000   1.0000   1.0000   1.0000   1.0000
     1.0000   1.0000   1.0000   1.0000   1.0000   1.0000   1.0000   1.0000
     1.0000   1.0000   1.0000   1.0000   1.0000   1.0000   1.0000   1.0000
     1.0000   1.0000   1.0000   1.0000   1.0000   1.0000   1.0000   1.0000
     1.0000   1.0000   1.0000   1.0000   1.0000   1.0000   1.0000   1.0000
     1.0000   1.0000   1.0000   1.0000   1.0000   1.0000   1.0000   1.0000
     1.0000   1.0000   1.0000   1.0000   1.0000   1.0000   1.0000   1.0000
     1.0147   1.0147   1.0159   1.0159   0.7700   0.7700   0.7287   0.7287
     0.1482   0.1482   0.1096   0.1096  -0.0353  -0.0353  -0.0342  -0.0342
    -0.0000  -0.0000  -0.0000  -0.0000  -0.0000  -0.0000

          k = 0.3333-0.5000-0.5000 (  5272 PWs)   bands (ev):

   -56.4879 -56.4879 -56.4879 -56.4879 -56.4793 -56.4793 -56.4793 -56.4793
   -28.5644 -28.5644 -28.5641 -28.5641 -28.5442 -28.5442 -28.5438 -28.5438
   -27.5982 -27.5982 -27.5898 -27.5898 -27.5699 -27.5699 -27.5476 -27.5476
   -27.5011 -27.5011 -27.4790 -27.4790 -27.4537 -27.4537 -27.4455 -27.4455
     5.8924   5.8924   5.8954   5.8954   6.6651   6.6651   6.6706   6.6706
     9.0938   9.0938   9.1004   9.1004  10.0573  10.0573  10.0614  10.0614
    12.6126  12.6126  12.6166  12.6166  12.7982  12.7982  12.8003  12.8003
    13.0411  13.0411  13.0411  13.0411  13.3506  13.3506  13.3612  13.3612
    14.6547  14.6547  14.6623  14.6623  14.9712  14.9712  14.9787  14.9787
    15.0632  15.0632  15.0687  15.0687  15.2538  15.2538  15.2656  15.2656
    16.3666  16.3666  16.3680  16.3680  16.7195  16.7198

     occupation numbers 
     1.0000   1.0000   1.0000   1.0000   1.0000   1.0000   1.0000   1.0000
     1.0000   1.0000   1.0000   1.0000   1.0000   1.0000   1.0000   1.0000
     1.0000   1.0000   1.0000   1.0000   1.0000   1.0000   1.0000   1.0000
     1.0000   1.0000   1.0000   1.0000   1.0000   1.0000   1.0000   1.0000
     1.0000   1.0000   1.0000   1.0000   1.0000   1.0000   1.0000   1.0000
     1.0000   1.0000   1.0000   1.0000   1.0000   1.0000   1.0000   1.0000
     1.0000   1.0000   1.0000   1.0000   1.0000   1.0000   1.0000   1.0000
     1.0000   1.0000   1.0000   1.0000   1.0000   1.0000   1.0000   1.0000
     1.0322   1.0322   1.0306   1.0306   0.4402   0.4402   0.4172   0.4172
     0.1838   0.1838   0.1711   0.1711  -0.0331  -0.0331  -0.0346  -0.0346
    -0.0000  -0.0000  -0.0000  -0.0000  -0.0000  -0.0000

          k =-0.5000-0.5000-0.5000 (  5232 PWs)   bands (ev):

   -56.4836 -56.4836 -56.4836 -56.4836 -56.4836 -56.4836 -56.4836 -56.4836
   -28.5549 -28.5549 -28.5541 -28.5541 -28.5541 -28.5541 -28.5541 -28.5541
   -27.5859 -27.5859 -27.5859 -27.5859 -27.5859 -27.5859 -27.5515 -27.5515
   -27.4939 -27.4939 -27.4600 -27.4600 -27.4600 -27.4600 -27.4600 -27.4600
     6.3994   6.3994   6.3994   6.3994   6.3994   6.3994   6.4096   6.4096
     9.2386   9.2386   9.2509   9.2509   9.2509   9.2509   9.2509   9.2509
    12.9159  12.9159  12.9224  12.9224  12.9224  12.9224  12.9224  12.9224
    12.9990  12.9990  13.0038  13.0038  13.0038  13.0038  13.0038  13.0038
    14.9327  14.9327  14.9347  14.9347  14.9347  14.9347  14.9347  14.9347
    15.2354  15.2354  15.2354  15.2354  15.2354  15.2354  15.2785  15.2785
    16.4092  16.4095  16.4215  16.4215  16.4215  16.4215

     occupation numbers 
     1.0000   1.0000   1.0000   1.0000   1.0000   1.0000   1.0000   1.0000
     1.0000   1.0000   1.0000   1.0000   1.0000   1.0000   1.0000   1.0000
     1.0000   1.0000   1.0000   1.0000   1.0000   1.0000   1.0000   1.0000
     1.0000   1.0000   1.0000   1.0000   1.0000   1.0000   1.0000   1.0000
     1.0000   1.0000   1.0000   1.0000   1.0000   1.0000   1.0000   1.0000
     1.0000   1.0000   1.0000   1.0000   1.0000   1.0000   1.0000   1.0000
     1.0000   1.0000   1.0000   1.0000   1.0000   1.0000   1.0000   1.0000
     1.0000   1.0000   1.0000   1.0000   1.0000   1.0000   1.0000   1.0000
     0.5594   0.5594   0.5535   0.5535   0.5535   0.5535   0.5535   0.5535
    -0.0290  -0.0290  -0.0290  -0.0290  -0.0290  -0.0290  -0.0354  -0.0354
    -0.0000  -0.0000  -0.0000  -0.0000  -0.0000  -0.0000

          k = 0.0000 0.3333 0.1667 (  5255 PWs)   bands (ev):

   -56.5016 -56.5016 -56.4880 -56.4880 -56.4740 -56.4740 -56.4708 -56.4708
   -28.5884 -28.5834 -28.5771 -28.5753 -28.5431 -28.5403 -28.5056 -28.5049
   -27.6349 -27.6296 -27.5787 -27.5777 -27.5604 -27.5482 -27.5426 -27.5340
   -27.5214 -27.4953 -27.4849 -27.4736 -27.4645 -27.4533 -27.4401 -27.4367
     3.6332   3.6333   5.5378   5.5388   7.3654   7.3666   8.4328   8.4393
     9.7434   9.7458  10.2568  10.2629  10.9714  10.9745  11.0975  11.1000
    11.8631  11.8653  12.2420  12.2460  12.7972  12.8022  12.9751  12.9803
    13.0657  13.0719  13.2440  13.2503  13.3402  13.3448  13.4882  13.4929
    13.5380  13.5405  13.9660  13.9760  14.2294  14.2414  14.8899  14.9218
    15.2779  15.2961  15.3380  15.3550  15.6458  15.6734  15.7849  15.8107
    16.1554  16.1678  16.4227  16.4369  17.2720  17.3018

     occupation numbers 
     1.0000   1.0000   1.0000   1.0000   1.0000   1.0000   1.0000   1.0000
     1.0000   1.0000   1.0000   1.0000   1.0000   1.0000   1.0000   1.0000
     1.0000   1.0000   1.0000   1.0000   1.0000   1.0000   1.0000   1.0000
     1.0000   1.0000   1.0000   1.0000   1.0000   1.0000   1.0000   1.0000
     1.0000   1.0000   1.0000   1.0000   1.0000   1.0000   1.0000   1.0000
     1.0000   1.0000   1.0000   1.0000   1.0000   1.0000   1.0000   1.0000
     1.0000   1.0000   1.0000   1.0000   1.0000   1.0000   1.0000   1.0000
     1.0000   1.0000   1.0000   1.0000   1.0000   1.0000   1.0000   1.0000
     1.0000   1.0000   1.0000   1.0000   1.0006   1.0007   0.6874   0.5929
    -0.0353  -0.0352  -0.0311  -0.0285  -0.0009  -0.0006  -0.0001  -0.0000
    -0.0000  -0.0000  -0.0000  -0.0000  -0.0000  -0.0000

          k = 0.0000-0.5000 0.1667 (  5268 PWs)   bands (ev):

   -56.4950 -56.4950 -56.4950 -56.4950 -56.4722 -56.4722 -56.4722 -56.4722
   -28.5847 -28.5847 -28.5792 -28.5792 -28.5246 -28.5246 -28.5218 -28.5218
   -27.6334 -27.6334 -27.5718 -27.5718 -27.5590 -27.5590 -27.5342 -27.5342
   -27.5119 -27.5119 -27.4798 -27.4798 -27.4602 -27.4602 -27.4375 -27.4375
     4.4935   4.4935   4.4940   4.4940   7.8973   7.8973   7.9020   7.9020
    10.1029  10.1029  10.1078  10.1078  10.8752  10.8752  10.8823  10.8823
    12.1415  12.1415  12.1464  12.1464  12.8621  12.8621  12.8712  12.8712
    13.1083  13.1083  13.1163  13.1163  13.3970  13.3970  13.4061  13.4061
    13.8075  13.8075  13.8129  13.8129  14.6074  14.6074  14.6385  14.6385
    15.2596  15.2596  15.2819  15.2819  15.6837  15.6837  15.7122  15.7122
    16.2162  16.2162  16.2279  16.2279  17.5930  17.5988

     occupation numbers 
     1.0000   1.0000   1.0000   1.0000   1.0000   1.0000   1.0000   1.0000
     1.0000   1.0000   1.0000   1.0000   1.0000   1.0000   1.0000   1.0000
     1.0000   1.0000   1.0000   1.0000   1.0000   1.0000   1.0000   1.0000
     1.0000   1.0000   1.0000   1.0000   1.0000   1.0000   1.0000   1.0000
     1.0000   1.0000   1.0000   1.0000   1.0000   1.0000   1.0000   1.0000
     1.0000   1.0000   1.0000   1.0000   1.0000   1.0000   1.0000   1.0000
     1.0000   1.0000   1.0000   1.0000   1.0000   1.0000   1.0000   1.0000
     1.0000   1.0000   1.0000   1.0000   1.0000   1.0000   1.0000   1.0000
     1.0000   1.0000   1.0000   1.0000   1.0352   1.0352   1.0346   1.0346
    -0.0339  -0.0339  -0.0354  -0.0354  -0.0005  -0.0005  -0.0003  -0.0003
    -0.0000  -0.0000  -0.0000  -0.0000  -0.0000  -0.0000

          k = 0.0000-0.5000 0.3333 (  5260 PWs)   bands (ev):

   -56.4932 -56.4932 -56.4932 -56.4932 -56.4740 -56.4740 -56.4740 -56.4740
   -28.5788 -28.5788 -28.5746 -28.5746 -28.5309 -28.5309 -28.5278 -28.5278
   -27.6215 -27.6215 -27.5835 -27.5835 -27.5504 -27.5504 -27.5313 -27.5313
   -27.5210 -27.5210 -27.4982 -27.4982 -27.4476 -27.4476 -27.4333 -27.4333
     4.9495   4.9495   4.9503   4.9503   7.0321   7.0321   7.0346   7.0346
    10.5073  10.5073  10.5107  10.5107  10.8274  10.8274  10.8296  10.8296
    11.9940  11.9940  11.9994  11.9994  12.4098  12.4098  12.4202  12.4202
    13.2673  13.2673  13.2737  13.2737  13.9142  13.9142  13.9206  13.9206
    13.9558  13.9558  13.9689  13.9689  14.6431  14.6431  14.6765  14.6765
    14.9025  14.9025  14.9384  14.9384  15.4796  15.4796  15.5027  15.5027
    16.3869  16.3869  16.3988  16.3988  17.2955  17.2997

     occupation numbers 
     1.0000   1.0000   1.0000   1.0000   1.0000   1.0000   1.0000   1.0000
     1.0000   1.0000   1.0000   1.0000   1.0000   1.0000   1.0000   1.0000
     1.0000   1.0000   1.0000   1.0000   1.0000   1.0000   1.0000   1.0000
     1.0000   1.0000   1.0000   1.0000   1.0000   1.0000   1.0000   1.0000
     1.0000   1.0000   1.0000   1.0000   1.0000   1.0000   1.0000   1.0000
     1.0000   1.0000   1.0000   1.0000   1.0000   1.0000   1.0000   1.0000
     1.0000   1.0000   1.0000   1.0000   1.0000   1.0000   1.0000   1.0000
     1.0000   1.0000   1.0000   1.0000   1.0000   1.0000   1.0000   1.0000
     1.0000   1.0000   1.0000   1.0000   1.0341   1.0341   1.0263   1.0263
     0.6507   0.6507   0.5420   0.5420  -0.0097  -0.0097  -0.0074  -0.0074
    -0.0000  -0.0000  -0.0000  -0.0000  -0.0000  -0.0000

          k =-0.1667-0.5000 0.3333 (  5240 PWs)   bands (ev):

   -56.4922 -56.4922 -56.4922 -56.4922 -56.4750 -56.4750 -56.4750 -56.4750
   -28.5764 -28.5764 -28.5722 -28.5722 -28.5338 -28.5338 -28.5305 -28.5305
   -27.6181 -27.6181 -27.5814 -27.5814 -27.5581 -27.5581 -27.5334 -27.5334
   -27.5201 -27.5201 -27.4883 -27.4883 -27.4523 -27.4523 -27.4340 -27.4340
     5.1003   5.1003   5.1014   5.1014   7.0756   7.0756   7.0794   7.0794
     9.6364   9.6364   9.6391   9.6391  11.1978  11.1978  11.2008  11.2008
    11.9967  11.9967  12.0033  12.0033  12.6308  12.6308  12.6411  12.6411
    13.1718  13.1718  13.1797  13.1797  13.6495  13.6495  13.6612  13.6612
    14.1696  14.1696  14.1789  14.1789  14.7160  14.7160  14.7412  14.7412
    14.9616  14.9616  14.9929  14.9929  15.4243  15.4243  15.4414  15.4414
    16.3564  16.3564  16.3672  16.3672  17.2159  17.2235

     occupation numbers 
     1.0000   1.0000   1.0000   1.0000   1.0000   1.0000   1.0000   1.0000
     1.0000   1.0000   1.0000   1.0000   1.0000   1.0000   1.0000   1.0000
     1.0000   1.0000   1.0000   1.0000   1.0000   1.0000   1.0000   1.0000
     1.0000   1.0000   1.0000   1.0000   1.0000   1.0000   1.0000   1.0000
     1.0000   1.0000   1.0000   1.0000   1.0000   1.0000   1.0000   1.0000
     1.0000   1.0000   1.0000   1.0000   1.0000   1.0000   1.0000   1.0000
     1.0000   1.0000   1.0000   1.0000   1.0000   1.0000   1.0000   1.0000
     1.0000   1.0000   1.0000   1.0000   1.0000   1.0000   1.0000   1.0000
     1.0002   1.0002   1.0002   1.0002   1.0053   1.0053   0.9832   0.9832
     0.4698   0.4698   0.3741   0.3741  -0.0170  -0.0170  -0.0145  -0.0145
    -0.0000  -0.0000  -0.0000  -0.0000  -0.0000  -0.0000

     the Fermi energy is    14.9519 ev

!    total energy              =   -1180.33334237 Ry

     total all-electron energy =    -10727.794179 Ry
     estimated scf accuracy    <       0.00000046 Ry
     smearing contrib. (-TS)   =      -0.00131193 Ry
     internal energy E=F+TS    =   -1180.33203045 Ry

     The total energy is F=E-TS. E is the sum of the following terms:
     one-electron contribution =    -336.79359432 Ry
     hartree contribution      =     207.04114389 Ry
     xc contribution           =    -114.35505788 Ry
     ewald contribution        =    -496.51183961 Ry
     one-center paw contrib.   =    -439.71268253 Ry
      -> PAW hartree energy AE =     126.52499332 Ry
      -> PAW hartree energy PS =    -125.56058535 Ry
      -> PAW xc energy AE      =     -96.21535649 Ry
      -> PAW xc energy PS      =      20.91297834 Ry
      -> total E_H with PAW    =     208.00555186 Ry
      -> total E_XC with PAW   =    -189.65743603 Ry

     convergence has been achieved in   8 iterations

     Writing output data file /zfs_data/vergnior/martin/Scratch/OAL/CrSi/convergence/cutoff/6x6x6/60/tmp/CrSi.save/
 
     init_run     :      2.68s CPU      2.83s WALL (       1 calls)
     electrons    :     70.85s CPU     73.37s WALL (       1 calls)

     Called by init_run:
     wfcinit      :      1.94s CPU      2.02s WALL (       1 calls)
     wfcinit:atom :      0.02s CPU      0.02s WALL (      24 calls)
     wfcinit:wfcr :      1.86s CPU      1.93s WALL (      24 calls)
     potinit      :      0.15s CPU      0.16s WALL (       1 calls)
     hinit0       :      0.14s CPU      0.14s WALL (       1 calls)

     Called by electrons:
     c_bands      :     57.36s CPU     58.88s WALL (       9 calls)
     sum_band     :      9.62s CPU     10.27s WALL (       9 calls)
     v_of_rho     :      0.09s CPU      0.09s WALL (       9 calls)
     v_h          :      0.01s CPU      0.01s WALL (       9 calls)
     v_xc         :      0.08s CPU      0.09s WALL (       9 calls)
     newd         :      3.02s CPU      3.34s WALL (       9 calls)
     PAW_pot      :      1.11s CPU      1.13s WALL (       9 calls)
     mix_rho      :      0.06s CPU      0.07s WALL (       9 calls)

     Called by c_bands:
     init_us_2    :      0.23s CPU      0.24s WALL (     456 calls)
     cegterg      :     52.87s CPU     54.35s WALL (     216 calls)

     Called by sum_band:
     sum_band:wei :      0.03s CPU      0.03s WALL (       9 calls)
     sum_band:loo :      7.91s CPU      8.15s WALL (       9 calls)
     sum_band:buf :      0.09s CPU      0.09s WALL (     216 calls)
     sum_band:ini :      0.11s CPU      0.12s WALL (     216 calls)
     sum_band:cal :      0.71s CPU      0.72s WALL (     216 calls)
     sum_band:bec :      2.75s CPU      2.76s WALL (     216 calls)
     addusdens    :      1.61s CPU      2.02s WALL (       9 calls)
     addusd:skk   :      0.00s CPU      0.00s WALL (      18 calls)
     addusd:dgemm :      0.63s CPU      1.02s WALL (      18 calls)
     addusd:qvan2 :      0.96s CPU      0.96s WALL (      18 calls)

     Called by *egterg:
     cdiaghg      :      8.20s CPU      8.27s WALL (    1190 calls)
     cegterg:over :      2.47s CPU      2.49s WALL (     998 calls)
     cegterg:upda :      1.26s CPU      1.27s WALL (     998 calls)
     cegterg:last :      2.56s CPU      2.58s WALL (     655 calls)
     h_psi        :     31.79s CPU     33.18s WALL (    1238 calls)
     s_psi        :      7.14s CPU      7.18s WALL (    1238 calls)
     g_psi        :      0.09s CPU      0.09s WALL (     998 calls)

     Called by h_psi:
     h_psi:calbec :      2.58s CPU      2.63s WALL (    1238 calls)
     vloc_psi     :     22.44s CPU     23.73s WALL (    1238 calls)
     add_vuspsi   :      6.61s CPU      6.66s WALL (    1238 calls)

     General routines
     calbec       :      3.28s CPU      3.35s WALL (    1454 calls)
     fft          :      0.08s CPU      0.09s WALL (     188 calls)
     ffts         :      0.01s CPU      0.01s WALL (      72 calls)
     fftw         :     20.61s CPU     21.78s WALL (  302120 calls)
     interpolate  :      0.02s CPU      0.02s WALL (      36 calls)
 
     Parallel routines
     fft_scatt_xy :      2.41s CPU      2.55s WALL (  302380 calls)
     fft_scatt_yz :     11.60s CPU     12.24s WALL (  302380 calls)

     PAW routines
     PAW_pot      :      1.11s CPU      1.13s WALL (       9 calls)
     PAW_symme    :      0.02s CPU      0.02s WALL (      18 calls)
 
     PWSCF        :   1m16.35s CPU   1m19.64s WALL

 
   This run was terminated on:  18:35:59  30Jul2021            

=------------------------------------------------------------------------------=
   JOB DONE.
=------------------------------------------------------------------------------=
