     Program PWSCF v.6.7MaX starts on  7Sep2021 at 10: 4:44 

     This program is part of the open-source Quantum ESPRESSO suite
     for quantum simulation of materials; please cite
         "P. Giannozzi et al., J. Phys.:Condens. Matter 21 395502 (2009);
         "P. Giannozzi et al., J. Phys.:Condens. Matter 29 465901 (2017);
          URL http://www.quantum-espresso.org", 
     in publications or presentations arising from this work. More details at
     http://www.quantum-espresso.org/quote

     Parallel version (MPI), running on    48 processors

     MPI processes distributed on     1 nodes
     R & G space division:  proc/nbgrp/npool/nimage =      48
     Waiting for input...
     Reading input from standard input

     Current dimensions of program PWSCF are:
     Max number of different atomic species (ntypx) = 10
     Max number of k-points (npk) =  40000
     Max angular momentum in pseudopotentials (lmaxx) =  3

     Atomic positions and unit cell read from directory:
     /zfs_data/vergnior/martin/Scratch/CsV3Sb5/P6mmm/bands/tmp/CsV3Sb5.save/
     Atomic positions from file used, from input discarded
 
     file Cs.rel-pbe-spn-kjpaw_psl.1.0.0.UPF: wavefunction(s)  5S 6S renormalized
     file V.rel-pbe-spnl-kjpaw_psl.1.0.0.UPF: wavefunction(s)  3P 3P 3D 3D renormalized
     file Sb.rel-pbe-n-kjpaw_psl.1.0.0.UPF: wavefunction(s)  5S renormalized

     Subspace diagonalization in iterative solution of the eigenvalue problem:
     a serial algorithm will be used

     Message from routine setup:
     using ibrav=0 with symmetry is DISCOURAGED, use correct ibrav instead
 
     Parallelization info
     --------------------
     sticks:   dense  smooth     PW     G-vecs:    dense   smooth      PW
     Min         139      56     15                16599     4200     599
     Max         140      57     16                16608     4210     608
     Sum        6715    2689    745               796925   201905   28907
 


     bravais-lattice index     =            0
     lattice parameter (alat)  =      10.4005  a.u.
     unit-cell volume          =    1748.6128 (a.u.)^3
     number of atoms/cell      =            9
     number of atomic types    =            3
     number of electrons       =        73.00
     number of Kohn-Sham states=           88
     kinetic-energy cutoff     =      90.0000  Ry
     charge density cutoff     =     900.0000  Ry
     Exchange-correlation= SLA  PW   PBX  PBC
                           (   1   4   3   4   0   0   0)
     Non magnetic calculation with spin-orbit


     celldm(1)=  10.400470  celldm(2)=   0.000000  celldm(3)=   0.000000
     celldm(4)=   0.000000  celldm(5)=   0.000000  celldm(6)=   0.000000

     crystal axes: (cart. coord. in units of alat)
               a(1) = (   1.000000   0.000000   0.000000 )  
               a(2) = (  -0.500000   0.866025   0.000000 )  
               a(3) = (   0.000000   0.000000   1.794751 )  

     reciprocal axes: (cart. coord. in units 2 pi/alat)
               b(1) = (  1.000000  0.577350  0.000000 )  
               b(2) = (  0.000000  1.154701  0.000000 )  
               b(3) = (  0.000000  0.000000  0.557180 )  


     PseudoPot. # 1 for Cs read from file:
     /zfs_data/vergnior/martin/Scratch/CsV3Sb5/P6mmm/bands/pseudo/Cs.rel-pbe-spn-kjpaw_psl.1.0.0.UPF
     MD5 check sum: a112b951ec9e765992cdd678db6f3609
     Pseudo is Projector augmented-wave + core cor, Zval =  9.0
     Generated using &quot;atomic&quot; code by A. Dal Corso  v.6.4.1
     Shape of augmentation charge: PSQ
     Using radial grid of 1251 points, 15 beta functions with: 
                l(1) =   0
                l(2) =   0
                l(3) =   0
                l(4) =   1
                l(5) =   1
                l(6) =   1
                l(7) =   1
                l(8) =   2
                l(9) =   2
               l(10) =   2
               l(11) =   2
               l(12) =   3
               l(13) =   3
               l(14) =   3
               l(15) =   3
     Q(r) pseudized with 0 coefficients 


     PseudoPot. # 2 for V  read from file:
     /zfs_data/vergnior/martin/Scratch/CsV3Sb5/P6mmm/bands/pseudo/V.rel-pbe-spnl-kjpaw_psl.1.0.0.UPF
     MD5 check sum: e977907b3d84fd67c1b4d432f1cac99b
     Pseudo is Projector augmented-wave + core cor, Zval = 13.0
     Generated using &quot;atomic&quot; code by A. Dal Corso  v.6.3
     Shape of augmentation charge: PSQ
     Using radial grid of 1181 points, 10 beta functions with: 
                l(1) =   0
                l(2) =   0
                l(3) =   1
                l(4) =   1
                l(5) =   1
                l(6) =   1
                l(7) =   2
                l(8) =   2
                l(9) =   2
               l(10) =   2
     Q(r) pseudized with 0 coefficients 


     PseudoPot. # 3 for Sb read from file:
     /zfs_data/vergnior/martin/Scratch/CsV3Sb5/P6mmm/bands/pseudo/Sb.rel-pbe-n-kjpaw_psl.1.0.0.UPF
     MD5 check sum: fdb47162c1d03e2226be93e80d85f130
     Pseudo is Projector augmented-wave + core cor, Zval =  5.0
     Generated using &quot;atomic&quot; code by A. Dal Corso  v.6.2.2
     Shape of augmentation charge: PSQ
     Using radial grid of 1243 points, 10 beta functions with: 
                l(1) =   0
                l(2) =   0
                l(3) =   1
                l(4) =   1
                l(5) =   1
                l(6) =   1
                l(7) =   2
                l(8) =   2
                l(9) =   2
               l(10) =   2
     Q(r) pseudized with 0 coefficients 


     atomic species   valence    mass     pseudopotential
        Cs             9.00   132.90500     Cs( 1.00)
        V             13.00    50.94100     V ( 1.00)
        Sb             5.00   121.76000     Sb( 1.00)

     24 Sym. Ops., with inversion, found


                                    s                        frac. trans.

      isym =  1     identity                                     

 cryst.   s( 1) = (     1          0          0      )
                  (     0          1          0      )
                  (     0          0          1      )

 cart.    s( 1) = (  1.0000000  0.0000000  0.0000000 )
                  (  0.0000000  1.0000000  0.0000000 )
                  (  0.0000000  0.0000000  1.0000000 )


      isym =  2     180 deg rotation - cart. axis [0,0,1]        

 cryst.   s( 2) = (    -1          0          0      )
                  (     0         -1          0      )
                  (     0          0          1      )

 cart.    s( 2) = ( -1.0000000  0.0000000  0.0000000 )
                  (  0.0000000 -1.0000000  0.0000000 )
                  (  0.0000000  0.0000000  1.0000000 )


      isym =  3     180 deg rotation - cart. axis [0,1,0]        

 cryst.   s( 3) = (    -1          0          0      )
                  (     1          1          0      )
                  (     0          0         -1      )

 cart.    s( 3) = ( -1.0000000  0.0000000  0.0000000 )
                  (  0.0000000  1.0000000  0.0000000 )
                  (  0.0000000  0.0000000 -1.0000000 )


      isym =  4     180 deg rotation - cart. axis [1,0,0]        

 cryst.   s( 4) = (     1          0          0      )
                  (    -1         -1          0      )
                  (     0          0         -1      )

 cart.    s( 4) = (  1.0000000 -0.0000000  0.0000000 )
                  (  0.0000000 -1.0000000  0.0000000 )
                  (  0.0000000  0.0000000 -1.0000000 )


      isym =  5      60 deg rotation - cryst. axis [0,0,1]       

 cryst.   s( 5) = (     1          1          0      )
                  (    -1          0          0      )
                  (     0          0          1      )

 cart.    s( 5) = (  0.5000000 -0.8660254  0.0000000 )
                  (  0.8660254  0.5000000  0.0000000 )
                  (  0.0000000  0.0000000  1.0000000 )


      isym =  6      60 deg rotation - cryst. axis [0,0,-1]      

 cryst.   s( 6) = (     0         -1          0      )
                  (     1          1          0      )
                  (     0          0          1      )

 cart.    s( 6) = (  0.5000000  0.8660254  0.0000000 )
                  ( -0.8660254  0.5000000  0.0000000 )
                  (  0.0000000  0.0000000  1.0000000 )


      isym =  7     120 deg rotation - cryst. axis [0,0,1]       

 cryst.   s( 7) = (     0          1          0      )
                  (    -1         -1          0      )
                  (     0          0          1      )

 cart.    s( 7) = ( -0.5000000 -0.8660254  0.0000000 )
                  (  0.8660254 -0.5000000  0.0000000 )
                  (  0.0000000  0.0000000  1.0000000 )


      isym =  8     120 deg rotation - cryst. axis [0,0,-1]      

 cryst.   s( 8) = (    -1         -1          0      )
                  (     1          0          0      )
                  (     0          0          1      )

 cart.    s( 8) = ( -0.5000000  0.8660254  0.0000000 )
                  ( -0.8660254 -0.5000000  0.0000000 )
                  (  0.0000000  0.0000000  1.0000000 )


      isym =  9     180 deg rotation - cryst. axis [1,-1,0]      

 cryst.   s( 9) = (     0         -1          0      )
                  (    -1          0          0      )
                  (     0          0         -1      )

 cart.    s( 9) = (  0.5000000 -0.8660254  0.0000000 )
                  ( -0.8660254 -0.5000000  0.0000000 )
                  (  0.0000000  0.0000000 -1.0000000 )


      isym = 10     180 deg rotation - cryst. axis [2,1,0]       

 cryst.   s(10) = (     1          1          0      )
                  (     0         -1          0      )
                  (     0          0         -1      )

 cart.    s(10) = (  0.5000000  0.8660254  0.0000000 )
                  (  0.8660254 -0.5000000  0.0000000 )
                  (  0.0000000  0.0000000 -1.0000000 )


      isym = 11     180 deg rotation - cryst. axis [0,1,0]       

 cryst.   s(11) = (    -1         -1          0      )
                  (     0          1          0      )
                  (     0          0         -1      )

 cart.    s(11) = ( -0.5000000 -0.8660254  0.0000000 )
                  ( -0.8660254  0.5000000  0.0000000 )
                  (  0.0000000  0.0000000 -1.0000000 )


      isym = 12     180 deg rotation - cryst. axis [1,1,0]       

 cryst.   s(12) = (     0          1          0      )
                  (     1          0          0      )
                  (     0          0         -1      )

 cart.    s(12) = ( -0.5000000  0.8660254  0.0000000 )
                  (  0.8660254  0.5000000  0.0000000 )
                  (  0.0000000  0.0000000 -1.0000000 )


      isym = 13     inversion                                    

 cryst.   s(13) = (    -1          0          0      )
                  (     0         -1          0      )
                  (     0          0         -1      )

 cart.    s(13) = ( -1.0000000  0.0000000  0.0000000 )
                  (  0.0000000 -1.0000000  0.0000000 )
                  (  0.0000000  0.0000000 -1.0000000 )


      isym = 14     inv. 180 deg rotation - cart. axis [0,0,1]   

 cryst.   s(14) = (     1          0          0      )
                  (     0          1          0      )
                  (     0          0         -1      )

 cart.    s(14) = (  1.0000000  0.0000000  0.0000000 )
                  (  0.0000000  1.0000000  0.0000000 )
                  (  0.0000000  0.0000000 -1.0000000 )


      isym = 15     inv. 180 deg rotation - cart. axis [0,1,0]   

 cryst.   s(15) = (     1          0          0      )
                  (    -1         -1          0      )
                  (     0          0          1      )

 cart.    s(15) = (  1.0000000 -0.0000000  0.0000000 )
                  (  0.0000000 -1.0000000  0.0000000 )
                  (  0.0000000  0.0000000  1.0000000 )


      isym = 16     inv. 180 deg rotation - cart. axis [1,0,0]   

 cryst.   s(16) = (    -1          0          0      )
                  (     1          1          0      )
                  (     0          0          1      )

 cart.    s(16) = ( -1.0000000  0.0000000  0.0000000 )
                  (  0.0000000  1.0000000  0.0000000 )
                  (  0.0000000  0.0000000  1.0000000 )


      isym = 17     inv.  60 deg rotation - cryst. axis [0,0,1]  

 cryst.   s(17) = (    -1         -1          0      )
                  (     1          0          0      )
                  (     0          0         -1      )

 cart.    s(17) = ( -0.5000000  0.8660254  0.0000000 )
                  ( -0.8660254 -0.5000000  0.0000000 )
                  (  0.0000000  0.0000000 -1.0000000 )


      isym = 18     inv.  60 deg rotation - cryst. axis [0,0,-1] 

 cryst.   s(18) = (     0          1          0      )
                  (    -1         -1          0      )
                  (     0          0         -1      )

 cart.    s(18) = ( -0.5000000 -0.8660254  0.0000000 )
                  (  0.8660254 -0.5000000  0.0000000 )
                  (  0.0000000  0.0000000 -1.0000000 )


      isym = 19     inv. 120 deg rotation - cryst. axis [0,0,1]  

 cryst.   s(19) = (     0         -1          0      )
                  (     1          1          0      )
                  (     0          0         -1      )

 cart.    s(19) = (  0.5000000  0.8660254  0.0000000 )
                  ( -0.8660254  0.5000000  0.0000000 )
                  (  0.0000000  0.0000000 -1.0000000 )


      isym = 20     inv. 120 deg rotation - cryst. axis [0,0,-1] 

 cryst.   s(20) = (     1          1          0      )
                  (    -1          0          0      )
                  (     0          0         -1      )

 cart.    s(20) = (  0.5000000 -0.8660254  0.0000000 )
                  (  0.8660254  0.5000000  0.0000000 )
                  (  0.0000000  0.0000000 -1.0000000 )


      isym = 21     inv. 180 deg rotation - cryst. axis [1,-1,0] 

 cryst.   s(21) = (     0          1          0      )
                  (     1          0          0      )
                  (     0          0          1      )

 cart.    s(21) = ( -0.5000000  0.8660254  0.0000000 )
                  (  0.8660254  0.5000000  0.0000000 )
                  (  0.0000000  0.0000000  1.0000000 )


      isym = 22     inv. 180 deg rotation - cryst. axis [2,1,0]  

 cryst.   s(22) = (    -1         -1          0      )
                  (     0          1          0      )
                  (     0          0          1      )

 cart.    s(22) = ( -0.5000000 -0.8660254  0.0000000 )
                  ( -0.8660254  0.5000000  0.0000000 )
                  (  0.0000000  0.0000000  1.0000000 )


      isym = 23     inv. 180 deg rotation - cryst. axis [0,1,0]  

 cryst.   s(23) = (     1          1          0      )
                  (     0         -1          0      )
                  (     0          0          1      )

 cart.    s(23) = (  0.5000000  0.8660254  0.0000000 )
                  (  0.8660254 -0.5000000  0.0000000 )
                  (  0.0000000  0.0000000  1.0000000 )


      isym = 24     inv. 180 deg rotation - cryst. axis [1,1,0]  

 cryst.   s(24) = (     0         -1          0      )
                  (    -1          0          0      )
                  (     0          0          1      )

 cart.    s(24) = (  0.5000000 -0.8660254  0.0000000 )
                  ( -0.8660254 -0.5000000  0.0000000 )
                  (  0.0000000  0.0000000  1.0000000 )


   Cartesian axes

     site n.     atom                  positions (alat units)
         1           Cs  tau(   1) = (   0.0000000   0.0000000   0.0000000  )
         2           V   tau(   2) = (   0.5000000   0.0000000   0.8973753  )
         3           V   tau(   3) = (  -0.2500000   0.4330127   0.8973753  )
         4           V   tau(   4) = (   0.2500000   0.4330127   0.8973753  )
         5           Sb  tau(   5) = (   0.0000000   0.0000000   0.8973753  )
         6           Sb  tau(   6) = (   0.5000000  -0.2886751   1.3104283  )
         7           Sb  tau(   7) = (  -0.5000000   0.2886751   1.3104283  )
         8           Sb  tau(   8) = (   0.5000000  -0.2886751  -1.3104283  )
         9           Sb  tau(   9) = (  -0.5000000   0.2886751  -1.3104283  )

   Crystallographic axes

     site n.     atom                  positions (cryst. coord.)
         1           Cs  tau(   1) = (  0.0000000  0.0000000  0.0000000  )
         2           V   tau(   2) = (  0.5000000  0.0000000  0.5000000  )
         3           V   tau(   3) = (  0.0000000  0.5000000  0.5000000  )
         4           V   tau(   4) = (  0.5000000  0.5000000  0.5000000  )
         5           Sb  tau(   5) = (  0.0000000  0.0000000  0.5000000  )
         6           Sb  tau(   6) = (  0.3333333 -0.3333333  0.7301451  )
         7           Sb  tau(   7) = ( -0.3333333  0.3333333  0.7301451  )
         8           Sb  tau(   8) = (  0.3333333 -0.3333333 -0.7301451  )
         9           Sb  tau(   9) = ( -0.3333333  0.3333333 -0.7301451  )

     number of k points=   903  Methfessel-Paxton smearing, width (Ry)=  0.0200
                       cart. coord. in units 2pi/alat
        k(    1) = (   0.0000000   0.0000000   0.0000000), wk =   0.0011074
        k(    2) = (   0.0050000   0.0028868   0.0000000), wk =   0.0011074
        k(    3) = (   0.0100000   0.0057735   0.0000000), wk =   0.0011074
        k(    4) = (   0.0150000   0.0086603   0.0000000), wk =   0.0011074
        k(    5) = (   0.0200000   0.0115470   0.0000000), wk =   0.0011074
        k(    6) = (   0.0250000   0.0144338   0.0000000), wk =   0.0011074
        k(    7) = (   0.0300000   0.0173205   0.0000000), wk =   0.0011074
        k(    8) = (   0.0350000   0.0202073   0.0000000), wk =   0.0011074
        k(    9) = (   0.0400000   0.0230940   0.0000000), wk =   0.0011074
        k(   10) = (   0.0450000   0.0259808   0.0000000), wk =   0.0011074
        k(   11) = (   0.0500000   0.0288675   0.0000000), wk =   0.0011074
        k(   12) = (   0.0550000   0.0317543   0.0000000), wk =   0.0011074
        k(   13) = (   0.0600000   0.0346410   0.0000000), wk =   0.0011074
        k(   14) = (   0.0650000   0.0375278   0.0000000), wk =   0.0011074
        k(   15) = (   0.0700000   0.0404145   0.0000000), wk =   0.0011074
        k(   16) = (   0.0750000   0.0433013   0.0000000), wk =   0.0011074
        k(   17) = (   0.0800000   0.0461880   0.0000000), wk =   0.0011074
        k(   18) = (   0.0850000   0.0490748   0.0000000), wk =   0.0011074
        k(   19) = (   0.0900000   0.0519615   0.0000000), wk =   0.0011074
        k(   20) = (   0.0950000   0.0548483   0.0000000), wk =   0.0011074
        k(   21) = (   0.1000000   0.0577350   0.0000000), wk =   0.0011074
        k(   22) = (   0.1050000   0.0606218   0.0000000), wk =   0.0011074
        k(   23) = (   0.1100000   0.0635085   0.0000000), wk =   0.0011074
        k(   24) = (   0.1150000   0.0663953   0.0000000), wk =   0.0011074
        k(   25) = (   0.1200000   0.0692820   0.0000000), wk =   0.0011074
        k(   26) = (   0.1250000   0.0721688   0.0000000), wk =   0.0011074
        k(   27) = (   0.1300000   0.0750555   0.0000000), wk =   0.0011074
        k(   28) = (   0.1350000   0.0779423   0.0000000), wk =   0.0011074
        k(   29) = (   0.1400000   0.0808290   0.0000000), wk =   0.0011074
        k(   30) = (   0.1450000   0.0837158   0.0000000), wk =   0.0011074
        k(   31) = (   0.1500000   0.0866025   0.0000000), wk =   0.0011074
        k(   32) = (   0.1550000   0.0894893   0.0000000), wk =   0.0011074
        k(   33) = (   0.1600000   0.0923760   0.0000000), wk =   0.0011074
        k(   34) = (   0.1650000   0.0952628   0.0000000), wk =   0.0011074
        k(   35) = (   0.1700000   0.0981495   0.0000000), wk =   0.0011074
        k(   36) = (   0.1750000   0.1010363   0.0000000), wk =   0.0011074
        k(   37) = (   0.1800000   0.1039230   0.0000000), wk =   0.0011074
        k(   38) = (   0.1850000   0.1068098   0.0000000), wk =   0.0011074
        k(   39) = (   0.1900000   0.1096966   0.0000000), wk =   0.0011074
        k(   40) = (   0.1950000   0.1125833   0.0000000), wk =   0.0011074
        k(   41) = (   0.2000000   0.1154701   0.0000000), wk =   0.0011074
        k(   42) = (   0.2050000   0.1183568   0.0000000), wk =   0.0011074
        k(   43) = (   0.2100000   0.1212436   0.0000000), wk =   0.0011074
        k(   44) = (   0.2150000   0.1241303   0.0000000), wk =   0.0011074
        k(   45) = (   0.2200000   0.1270171   0.0000000), wk =   0.0011074
        k(   46) = (   0.2250000   0.1299038   0.0000000), wk =   0.0011074
        k(   47) = (   0.2300000   0.1327906   0.0000000), wk =   0.0011074
        k(   48) = (   0.2350000   0.1356773   0.0000000), wk =   0.0011074
        k(   49) = (   0.2400000   0.1385641   0.0000000), wk =   0.0011074
        k(   50) = (   0.2450000   0.1414508   0.0000000), wk =   0.0011074
        k(   51) = (   0.2500000   0.1443376   0.0000000), wk =   0.0011074
        k(   52) = (   0.2550000   0.1472243   0.0000000), wk =   0.0011074
        k(   53) = (   0.2600000   0.1501111   0.0000000), wk =   0.0011074
        k(   54) = (   0.2650000   0.1529978   0.0000000), wk =   0.0011074
        k(   55) = (   0.2700000   0.1558846   0.0000000), wk =   0.0011074
        k(   56) = (   0.2750000   0.1587713   0.0000000), wk =   0.0011074
        k(   57) = (   0.2800000   0.1616581   0.0000000), wk =   0.0011074
        k(   58) = (   0.2850000   0.1645448   0.0000000), wk =   0.0011074
        k(   59) = (   0.2900000   0.1674316   0.0000000), wk =   0.0011074
        k(   60) = (   0.2950000   0.1703183   0.0000000), wk =   0.0011074
        k(   61) = (   0.3000000   0.1732051   0.0000000), wk =   0.0011074
        k(   62) = (   0.3050000   0.1760918   0.0000000), wk =   0.0011074
        k(   63) = (   0.3100000   0.1789786   0.0000000), wk =   0.0011074
        k(   64) = (   0.3150000   0.1818653   0.0000000), wk =   0.0011074
        k(   65) = (   0.3200000   0.1847521   0.0000000), wk =   0.0011074
        k(   66) = (   0.3250000   0.1876388   0.0000000), wk =   0.0011074
        k(   67) = (   0.3300000   0.1905256   0.0000000), wk =   0.0011074
        k(   68) = (   0.3350000   0.1934123   0.0000000), wk =   0.0011074
        k(   69) = (   0.3400000   0.1962991   0.0000000), wk =   0.0011074
        k(   70) = (   0.3450000   0.1991858   0.0000000), wk =   0.0011074
        k(   71) = (   0.3500000   0.2020726   0.0000000), wk =   0.0011074
        k(   72) = (   0.3550000   0.2049593   0.0000000), wk =   0.0011074
        k(   73) = (   0.3600000   0.2078461   0.0000000), wk =   0.0011074
        k(   74) = (   0.3650000   0.2107328   0.0000000), wk =   0.0011074
        k(   75) = (   0.3700000   0.2136196   0.0000000), wk =   0.0011074
        k(   76) = (   0.3750000   0.2165064   0.0000000), wk =   0.0011074
        k(   77) = (   0.3800000   0.2193931   0.0000000), wk =   0.0011074
        k(   78) = (   0.3850000   0.2222799   0.0000000), wk =   0.0011074
        k(   79) = (   0.3900000   0.2251666   0.0000000), wk =   0.0011074
        k(   80) = (   0.3950000   0.2280534   0.0000000), wk =   0.0011074
        k(   81) = (   0.4000000   0.2309401   0.0000000), wk =   0.0011074
        k(   82) = (   0.4050000   0.2338269   0.0000000), wk =   0.0011074
        k(   83) = (   0.4100000   0.2367136   0.0000000), wk =   0.0011074
        k(   84) = (   0.4150000   0.2396004   0.0000000), wk =   0.0011074
        k(   85) = (   0.4200000   0.2424871   0.0000000), wk =   0.0011074
        k(   86) = (   0.4250000   0.2453739   0.0000000), wk =   0.0011074
        k(   87) = (   0.4300000   0.2482606   0.0000000), wk =   0.0011074
        k(   88) = (   0.4350000   0.2511474   0.0000000), wk =   0.0011074
        k(   89) = (   0.4400000   0.2540341   0.0000000), wk =   0.0011074
        k(   90) = (   0.4450000   0.2569209   0.0000000), wk =   0.0011074
        k(   91) = (   0.4500000   0.2598076   0.0000000), wk =   0.0011074
        k(   92) = (   0.4550000   0.2626944   0.0000000), wk =   0.0011074
        k(   93) = (   0.4600000   0.2655811   0.0000000), wk =   0.0011074
        k(   94) = (   0.4650000   0.2684679   0.0000000), wk =   0.0011074
        k(   95) = (   0.4700000   0.2713546   0.0000000), wk =   0.0011074
        k(   96) = (   0.4750000   0.2742414   0.0000000), wk =   0.0011074
        k(   97) = (   0.4800000   0.2771281   0.0000000), wk =   0.0011074
        k(   98) = (   0.4850000   0.2800149   0.0000000), wk =   0.0011074
        k(   99) = (   0.4900000   0.2829016   0.0000000), wk =   0.0011074
        k(  100) = (   0.4950000   0.2857884   0.0000000), wk =   0.0011074
        k(  101) = (   0.5000000   0.2886751   0.0000000), wk =   0.0011074
        k(  102) = (   0.4983333   0.2915618   0.0000000), wk =   0.0011074
        k(  103) = (   0.4966666   0.2944485   0.0000000), wk =   0.0011074
        k(  104) = (   0.4949999   0.2973352   0.0000000), wk =   0.0011074
        k(  105) = (   0.4933332   0.3002219   0.0000000), wk =   0.0011074
        k(  106) = (   0.4916665   0.3031086   0.0000000), wk =   0.0011074
        k(  107) = (   0.4899998   0.3059953   0.0000000), wk =   0.0011074
        k(  108) = (   0.4883331   0.3088820   0.0000000), wk =   0.0011074
        k(  109) = (   0.4866664   0.3117687   0.0000000), wk =   0.0011074
        k(  110) = (   0.4849997   0.3146554   0.0000000), wk =   0.0011074
        k(  111) = (   0.4833330   0.3175421   0.0000000), wk =   0.0011074
        k(  112) = (   0.4816663   0.3204288   0.0000000), wk =   0.0011074
        k(  113) = (   0.4799996   0.3233155   0.0000000), wk =   0.0011074
        k(  114) = (   0.4783329   0.3262022   0.0000000), wk =   0.0011074
        k(  115) = (   0.4766662   0.3290888   0.0000000), wk =   0.0011074
        k(  116) = (   0.4749995   0.3319755   0.0000000), wk =   0.0011074
        k(  117) = (   0.4733328   0.3348622   0.0000000), wk =   0.0011074
        k(  118) = (   0.4716661   0.3377489   0.0000000), wk =   0.0011074
        k(  119) = (   0.4699994   0.3406356   0.0000000), wk =   0.0011074
        k(  120) = (   0.4683327   0.3435223   0.0000000), wk =   0.0011074
        k(  121) = (   0.4666660   0.3464090   0.0000000), wk =   0.0011074
        k(  122) = (   0.4649993   0.3492957   0.0000000), wk =   0.0011074
        k(  123) = (   0.4633326   0.3521824   0.0000000), wk =   0.0011074
        k(  124) = (   0.4616659   0.3550691   0.0000000), wk =   0.0011074
        k(  125) = (   0.4599992   0.3579558   0.0000000), wk =   0.0011074
        k(  126) = (   0.4583325   0.3608425   0.0000000), wk =   0.0011074
        k(  127) = (   0.4566658   0.3637292   0.0000000), wk =   0.0011074
        k(  128) = (   0.4549991   0.3666159   0.0000000), wk =   0.0011074
        k(  129) = (   0.4533324   0.3695026   0.0000000), wk =   0.0011074
        k(  130) = (   0.4516657   0.3723892   0.0000000), wk =   0.0011074
        k(  131) = (   0.4499990   0.3752759   0.0000000), wk =   0.0011074
        k(  132) = (   0.4483323   0.3781626   0.0000000), wk =   0.0011074
        k(  133) = (   0.4466656   0.3810493   0.0000000), wk =   0.0011074
        k(  134) = (   0.4449989   0.3839360   0.0000000), wk =   0.0011074
        k(  135) = (   0.4433322   0.3868227   0.0000000), wk =   0.0011074
        k(  136) = (   0.4416655   0.3897094   0.0000000), wk =   0.0011074
        k(  137) = (   0.4399988   0.3925961   0.0000000), wk =   0.0011074
        k(  138) = (   0.4383321   0.3954828   0.0000000), wk =   0.0011074
        k(  139) = (   0.4366654   0.3983695   0.0000000), wk =   0.0011074
        k(  140) = (   0.4349987   0.4012562   0.0000000), wk =   0.0011074
        k(  141) = (   0.4333320   0.4041429   0.0000000), wk =   0.0011074
        k(  142) = (   0.4316653   0.4070296   0.0000000), wk =   0.0011074
        k(  143) = (   0.4299986   0.4099163   0.0000000), wk =   0.0011074
        k(  144) = (   0.4283319   0.4128030   0.0000000), wk =   0.0011074
        k(  145) = (   0.4266652   0.4156897   0.0000000), wk =   0.0011074
        k(  146) = (   0.4249985   0.4185763   0.0000000), wk =   0.0011074
        k(  147) = (   0.4233318   0.4214630   0.0000000), wk =   0.0011074
        k(  148) = (   0.4216651   0.4243497   0.0000000), wk =   0.0011074
        k(  149) = (   0.4199984   0.4272364   0.0000000), wk =   0.0011074
        k(  150) = (   0.4183317   0.4301231   0.0000000), wk =   0.0011074
        k(  151) = (   0.4166650   0.4330098   0.0000000), wk =   0.0011074
        k(  152) = (   0.4149983   0.4358965   0.0000000), wk =   0.0011074
        k(  153) = (   0.4133316   0.4387832   0.0000000), wk =   0.0011074
        k(  154) = (   0.4116649   0.4416699   0.0000000), wk =   0.0011074
        k(  155) = (   0.4099982   0.4445566   0.0000000), wk =   0.0011074
        k(  156) = (   0.4083315   0.4474433   0.0000000), wk =   0.0011074
        k(  157) = (   0.4066648   0.4503300   0.0000000), wk =   0.0011074
        k(  158) = (   0.4049981   0.4532167   0.0000000), wk =   0.0011074
        k(  159) = (   0.4033314   0.4561034   0.0000000), wk =   0.0011074
        k(  160) = (   0.4016647   0.4589901   0.0000000), wk =   0.0011074
        k(  161) = (   0.3999980   0.4618768   0.0000000), wk =   0.0011074
        k(  162) = (   0.3983313   0.4647634   0.0000000), wk =   0.0011074
        k(  163) = (   0.3966646   0.4676501   0.0000000), wk =   0.0011074
        k(  164) = (   0.3949979   0.4705368   0.0000000), wk =   0.0011074
        k(  165) = (   0.3933312   0.4734235   0.0000000), wk =   0.0011074
        k(  166) = (   0.3916645   0.4763102   0.0000000), wk =   0.0011074
        k(  167) = (   0.3899978   0.4791969   0.0000000), wk =   0.0011074
        k(  168) = (   0.3883311   0.4820836   0.0000000), wk =   0.0011074
        k(  169) = (   0.3866644   0.4849703   0.0000000), wk =   0.0011074
        k(  170) = (   0.3849977   0.4878570   0.0000000), wk =   0.0011074
        k(  171) = (   0.3833310   0.4907437   0.0000000), wk =   0.0011074
        k(  172) = (   0.3816643   0.4936304   0.0000000), wk =   0.0011074
        k(  173) = (   0.3799976   0.4965171   0.0000000), wk =   0.0011074
        k(  174) = (   0.3783309   0.4994038   0.0000000), wk =   0.0011074
        k(  175) = (   0.3766642   0.5022905   0.0000000), wk =   0.0011074
        k(  176) = (   0.3749975   0.5051772   0.0000000), wk =   0.0011074
        k(  177) = (   0.3733308   0.5080638   0.0000000), wk =   0.0011074
        k(  178) = (   0.3716641   0.5109505   0.0000000), wk =   0.0011074
        k(  179) = (   0.3699974   0.5138372   0.0000000), wk =   0.0011074
        k(  180) = (   0.3683307   0.5167239   0.0000000), wk =   0.0011074
        k(  181) = (   0.3666640   0.5196106   0.0000000), wk =   0.0011074
        k(  182) = (   0.3649973   0.5224973   0.0000000), wk =   0.0011074
        k(  183) = (   0.3633306   0.5253840   0.0000000), wk =   0.0011074
        k(  184) = (   0.3616639   0.5282707   0.0000000), wk =   0.0011074
        k(  185) = (   0.3599972   0.5311574   0.0000000), wk =   0.0011074
        k(  186) = (   0.3583305   0.5340441   0.0000000), wk =   0.0011074
        k(  187) = (   0.3566638   0.5369308   0.0000000), wk =   0.0011074
        k(  188) = (   0.3549971   0.5398175   0.0000000), wk =   0.0011074
        k(  189) = (   0.3533304   0.5427042   0.0000000), wk =   0.0011074
        k(  190) = (   0.3516637   0.5455909   0.0000000), wk =   0.0011074
        k(  191) = (   0.3499970   0.5484776   0.0000000), wk =   0.0011074
        k(  192) = (   0.3483303   0.5513643   0.0000000), wk =   0.0011074
        k(  193) = (   0.3466636   0.5542509   0.0000000), wk =   0.0011074
        k(  194) = (   0.3449969   0.5571376   0.0000000), wk =   0.0011074
        k(  195) = (   0.3433302   0.5600243   0.0000000), wk =   0.0011074
        k(  196) = (   0.3416635   0.5629110   0.0000000), wk =   0.0011074
        k(  197) = (   0.3399968   0.5657977   0.0000000), wk =   0.0011074
        k(  198) = (   0.3383301   0.5686844   0.0000000), wk =   0.0011074
        k(  199) = (   0.3366634   0.5715711   0.0000000), wk =   0.0011074
        k(  200) = (   0.3349967   0.5744578   0.0000000), wk =   0.0011074
        k(  201) = (   0.3333300   0.5773445   0.0000000), wk =   0.0011074
        k(  202) = (   0.3299967   0.5715711   0.0000000), wk =   0.0011074
        k(  203) = (   0.3266634   0.5657976   0.0000000), wk =   0.0011074
        k(  204) = (   0.3233301   0.5600242   0.0000000), wk =   0.0011074
        k(  205) = (   0.3199968   0.5542507   0.0000000), wk =   0.0011074
        k(  206) = (   0.3166635   0.5484773   0.0000000), wk =   0.0011074
        k(  207) = (   0.3133302   0.5427038   0.0000000), wk =   0.0011074
        k(  208) = (   0.3099969   0.5369304   0.0000000), wk =   0.0011074
        k(  209) = (   0.3066636   0.5311569   0.0000000), wk =   0.0011074
        k(  210) = (   0.3033303   0.5253835   0.0000000), wk =   0.0011074
        k(  211) = (   0.2999970   0.5196100   0.0000000), wk =   0.0011074
        k(  212) = (   0.2966637   0.5138366   0.0000000), wk =   0.0011074
        k(  213) = (   0.2933304   0.5080632   0.0000000), wk =   0.0011074
        k(  214) = (   0.2899971   0.5022897   0.0000000), wk =   0.0011074
        k(  215) = (   0.2866638   0.4965163   0.0000000), wk =   0.0011074
        k(  216) = (   0.2833305   0.4907428   0.0000000), wk =   0.0011074
        k(  217) = (   0.2799972   0.4849694   0.0000000), wk =   0.0011074
        k(  218) = (   0.2766639   0.4791959   0.0000000), wk =   0.0011074
        k(  219) = (   0.2733306   0.4734225   0.0000000), wk =   0.0011074
        k(  220) = (   0.2699973   0.4676490   0.0000000), wk =   0.0011074
        k(  221) = (   0.2666640   0.4618756   0.0000000), wk =   0.0011074
        k(  222) = (   0.2633307   0.4561022   0.0000000), wk =   0.0011074
        k(  223) = (   0.2599974   0.4503287   0.0000000), wk =   0.0011074
        k(  224) = (   0.2566641   0.4445553   0.0000000), wk =   0.0011074
        k(  225) = (   0.2533308   0.4387818   0.0000000), wk =   0.0011074
        k(  226) = (   0.2499975   0.4330084   0.0000000), wk =   0.0011074
        k(  227) = (   0.2466642   0.4272349   0.0000000), wk =   0.0011074
        k(  228) = (   0.2433309   0.4214615   0.0000000), wk =   0.0011074
        k(  229) = (   0.2399976   0.4156880   0.0000000), wk =   0.0011074
        k(  230) = (   0.2366643   0.4099146   0.0000000), wk =   0.0011074
        k(  231) = (   0.2333310   0.4041411   0.0000000), wk =   0.0011074
        k(  232) = (   0.2299977   0.3983677   0.0000000), wk =   0.0011074
        k(  233) = (   0.2266644   0.3925943   0.0000000), wk =   0.0011074
        k(  234) = (   0.2233311   0.3868208   0.0000000), wk =   0.0011074
        k(  235) = (   0.2199978   0.3810474   0.0000000), wk =   0.0011074
        k(  236) = (   0.2166645   0.3752739   0.0000000), wk =   0.0011074
        k(  237) = (   0.2133312   0.3695005   0.0000000), wk =   0.0011074
        k(  238) = (   0.2099979   0.3637270   0.0000000), wk =   0.0011074
        k(  239) = (   0.2066646   0.3579536   0.0000000), wk =   0.0011074
        k(  240) = (   0.2033313   0.3521801   0.0000000), wk =   0.0011074
        k(  241) = (   0.1999980   0.3464067   0.0000000), wk =   0.0011074
        k(  242) = (   0.1966647   0.3406333   0.0000000), wk =   0.0011074
        k(  243) = (   0.1933314   0.3348598   0.0000000), wk =   0.0011074
        k(  244) = (   0.1899981   0.3290864   0.0000000), wk =   0.0011074
        k(  245) = (   0.1866648   0.3233129   0.0000000), wk =   0.0011074
        k(  246) = (   0.1833315   0.3175395   0.0000000), wk =   0.0011074
        k(  247) = (   0.1799982   0.3117660   0.0000000), wk =   0.0011074
        k(  248) = (   0.1766649   0.3059926   0.0000000), wk =   0.0011074
        k(  249) = (   0.1733316   0.3002191   0.0000000), wk =   0.0011074
        k(  250) = (   0.1699983   0.2944457   0.0000000), wk =   0.0011074
        k(  251) = (   0.1666650   0.2886722   0.0000000), wk =   0.0011074
        k(  252) = (   0.1633317   0.2828988   0.0000000), wk =   0.0011074
        k(  253) = (   0.1599984   0.2771254   0.0000000), wk =   0.0011074
        k(  254) = (   0.1566651   0.2713519   0.0000000), wk =   0.0011074
        k(  255) = (   0.1533318   0.2655785   0.0000000), wk =   0.0011074
        k(  256) = (   0.1499985   0.2598050   0.0000000), wk =   0.0011074
        k(  257) = (   0.1466652   0.2540316   0.0000000), wk =   0.0011074
        k(  258) = (   0.1433319   0.2482581   0.0000000), wk =   0.0011074
        k(  259) = (   0.1399986   0.2424847   0.0000000), wk =   0.0011074
        k(  260) = (   0.1366653   0.2367112   0.0000000), wk =   0.0011074
        k(  261) = (   0.1333320   0.2309378   0.0000000), wk =   0.0011074
        k(  262) = (   0.1299987   0.2251644   0.0000000), wk =   0.0011074
        k(  263) = (   0.1266654   0.2193909   0.0000000), wk =   0.0011074
        k(  264) = (   0.1233321   0.2136175   0.0000000), wk =   0.0011074
        k(  265) = (   0.1199988   0.2078440   0.0000000), wk =   0.0011074
        k(  266) = (   0.1166655   0.2020706   0.0000000), wk =   0.0011074
        k(  267) = (   0.1133322   0.1962971   0.0000000), wk =   0.0011074
        k(  268) = (   0.1099989   0.1905237   0.0000000), wk =   0.0011074
        k(  269) = (   0.1066656   0.1847502   0.0000000), wk =   0.0011074
        k(  270) = (   0.1033323   0.1789768   0.0000000), wk =   0.0011074
        k(  271) = (   0.0999990   0.1732033   0.0000000), wk =   0.0011074
        k(  272) = (   0.0966657   0.1674299   0.0000000), wk =   0.0011074
        k(  273) = (   0.0933324   0.1616565   0.0000000), wk =   0.0011074
        k(  274) = (   0.0899991   0.1558830   0.0000000), wk =   0.0011074
        k(  275) = (   0.0866658   0.1501096   0.0000000), wk =   0.0011074
        k(  276) = (   0.0833325   0.1443361   0.0000000), wk =   0.0011074
        k(  277) = (   0.0799992   0.1385627   0.0000000), wk =   0.0011074
        k(  278) = (   0.0766659   0.1327892   0.0000000), wk =   0.0011074
        k(  279) = (   0.0733326   0.1270158   0.0000000), wk =   0.0011074
        k(  280) = (   0.0699993   0.1212423   0.0000000), wk =   0.0011074
        k(  281) = (   0.0666660   0.1154689   0.0000000), wk =   0.0011074
        k(  282) = (   0.0633327   0.1096955   0.0000000), wk =   0.0011074
        k(  283) = (   0.0599994   0.1039220   0.0000000), wk =   0.0011074
        k(  284) = (   0.0566661   0.0981486   0.0000000), wk =   0.0011074
        k(  285) = (   0.0533328   0.0923751   0.0000000), wk =   0.0011074
        k(  286) = (   0.0499995   0.0866017   0.0000000), wk =   0.0011074
        k(  287) = (   0.0466662   0.0808282   0.0000000), wk =   0.0011074
        k(  288) = (   0.0433329   0.0750548   0.0000000), wk =   0.0011074
        k(  289) = (   0.0399996   0.0692813   0.0000000), wk =   0.0011074
        k(  290) = (   0.0366663   0.0635079   0.0000000), wk =   0.0011074
        k(  291) = (   0.0333330   0.0577344   0.0000000), wk =   0.0011074
        k(  292) = (   0.0299997   0.0519610   0.0000000), wk =   0.0011074
        k(  293) = (   0.0266664   0.0461876   0.0000000), wk =   0.0011074
        k(  294) = (   0.0233331   0.0404141   0.0000000), wk =   0.0011074
        k(  295) = (   0.0199998   0.0346407   0.0000000), wk =   0.0011074
        k(  296) = (   0.0166665   0.0288672   0.0000000), wk =   0.0011074
        k(  297) = (   0.0133332   0.0230938   0.0000000), wk =   0.0011074
        k(  298) = (   0.0099999   0.0173203   0.0000000), wk =   0.0011074
        k(  299) = (   0.0066666   0.0115469   0.0000000), wk =   0.0011074
        k(  300) = (   0.0033333   0.0057734   0.0000000), wk =   0.0011074
        k(  301) = (   0.0000000   0.0000000   0.0000000), wk =   0.0011074
        k(  302) = (   0.0000000   0.0000000   0.0027859), wk =   0.0011074
        k(  303) = (   0.0000000   0.0000000   0.0055718), wk =   0.0011074
        k(  304) = (   0.0000000   0.0000000   0.0083577), wk =   0.0011074
        k(  305) = (   0.0000000   0.0000000   0.0111436), wk =   0.0011074
        k(  306) = (   0.0000000   0.0000000   0.0139295), wk =   0.0011074
        k(  307) = (   0.0000000   0.0000000   0.0167154), wk =   0.0011074
        k(  308) = (   0.0000000   0.0000000   0.0195013), wk =   0.0011074
        k(  309) = (   0.0000000   0.0000000   0.0222872), wk =   0.0011074
        k(  310) = (   0.0000000   0.0000000   0.0250731), wk =   0.0011074
        k(  311) = (   0.0000000   0.0000000   0.0278590), wk =   0.0011074
        k(  312) = (   0.0000000   0.0000000   0.0306449), wk =   0.0011074
        k(  313) = (   0.0000000   0.0000000   0.0334308), wk =   0.0011074
        k(  314) = (   0.0000000   0.0000000   0.0362167), wk =   0.0011074
        k(  315) = (   0.0000000   0.0000000   0.0390026), wk =   0.0011074
        k(  316) = (   0.0000000   0.0000000   0.0417885), wk =   0.0011074
        k(  317) = (   0.0000000   0.0000000   0.0445744), wk =   0.0011074
        k(  318) = (   0.0000000   0.0000000   0.0473603), wk =   0.0011074
        k(  319) = (   0.0000000   0.0000000   0.0501462), wk =   0.0011074
        k(  320) = (   0.0000000   0.0000000   0.0529321), wk =   0.0011074
        k(  321) = (   0.0000000   0.0000000   0.0557180), wk =   0.0011074
        k(  322) = (   0.0000000   0.0000000   0.0585040), wk =   0.0011074
        k(  323) = (   0.0000000   0.0000000   0.0612899), wk =   0.0011074
        k(  324) = (   0.0000000   0.0000000   0.0640758), wk =   0.0011074
        k(  325) = (   0.0000000   0.0000000   0.0668617), wk =   0.0011074
        k(  326) = (   0.0000000   0.0000000   0.0696476), wk =   0.0011074
        k(  327) = (   0.0000000   0.0000000   0.0724335), wk =   0.0011074
        k(  328) = (   0.0000000   0.0000000   0.0752194), wk =   0.0011074
        k(  329) = (   0.0000000   0.0000000   0.0780053), wk =   0.0011074
        k(  330) = (   0.0000000   0.0000000   0.0807912), wk =   0.0011074
        k(  331) = (   0.0000000   0.0000000   0.0835771), wk =   0.0011074
        k(  332) = (   0.0000000   0.0000000   0.0863630), wk =   0.0011074
        k(  333) = (   0.0000000   0.0000000   0.0891489), wk =   0.0011074
        k(  334) = (   0.0000000   0.0000000   0.0919348), wk =   0.0011074
        k(  335) = (   0.0000000   0.0000000   0.0947207), wk =   0.0011074
        k(  336) = (   0.0000000   0.0000000   0.0975066), wk =   0.0011074
        k(  337) = (   0.0000000   0.0000000   0.1002925), wk =   0.0011074
        k(  338) = (   0.0000000   0.0000000   0.1030784), wk =   0.0011074
        k(  339) = (   0.0000000   0.0000000   0.1058643), wk =   0.0011074
        k(  340) = (   0.0000000   0.0000000   0.1086502), wk =   0.0011074
        k(  341) = (   0.0000000   0.0000000   0.1114361), wk =   0.0011074
        k(  342) = (   0.0000000   0.0000000   0.1142220), wk =   0.0011074
        k(  343) = (   0.0000000   0.0000000   0.1170079), wk =   0.0011074
        k(  344) = (   0.0000000   0.0000000   0.1197938), wk =   0.0011074
        k(  345) = (   0.0000000   0.0000000   0.1225797), wk =   0.0011074
        k(  346) = (   0.0000000   0.0000000   0.1253656), wk =   0.0011074
        k(  347) = (   0.0000000   0.0000000   0.1281515), wk =   0.0011074
        k(  348) = (   0.0000000   0.0000000   0.1309374), wk =   0.0011074
        k(  349) = (   0.0000000   0.0000000   0.1337233), wk =   0.0011074
        k(  350) = (   0.0000000   0.0000000   0.1365092), wk =   0.0011074
        k(  351) = (   0.0000000   0.0000000   0.1392951), wk =   0.0011074
        k(  352) = (   0.0000000   0.0000000   0.1420810), wk =   0.0011074
        k(  353) = (   0.0000000   0.0000000   0.1448669), wk =   0.0011074
        k(  354) = (   0.0000000   0.0000000   0.1476528), wk =   0.0011074
        k(  355) = (   0.0000000   0.0000000   0.1504387), wk =   0.0011074
        k(  356) = (   0.0000000   0.0000000   0.1532246), wk =   0.0011074
        k(  357) = (   0.0000000   0.0000000   0.1560105), wk =   0.0011074
        k(  358) = (   0.0000000   0.0000000   0.1587964), wk =   0.0011074
        k(  359) = (   0.0000000   0.0000000   0.1615823), wk =   0.0011074
        k(  360) = (   0.0000000   0.0000000   0.1643682), wk =   0.0011074
        k(  361) = (   0.0000000   0.0000000   0.1671541), wk =   0.0011074
        k(  362) = (   0.0000000   0.0000000   0.1699401), wk =   0.0011074
        k(  363) = (   0.0000000   0.0000000   0.1727260), wk =   0.0011074
        k(  364) = (   0.0000000   0.0000000   0.1755119), wk =   0.0011074
        k(  365) = (   0.0000000   0.0000000   0.1782978), wk =   0.0011074
        k(  366) = (   0.0000000   0.0000000   0.1810837), wk =   0.0011074
        k(  367) = (   0.0000000   0.0000000   0.1838696), wk =   0.0011074
        k(  368) = (   0.0000000   0.0000000   0.1866555), wk =   0.0011074
        k(  369) = (   0.0000000   0.0000000   0.1894414), wk =   0.0011074
        k(  370) = (   0.0000000   0.0000000   0.1922273), wk =   0.0011074
        k(  371) = (   0.0000000   0.0000000   0.1950132), wk =   0.0011074
        k(  372) = (   0.0000000   0.0000000   0.1977991), wk =   0.0011074
        k(  373) = (   0.0000000   0.0000000   0.2005850), wk =   0.0011074
        k(  374) = (   0.0000000   0.0000000   0.2033709), wk =   0.0011074
        k(  375) = (   0.0000000   0.0000000   0.2061568), wk =   0.0011074
        k(  376) = (   0.0000000   0.0000000   0.2089427), wk =   0.0011074
        k(  377) = (   0.0000000   0.0000000   0.2117286), wk =   0.0011074
        k(  378) = (   0.0000000   0.0000000   0.2145145), wk =   0.0011074
        k(  379) = (   0.0000000   0.0000000   0.2173004), wk =   0.0011074
        k(  380) = (   0.0000000   0.0000000   0.2200863), wk =   0.0011074
        k(  381) = (   0.0000000   0.0000000   0.2228722), wk =   0.0011074
        k(  382) = (   0.0000000   0.0000000   0.2256581), wk =   0.0011074
        k(  383) = (   0.0000000   0.0000000   0.2284440), wk =   0.0011074
        k(  384) = (   0.0000000   0.0000000   0.2312299), wk =   0.0011074
        k(  385) = (   0.0000000   0.0000000   0.2340158), wk =   0.0011074
        k(  386) = (   0.0000000   0.0000000   0.2368017), wk =   0.0011074
        k(  387) = (   0.0000000   0.0000000   0.2395876), wk =   0.0011074
        k(  388) = (   0.0000000   0.0000000   0.2423735), wk =   0.0011074
        k(  389) = (   0.0000000   0.0000000   0.2451594), wk =   0.0011074
        k(  390) = (   0.0000000   0.0000000   0.2479453), wk =   0.0011074
        k(  391) = (   0.0000000   0.0000000   0.2507312), wk =   0.0011074
        k(  392) = (   0.0000000   0.0000000   0.2535171), wk =   0.0011074
        k(  393) = (   0.0000000   0.0000000   0.2563030), wk =   0.0011074
        k(  394) = (   0.0000000   0.0000000   0.2590889), wk =   0.0011074
        k(  395) = (   0.0000000   0.0000000   0.2618748), wk =   0.0011074
        k(  396) = (   0.0000000   0.0000000   0.2646607), wk =   0.0011074
        k(  397) = (   0.0000000   0.0000000   0.2674466), wk =   0.0011074
        k(  398) = (   0.0000000   0.0000000   0.2702325), wk =   0.0011074
        k(  399) = (   0.0000000   0.0000000   0.2730184), wk =   0.0011074
        k(  400) = (   0.0000000   0.0000000   0.2758043), wk =   0.0011074
        k(  401) = (   0.0000000   0.0000000   0.2785902), wk =   0.0011074
        k(  402) = (   0.0050000   0.0028868   0.2785902), wk =   0.0011074
        k(  403) = (   0.0100000   0.0057735   0.2785902), wk =   0.0011074
        k(  404) = (   0.0150000   0.0086603   0.2785902), wk =   0.0011074
        k(  405) = (   0.0200000   0.0115470   0.2785902), wk =   0.0011074
        k(  406) = (   0.0250000   0.0144338   0.2785902), wk =   0.0011074
        k(  407) = (   0.0300000   0.0173205   0.2785902), wk =   0.0011074
        k(  408) = (   0.0350000   0.0202073   0.2785902), wk =   0.0011074
        k(  409) = (   0.0400000   0.0230940   0.2785902), wk =   0.0011074
        k(  410) = (   0.0450000   0.0259808   0.2785902), wk =   0.0011074
        k(  411) = (   0.0500000   0.0288675   0.2785902), wk =   0.0011074
        k(  412) = (   0.0550000   0.0317543   0.2785902), wk =   0.0011074
        k(  413) = (   0.0600000   0.0346410   0.2785902), wk =   0.0011074
        k(  414) = (   0.0650000   0.0375278   0.2785902), wk =   0.0011074
        k(  415) = (   0.0700000   0.0404145   0.2785902), wk =   0.0011074
        k(  416) = (   0.0750000   0.0433013   0.2785902), wk =   0.0011074
        k(  417) = (   0.0800000   0.0461880   0.2785902), wk =   0.0011074
        k(  418) = (   0.0850000   0.0490748   0.2785902), wk =   0.0011074
        k(  419) = (   0.0900000   0.0519615   0.2785902), wk =   0.0011074
        k(  420) = (   0.0950000   0.0548483   0.2785902), wk =   0.0011074
        k(  421) = (   0.1000000   0.0577350   0.2785902), wk =   0.0011074
        k(  422) = (   0.1050000   0.0606218   0.2785902), wk =   0.0011074
        k(  423) = (   0.1100000   0.0635085   0.2785902), wk =   0.0011074
        k(  424) = (   0.1150000   0.0663953   0.2785902), wk =   0.0011074
        k(  425) = (   0.1200000   0.0692820   0.2785902), wk =   0.0011074
        k(  426) = (   0.1250000   0.0721688   0.2785902), wk =   0.0011074
        k(  427) = (   0.1300000   0.0750555   0.2785902), wk =   0.0011074
        k(  428) = (   0.1350000   0.0779423   0.2785902), wk =   0.0011074
        k(  429) = (   0.1400000   0.0808290   0.2785902), wk =   0.0011074
        k(  430) = (   0.1450000   0.0837158   0.2785902), wk =   0.0011074
        k(  431) = (   0.1500000   0.0866025   0.2785902), wk =   0.0011074
        k(  432) = (   0.1550000   0.0894893   0.2785902), wk =   0.0011074
        k(  433) = (   0.1600000   0.0923760   0.2785902), wk =   0.0011074
        k(  434) = (   0.1650000   0.0952628   0.2785902), wk =   0.0011074
        k(  435) = (   0.1700000   0.0981495   0.2785902), wk =   0.0011074
        k(  436) = (   0.1750000   0.1010363   0.2785902), wk =   0.0011074
        k(  437) = (   0.1800000   0.1039230   0.2785902), wk =   0.0011074
        k(  438) = (   0.1850000   0.1068098   0.2785902), wk =   0.0011074
        k(  439) = (   0.1900000   0.1096966   0.2785902), wk =   0.0011074
        k(  440) = (   0.1950000   0.1125833   0.2785902), wk =   0.0011074
        k(  441) = (   0.2000000   0.1154701   0.2785902), wk =   0.0011074
        k(  442) = (   0.2050000   0.1183568   0.2785902), wk =   0.0011074
        k(  443) = (   0.2100000   0.1212436   0.2785902), wk =   0.0011074
        k(  444) = (   0.2150000   0.1241303   0.2785902), wk =   0.0011074
        k(  445) = (   0.2200000   0.1270171   0.2785902), wk =   0.0011074
        k(  446) = (   0.2250000   0.1299038   0.2785902), wk =   0.0011074
        k(  447) = (   0.2300000   0.1327906   0.2785902), wk =   0.0011074
        k(  448) = (   0.2350000   0.1356773   0.2785902), wk =   0.0011074
        k(  449) = (   0.2400000   0.1385641   0.2785902), wk =   0.0011074
        k(  450) = (   0.2450000   0.1414508   0.2785902), wk =   0.0011074
        k(  451) = (   0.2500000   0.1443376   0.2785902), wk =   0.0011074
        k(  452) = (   0.2550000   0.1472243   0.2785902), wk =   0.0011074
        k(  453) = (   0.2600000   0.1501111   0.2785902), wk =   0.0011074
        k(  454) = (   0.2650000   0.1529978   0.2785902), wk =   0.0011074
        k(  455) = (   0.2700000   0.1558846   0.2785902), wk =   0.0011074
        k(  456) = (   0.2750000   0.1587713   0.2785902), wk =   0.0011074
        k(  457) = (   0.2800000   0.1616581   0.2785902), wk =   0.0011074
        k(  458) = (   0.2850000   0.1645448   0.2785902), wk =   0.0011074
        k(  459) = (   0.2900000   0.1674316   0.2785902), wk =   0.0011074
        k(  460) = (   0.2950000   0.1703183   0.2785902), wk =   0.0011074
        k(  461) = (   0.3000000   0.1732051   0.2785902), wk =   0.0011074
        k(  462) = (   0.3050000   0.1760918   0.2785902), wk =   0.0011074
        k(  463) = (   0.3100000   0.1789786   0.2785902), wk =   0.0011074
        k(  464) = (   0.3150000   0.1818653   0.2785902), wk =   0.0011074
        k(  465) = (   0.3200000   0.1847521   0.2785902), wk =   0.0011074
        k(  466) = (   0.3250000   0.1876388   0.2785902), wk =   0.0011074
        k(  467) = (   0.3300000   0.1905256   0.2785902), wk =   0.0011074
        k(  468) = (   0.3350000   0.1934123   0.2785902), wk =   0.0011074
        k(  469) = (   0.3400000   0.1962991   0.2785902), wk =   0.0011074
        k(  470) = (   0.3450000   0.1991858   0.2785902), wk =   0.0011074
        k(  471) = (   0.3500000   0.2020726   0.2785902), wk =   0.0011074
        k(  472) = (   0.3550000   0.2049593   0.2785902), wk =   0.0011074
        k(  473) = (   0.3600000   0.2078461   0.2785902), wk =   0.0011074
        k(  474) = (   0.3650000   0.2107328   0.2785902), wk =   0.0011074
        k(  475) = (   0.3700000   0.2136196   0.2785902), wk =   0.0011074
        k(  476) = (   0.3750000   0.2165064   0.2785902), wk =   0.0011074
        k(  477) = (   0.3800000   0.2193931   0.2785902), wk =   0.0011074
        k(  478) = (   0.3850000   0.2222799   0.2785902), wk =   0.0011074
        k(  479) = (   0.3900000   0.2251666   0.2785902), wk =   0.0011074
        k(  480) = (   0.3950000   0.2280534   0.2785902), wk =   0.0011074
        k(  481) = (   0.4000000   0.2309401   0.2785902), wk =   0.0011074
        k(  482) = (   0.4050000   0.2338269   0.2785902), wk =   0.0011074
        k(  483) = (   0.4100000   0.2367136   0.2785902), wk =   0.0011074
        k(  484) = (   0.4150000   0.2396004   0.2785902), wk =   0.0011074
        k(  485) = (   0.4200000   0.2424871   0.2785902), wk =   0.0011074
        k(  486) = (   0.4250000   0.2453739   0.2785902), wk =   0.0011074
        k(  487) = (   0.4300000   0.2482606   0.2785902), wk =   0.0011074
        k(  488) = (   0.4350000   0.2511474   0.2785902), wk =   0.0011074
        k(  489) = (   0.4400000   0.2540341   0.2785902), wk =   0.0011074
        k(  490) = (   0.4450000   0.2569209   0.2785902), wk =   0.0011074
        k(  491) = (   0.4500000   0.2598076   0.2785902), wk =   0.0011074
        k(  492) = (   0.4550000   0.2626944   0.2785902), wk =   0.0011074
        k(  493) = (   0.4600000   0.2655811   0.2785902), wk =   0.0011074
        k(  494) = (   0.4650000   0.2684679   0.2785902), wk =   0.0011074
        k(  495) = (   0.4700000   0.2713546   0.2785902), wk =   0.0011074
        k(  496) = (   0.4750000   0.2742414   0.2785902), wk =   0.0011074
        k(  497) = (   0.4800000   0.2771281   0.2785902), wk =   0.0011074
        k(  498) = (   0.4850000   0.2800149   0.2785902), wk =   0.0011074
        k(  499) = (   0.4900000   0.2829016   0.2785902), wk =   0.0011074
        k(  500) = (   0.4950000   0.2857884   0.2785902), wk =   0.0011074
        k(  501) = (   0.5000000   0.2886751   0.2785902), wk =   0.0011074
        k(  502) = (   0.4983333   0.2915618   0.2785902), wk =   0.0011074
        k(  503) = (   0.4966666   0.2944485   0.2785902), wk =   0.0011074
        k(  504) = (   0.4949999   0.2973352   0.2785902), wk =   0.0011074
        k(  505) = (   0.4933332   0.3002219   0.2785902), wk =   0.0011074
        k(  506) = (   0.4916665   0.3031086   0.2785902), wk =   0.0011074
        k(  507) = (   0.4899998   0.3059953   0.2785902), wk =   0.0011074
        k(  508) = (   0.4883331   0.3088820   0.2785902), wk =   0.0011074
        k(  509) = (   0.4866664   0.3117687   0.2785902), wk =   0.0011074
        k(  510) = (   0.4849997   0.3146554   0.2785902), wk =   0.0011074
        k(  511) = (   0.4833330   0.3175421   0.2785902), wk =   0.0011074
        k(  512) = (   0.4816663   0.3204288   0.2785902), wk =   0.0011074
        k(  513) = (   0.4799996   0.3233155   0.2785902), wk =   0.0011074
        k(  514) = (   0.4783329   0.3262022   0.2785902), wk =   0.0011074
        k(  515) = (   0.4766662   0.3290888   0.2785902), wk =   0.0011074
        k(  516) = (   0.4749995   0.3319755   0.2785902), wk =   0.0011074
        k(  517) = (   0.4733328   0.3348622   0.2785902), wk =   0.0011074
        k(  518) = (   0.4716661   0.3377489   0.2785902), wk =   0.0011074
        k(  519) = (   0.4699994   0.3406356   0.2785902), wk =   0.0011074
        k(  520) = (   0.4683327   0.3435223   0.2785902), wk =   0.0011074
        k(  521) = (   0.4666660   0.3464090   0.2785902), wk =   0.0011074
        k(  522) = (   0.4649993   0.3492957   0.2785902), wk =   0.0011074
        k(  523) = (   0.4633326   0.3521824   0.2785902), wk =   0.0011074
        k(  524) = (   0.4616659   0.3550691   0.2785902), wk =   0.0011074
        k(  525) = (   0.4599992   0.3579558   0.2785902), wk =   0.0011074
        k(  526) = (   0.4583325   0.3608425   0.2785902), wk =   0.0011074
        k(  527) = (   0.4566658   0.3637292   0.2785902), wk =   0.0011074
        k(  528) = (   0.4549991   0.3666159   0.2785902), wk =   0.0011074
        k(  529) = (   0.4533324   0.3695026   0.2785902), wk =   0.0011074
        k(  530) = (   0.4516657   0.3723892   0.2785902), wk =   0.0011074
        k(  531) = (   0.4499990   0.3752759   0.2785902), wk =   0.0011074
        k(  532) = (   0.4483323   0.3781626   0.2785902), wk =   0.0011074
        k(  533) = (   0.4466656   0.3810493   0.2785902), wk =   0.0011074
        k(  534) = (   0.4449989   0.3839360   0.2785902), wk =   0.0011074
        k(  535) = (   0.4433322   0.3868227   0.2785902), wk =   0.0011074
        k(  536) = (   0.4416655   0.3897094   0.2785902), wk =   0.0011074
        k(  537) = (   0.4399988   0.3925961   0.2785902), wk =   0.0011074
        k(  538) = (   0.4383321   0.3954828   0.2785902), wk =   0.0011074
        k(  539) = (   0.4366654   0.3983695   0.2785902), wk =   0.0011074
        k(  540) = (   0.4349987   0.4012562   0.2785902), wk =   0.0011074
        k(  541) = (   0.4333320   0.4041429   0.2785902), wk =   0.0011074
        k(  542) = (   0.4316653   0.4070296   0.2785902), wk =   0.0011074
        k(  543) = (   0.4299986   0.4099163   0.2785902), wk =   0.0011074
        k(  544) = (   0.4283319   0.4128030   0.2785902), wk =   0.0011074
        k(  545) = (   0.4266652   0.4156897   0.2785902), wk =   0.0011074
        k(  546) = (   0.4249985   0.4185763   0.2785902), wk =   0.0011074
        k(  547) = (   0.4233318   0.4214630   0.2785902), wk =   0.0011074
        k(  548) = (   0.4216651   0.4243497   0.2785902), wk =   0.0011074
        k(  549) = (   0.4199984   0.4272364   0.2785902), wk =   0.0011074
        k(  550) = (   0.4183317   0.4301231   0.2785902), wk =   0.0011074
        k(  551) = (   0.4166650   0.4330098   0.2785902), wk =   0.0011074
        k(  552) = (   0.4149983   0.4358965   0.2785902), wk =   0.0011074
        k(  553) = (   0.4133316   0.4387832   0.2785902), wk =   0.0011074
        k(  554) = (   0.4116649   0.4416699   0.2785902), wk =   0.0011074
        k(  555) = (   0.4099982   0.4445566   0.2785902), wk =   0.0011074
        k(  556) = (   0.4083315   0.4474433   0.2785902), wk =   0.0011074
        k(  557) = (   0.4066648   0.4503300   0.2785902), wk =   0.0011074
        k(  558) = (   0.4049981   0.4532167   0.2785902), wk =   0.0011074
        k(  559) = (   0.4033314   0.4561034   0.2785902), wk =   0.0011074
        k(  560) = (   0.4016647   0.4589901   0.2785902), wk =   0.0011074
        k(  561) = (   0.3999980   0.4618768   0.2785902), wk =   0.0011074
        k(  562) = (   0.3983313   0.4647634   0.2785902), wk =   0.0011074
        k(  563) = (   0.3966646   0.4676501   0.2785902), wk =   0.0011074
        k(  564) = (   0.3949979   0.4705368   0.2785902), wk =   0.0011074
        k(  565) = (   0.3933312   0.4734235   0.2785902), wk =   0.0011074
        k(  566) = (   0.3916645   0.4763102   0.2785902), wk =   0.0011074
        k(  567) = (   0.3899978   0.4791969   0.2785902), wk =   0.0011074
        k(  568) = (   0.3883311   0.4820836   0.2785902), wk =   0.0011074
        k(  569) = (   0.3866644   0.4849703   0.2785902), wk =   0.0011074
        k(  570) = (   0.3849977   0.4878570   0.2785902), wk =   0.0011074
        k(  571) = (   0.3833310   0.4907437   0.2785902), wk =   0.0011074
        k(  572) = (   0.3816643   0.4936304   0.2785902), wk =   0.0011074
        k(  573) = (   0.3799976   0.4965171   0.2785902), wk =   0.0011074
        k(  574) = (   0.3783309   0.4994038   0.2785902), wk =   0.0011074
        k(  575) = (   0.3766642   0.5022905   0.2785902), wk =   0.0011074
        k(  576) = (   0.3749975   0.5051772   0.2785902), wk =   0.0011074
        k(  577) = (   0.3733308   0.5080638   0.2785902), wk =   0.0011074
        k(  578) = (   0.3716641   0.5109505   0.2785902), wk =   0.0011074
        k(  579) = (   0.3699974   0.5138372   0.2785902), wk =   0.0011074
        k(  580) = (   0.3683307   0.5167239   0.2785902), wk =   0.0011074
        k(  581) = (   0.3666640   0.5196106   0.2785902), wk =   0.0011074
        k(  582) = (   0.3649973   0.5224973   0.2785902), wk =   0.0011074
        k(  583) = (   0.3633306   0.5253840   0.2785902), wk =   0.0011074
        k(  584) = (   0.3616639   0.5282707   0.2785902), wk =   0.0011074
        k(  585) = (   0.3599972   0.5311574   0.2785902), wk =   0.0011074
        k(  586) = (   0.3583305   0.5340441   0.2785902), wk =   0.0011074
        k(  587) = (   0.3566638   0.5369308   0.2785902), wk =   0.0011074
        k(  588) = (   0.3549971   0.5398175   0.2785902), wk =   0.0011074
        k(  589) = (   0.3533304   0.5427042   0.2785902), wk =   0.0011074
        k(  590) = (   0.3516637   0.5455909   0.2785902), wk =   0.0011074
        k(  591) = (   0.3499970   0.5484776   0.2785902), wk =   0.0011074
        k(  592) = (   0.3483303   0.5513643   0.2785902), wk =   0.0011074
        k(  593) = (   0.3466636   0.5542509   0.2785902), wk =   0.0011074
        k(  594) = (   0.3449969   0.5571376   0.2785902), wk =   0.0011074
        k(  595) = (   0.3433302   0.5600243   0.2785902), wk =   0.0011074
        k(  596) = (   0.3416635   0.5629110   0.2785902), wk =   0.0011074
        k(  597) = (   0.3399968   0.5657977   0.2785902), wk =   0.0011074
        k(  598) = (   0.3383301   0.5686844   0.2785902), wk =   0.0011074
        k(  599) = (   0.3366634   0.5715711   0.2785902), wk =   0.0011074
        k(  600) = (   0.3349967   0.5744578   0.2785902), wk =   0.0011074
        k(  601) = (   0.3333300   0.5773445   0.2785902), wk =   0.0011074
        k(  602) = (   0.3299967   0.5715711   0.2785902), wk =   0.0011074
        k(  603) = (   0.3266634   0.5657976   0.2785902), wk =   0.0011074
        k(  604) = (   0.3233301   0.5600242   0.2785902), wk =   0.0011074
        k(  605) = (   0.3199968   0.5542507   0.2785902), wk =   0.0011074
        k(  606) = (   0.3166635   0.5484773   0.2785902), wk =   0.0011074
        k(  607) = (   0.3133302   0.5427038   0.2785902), wk =   0.0011074
        k(  608) = (   0.3099969   0.5369304   0.2785902), wk =   0.0011074
        k(  609) = (   0.3066636   0.5311569   0.2785902), wk =   0.0011074
        k(  610) = (   0.3033303   0.5253835   0.2785902), wk =   0.0011074
        k(  611) = (   0.2999970   0.5196100   0.2785902), wk =   0.0011074
        k(  612) = (   0.2966637   0.5138366   0.2785902), wk =   0.0011074
        k(  613) = (   0.2933304   0.5080632   0.2785902), wk =   0.0011074
        k(  614) = (   0.2899971   0.5022897   0.2785902), wk =   0.0011074
        k(  615) = (   0.2866638   0.4965163   0.2785902), wk =   0.0011074
        k(  616) = (   0.2833305   0.4907428   0.2785902), wk =   0.0011074
        k(  617) = (   0.2799972   0.4849694   0.2785902), wk =   0.0011074
        k(  618) = (   0.2766639   0.4791959   0.2785902), wk =   0.0011074
        k(  619) = (   0.2733306   0.4734225   0.2785902), wk =   0.0011074
        k(  620) = (   0.2699973   0.4676490   0.2785902), wk =   0.0011074
        k(  621) = (   0.2666640   0.4618756   0.2785902), wk =   0.0011074
        k(  622) = (   0.2633307   0.4561022   0.2785902), wk =   0.0011074
        k(  623) = (   0.2599974   0.4503287   0.2785902), wk =   0.0011074
        k(  624) = (   0.2566641   0.4445553   0.2785902), wk =   0.0011074
        k(  625) = (   0.2533308   0.4387818   0.2785902), wk =   0.0011074
        k(  626) = (   0.2499975   0.4330084   0.2785902), wk =   0.0011074
        k(  627) = (   0.2466642   0.4272349   0.2785902), wk =   0.0011074
        k(  628) = (   0.2433309   0.4214615   0.2785902), wk =   0.0011074
        k(  629) = (   0.2399976   0.4156880   0.2785902), wk =   0.0011074
        k(  630) = (   0.2366643   0.4099146   0.2785902), wk =   0.0011074
        k(  631) = (   0.2333310   0.4041411   0.2785902), wk =   0.0011074
        k(  632) = (   0.2299977   0.3983677   0.2785902), wk =   0.0011074
        k(  633) = (   0.2266644   0.3925943   0.2785902), wk =   0.0011074
        k(  634) = (   0.2233311   0.3868208   0.2785902), wk =   0.0011074
        k(  635) = (   0.2199978   0.3810474   0.2785902), wk =   0.0011074
        k(  636) = (   0.2166645   0.3752739   0.2785902), wk =   0.0011074
        k(  637) = (   0.2133312   0.3695005   0.2785902), wk =   0.0011074
        k(  638) = (   0.2099979   0.3637270   0.2785902), wk =   0.0011074
        k(  639) = (   0.2066646   0.3579536   0.2785902), wk =   0.0011074
        k(  640) = (   0.2033313   0.3521801   0.2785902), wk =   0.0011074
        k(  641) = (   0.1999980   0.3464067   0.2785902), wk =   0.0011074
        k(  642) = (   0.1966647   0.3406333   0.2785902), wk =   0.0011074
        k(  643) = (   0.1933314   0.3348598   0.2785902), wk =   0.0011074
        k(  644) = (   0.1899981   0.3290864   0.2785902), wk =   0.0011074
        k(  645) = (   0.1866648   0.3233129   0.2785902), wk =   0.0011074
        k(  646) = (   0.1833315   0.3175395   0.2785902), wk =   0.0011074
        k(  647) = (   0.1799982   0.3117660   0.2785902), wk =   0.0011074
        k(  648) = (   0.1766649   0.3059926   0.2785902), wk =   0.0011074
        k(  649) = (   0.1733316   0.3002191   0.2785902), wk =   0.0011074
        k(  650) = (   0.1699983   0.2944457   0.2785902), wk =   0.0011074
        k(  651) = (   0.1666650   0.2886722   0.2785902), wk =   0.0011074
        k(  652) = (   0.1633317   0.2828988   0.2785902), wk =   0.0011074
        k(  653) = (   0.1599984   0.2771254   0.2785902), wk =   0.0011074
        k(  654) = (   0.1566651   0.2713519   0.2785902), wk =   0.0011074
        k(  655) = (   0.1533318   0.2655785   0.2785902), wk =   0.0011074
        k(  656) = (   0.1499985   0.2598050   0.2785902), wk =   0.0011074
        k(  657) = (   0.1466652   0.2540316   0.2785902), wk =   0.0011074
        k(  658) = (   0.1433319   0.2482581   0.2785902), wk =   0.0011074
        k(  659) = (   0.1399986   0.2424847   0.2785902), wk =   0.0011074
        k(  660) = (   0.1366653   0.2367112   0.2785902), wk =   0.0011074
        k(  661) = (   0.1333320   0.2309378   0.2785902), wk =   0.0011074
        k(  662) = (   0.1299987   0.2251644   0.2785902), wk =   0.0011074
        k(  663) = (   0.1266654   0.2193909   0.2785902), wk =   0.0011074
        k(  664) = (   0.1233321   0.2136175   0.2785902), wk =   0.0011074
        k(  665) = (   0.1199988   0.2078440   0.2785902), wk =   0.0011074
        k(  666) = (   0.1166655   0.2020706   0.2785902), wk =   0.0011074
        k(  667) = (   0.1133322   0.1962971   0.2785902), wk =   0.0011074
        k(  668) = (   0.1099989   0.1905237   0.2785902), wk =   0.0011074
        k(  669) = (   0.1066656   0.1847502   0.2785902), wk =   0.0011074
        k(  670) = (   0.1033323   0.1789768   0.2785902), wk =   0.0011074
        k(  671) = (   0.0999990   0.1732033   0.2785902), wk =   0.0011074
        k(  672) = (   0.0966657   0.1674299   0.2785902), wk =   0.0011074
        k(  673) = (   0.0933324   0.1616565   0.2785902), wk =   0.0011074
        k(  674) = (   0.0899991   0.1558830   0.2785902), wk =   0.0011074
        k(  675) = (   0.0866658   0.1501096   0.2785902), wk =   0.0011074
        k(  676) = (   0.0833325   0.1443361   0.2785902), wk =   0.0011074
        k(  677) = (   0.0799992   0.1385627   0.2785902), wk =   0.0011074
        k(  678) = (   0.0766659   0.1327892   0.2785902), wk =   0.0011074
        k(  679) = (   0.0733326   0.1270158   0.2785902), wk =   0.0011074
        k(  680) = (   0.0699993   0.1212423   0.2785902), wk =   0.0011074
        k(  681) = (   0.0666660   0.1154689   0.2785902), wk =   0.0011074
        k(  682) = (   0.0633327   0.1096955   0.2785902), wk =   0.0011074
        k(  683) = (   0.0599994   0.1039220   0.2785902), wk =   0.0011074
        k(  684) = (   0.0566661   0.0981486   0.2785902), wk =   0.0011074
        k(  685) = (   0.0533328   0.0923751   0.2785902), wk =   0.0011074
        k(  686) = (   0.0499995   0.0866017   0.2785902), wk =   0.0011074
        k(  687) = (   0.0466662   0.0808282   0.2785902), wk =   0.0011074
        k(  688) = (   0.0433329   0.0750548   0.2785902), wk =   0.0011074
        k(  689) = (   0.0399996   0.0692813   0.2785902), wk =   0.0011074
        k(  690) = (   0.0366663   0.0635079   0.2785902), wk =   0.0011074
        k(  691) = (   0.0333330   0.0577344   0.2785902), wk =   0.0011074
        k(  692) = (   0.0299997   0.0519610   0.2785902), wk =   0.0011074
        k(  693) = (   0.0266664   0.0461876   0.2785902), wk =   0.0011074
        k(  694) = (   0.0233331   0.0404141   0.2785902), wk =   0.0011074
        k(  695) = (   0.0199998   0.0346407   0.2785902), wk =   0.0011074
        k(  696) = (   0.0166665   0.0288672   0.2785902), wk =   0.0011074
        k(  697) = (   0.0133332   0.0230938   0.2785902), wk =   0.0011074
        k(  698) = (   0.0099999   0.0173203   0.2785902), wk =   0.0011074
        k(  699) = (   0.0066666   0.0115469   0.2785902), wk =   0.0011074
        k(  700) = (   0.0033333   0.0057734   0.2785902), wk =   0.0011074
        k(  701) = (   0.0000000   0.0000000   0.2785902), wk =   0.0011074
        k(  702) = (   0.5000000   0.2886751   0.2785902), wk =   0.0011074
        k(  703) = (   0.5000000   0.2886751   0.2758043), wk =   0.0011074
        k(  704) = (   0.5000000   0.2886751   0.2730184), wk =   0.0011074
        k(  705) = (   0.5000000   0.2886751   0.2702325), wk =   0.0011074
        k(  706) = (   0.5000000   0.2886751   0.2674466), wk =   0.0011074
        k(  707) = (   0.5000000   0.2886751   0.2646607), wk =   0.0011074
        k(  708) = (   0.5000000   0.2886751   0.2618748), wk =   0.0011074
        k(  709) = (   0.5000000   0.2886751   0.2590889), wk =   0.0011074
        k(  710) = (   0.5000000   0.2886751   0.2563030), wk =   0.0011074
        k(  711) = (   0.5000000   0.2886751   0.2535171), wk =   0.0011074
        k(  712) = (   0.5000000   0.2886751   0.2507312), wk =   0.0011074
        k(  713) = (   0.5000000   0.2886751   0.2479453), wk =   0.0011074
        k(  714) = (   0.5000000   0.2886751   0.2451594), wk =   0.0011074
        k(  715) = (   0.5000000   0.2886751   0.2423735), wk =   0.0011074
        k(  716) = (   0.5000000   0.2886751   0.2395876), wk =   0.0011074
        k(  717) = (   0.5000000   0.2886751   0.2368017), wk =   0.0011074
        k(  718) = (   0.5000000   0.2886751   0.2340158), wk =   0.0011074
        k(  719) = (   0.5000000   0.2886751   0.2312299), wk =   0.0011074
        k(  720) = (   0.5000000   0.2886751   0.2284440), wk =   0.0011074
        k(  721) = (   0.5000000   0.2886751   0.2256581), wk =   0.0011074
        k(  722) = (   0.5000000   0.2886751   0.2228722), wk =   0.0011074
        k(  723) = (   0.5000000   0.2886751   0.2200863), wk =   0.0011074
        k(  724) = (   0.5000000   0.2886751   0.2173004), wk =   0.0011074
        k(  725) = (   0.5000000   0.2886751   0.2145145), wk =   0.0011074
        k(  726) = (   0.5000000   0.2886751   0.2117286), wk =   0.0011074
        k(  727) = (   0.5000000   0.2886751   0.2089427), wk =   0.0011074
        k(  728) = (   0.5000000   0.2886751   0.2061568), wk =   0.0011074
        k(  729) = (   0.5000000   0.2886751   0.2033709), wk =   0.0011074
        k(  730) = (   0.5000000   0.2886751   0.2005850), wk =   0.0011074
        k(  731) = (   0.5000000   0.2886751   0.1977991), wk =   0.0011074
        k(  732) = (   0.5000000   0.2886751   0.1950132), wk =   0.0011074
        k(  733) = (   0.5000000   0.2886751   0.1922273), wk =   0.0011074
        k(  734) = (   0.5000000   0.2886751   0.1894414), wk =   0.0011074
        k(  735) = (   0.5000000   0.2886751   0.1866555), wk =   0.0011074
        k(  736) = (   0.5000000   0.2886751   0.1838696), wk =   0.0011074
        k(  737) = (   0.5000000   0.2886751   0.1810837), wk =   0.0011074
        k(  738) = (   0.5000000   0.2886751   0.1782978), wk =   0.0011074
        k(  739) = (   0.5000000   0.2886751   0.1755119), wk =   0.0011074
        k(  740) = (   0.5000000   0.2886751   0.1727260), wk =   0.0011074
        k(  741) = (   0.5000000   0.2886751   0.1699401), wk =   0.0011074
        k(  742) = (   0.5000000   0.2886751   0.1671541), wk =   0.0011074
        k(  743) = (   0.5000000   0.2886751   0.1643682), wk =   0.0011074
        k(  744) = (   0.5000000   0.2886751   0.1615823), wk =   0.0011074
        k(  745) = (   0.5000000   0.2886751   0.1587964), wk =   0.0011074
        k(  746) = (   0.5000000   0.2886751   0.1560105), wk =   0.0011074
        k(  747) = (   0.5000000   0.2886751   0.1532246), wk =   0.0011074
        k(  748) = (   0.5000000   0.2886751   0.1504387), wk =   0.0011074
        k(  749) = (   0.5000000   0.2886751   0.1476528), wk =   0.0011074
        k(  750) = (   0.5000000   0.2886751   0.1448669), wk =   0.0011074
        k(  751) = (   0.5000000   0.2886751   0.1420810), wk =   0.0011074
        k(  752) = (   0.5000000   0.2886751   0.1392951), wk =   0.0011074
        k(  753) = (   0.5000000   0.2886751   0.1365092), wk =   0.0011074
        k(  754) = (   0.5000000   0.2886751   0.1337233), wk =   0.0011074
        k(  755) = (   0.5000000   0.2886751   0.1309374), wk =   0.0011074
        k(  756) = (   0.5000000   0.2886751   0.1281515), wk =   0.0011074
        k(  757) = (   0.5000000   0.2886751   0.1253656), wk =   0.0011074
        k(  758) = (   0.5000000   0.2886751   0.1225797), wk =   0.0011074
        k(  759) = (   0.5000000   0.2886751   0.1197938), wk =   0.0011074
        k(  760) = (   0.5000000   0.2886751   0.1170079), wk =   0.0011074
        k(  761) = (   0.5000000   0.2886751   0.1142220), wk =   0.0011074
        k(  762) = (   0.5000000   0.2886751   0.1114361), wk =   0.0011074
        k(  763) = (   0.5000000   0.2886751   0.1086502), wk =   0.0011074
        k(  764) = (   0.5000000   0.2886751   0.1058643), wk =   0.0011074
        k(  765) = (   0.5000000   0.2886751   0.1030784), wk =   0.0011074
        k(  766) = (   0.5000000   0.2886751   0.1002925), wk =   0.0011074
        k(  767) = (   0.5000000   0.2886751   0.0975066), wk =   0.0011074
        k(  768) = (   0.5000000   0.2886751   0.0947207), wk =   0.0011074
        k(  769) = (   0.5000000   0.2886751   0.0919348), wk =   0.0011074
        k(  770) = (   0.5000000   0.2886751   0.0891489), wk =   0.0011074
        k(  771) = (   0.5000000   0.2886751   0.0863630), wk =   0.0011074
        k(  772) = (   0.5000000   0.2886751   0.0835771), wk =   0.0011074
        k(  773) = (   0.5000000   0.2886751   0.0807912), wk =   0.0011074
        k(  774) = (   0.5000000   0.2886751   0.0780053), wk =   0.0011074
        k(  775) = (   0.5000000   0.2886751   0.0752194), wk =   0.0011074
        k(  776) = (   0.5000000   0.2886751   0.0724335), wk =   0.0011074
        k(  777) = (   0.5000000   0.2886751   0.0696476), wk =   0.0011074
        k(  778) = (   0.5000000   0.2886751   0.0668617), wk =   0.0011074
        k(  779) = (   0.5000000   0.2886751   0.0640758), wk =   0.0011074
        k(  780) = (   0.5000000   0.2886751   0.0612899), wk =   0.0011074
        k(  781) = (   0.5000000   0.2886751   0.0585040), wk =   0.0011074
        k(  782) = (   0.5000000   0.2886751   0.0557180), wk =   0.0011074
        k(  783) = (   0.5000000   0.2886751   0.0529321), wk =   0.0011074
        k(  784) = (   0.5000000   0.2886751   0.0501462), wk =   0.0011074
        k(  785) = (   0.5000000   0.2886751   0.0473603), wk =   0.0011074
        k(  786) = (   0.5000000   0.2886751   0.0445744), wk =   0.0011074
        k(  787) = (   0.5000000   0.2886751   0.0417885), wk =   0.0011074
        k(  788) = (   0.5000000   0.2886751   0.0390026), wk =   0.0011074
        k(  789) = (   0.5000000   0.2886751   0.0362167), wk =   0.0011074
        k(  790) = (   0.5000000   0.2886751   0.0334308), wk =   0.0011074
        k(  791) = (   0.5000000   0.2886751   0.0306449), wk =   0.0011074
        k(  792) = (   0.5000000   0.2886751   0.0278590), wk =   0.0011074
        k(  793) = (   0.5000000   0.2886751   0.0250731), wk =   0.0011074
        k(  794) = (   0.5000000   0.2886751   0.0222872), wk =   0.0011074
        k(  795) = (   0.5000000   0.2886751   0.0195013), wk =   0.0011074
        k(  796) = (   0.5000000   0.2886751   0.0167154), wk =   0.0011074
        k(  797) = (   0.5000000   0.2886751   0.0139295), wk =   0.0011074
        k(  798) = (   0.5000000   0.2886751   0.0111436), wk =   0.0011074
        k(  799) = (   0.5000000   0.2886751   0.0083577), wk =   0.0011074
        k(  800) = (   0.5000000   0.2886751   0.0055718), wk =   0.0011074
        k(  801) = (   0.5000000   0.2886751   0.0027859), wk =   0.0011074
        k(  802) = (   0.5000000   0.2886751   0.0000000), wk =   0.0011074
        k(  803) = (   0.3333300   0.5773445   0.0000000), wk =   0.0011074
        k(  804) = (   0.3333300   0.5773445   0.0027859), wk =   0.0011074
        k(  805) = (   0.3333300   0.5773445   0.0055718), wk =   0.0011074
        k(  806) = (   0.3333300   0.5773445   0.0083577), wk =   0.0011074
        k(  807) = (   0.3333300   0.5773445   0.0111436), wk =   0.0011074
        k(  808) = (   0.3333300   0.5773445   0.0139295), wk =   0.0011074
        k(  809) = (   0.3333300   0.5773445   0.0167154), wk =   0.0011074
        k(  810) = (   0.3333300   0.5773445   0.0195013), wk =   0.0011074
        k(  811) = (   0.3333300   0.5773445   0.0222872), wk =   0.0011074
        k(  812) = (   0.3333300   0.5773445   0.0250731), wk =   0.0011074
        k(  813) = (   0.3333300   0.5773445   0.0278590), wk =   0.0011074
        k(  814) = (   0.3333300   0.5773445   0.0306449), wk =   0.0011074
        k(  815) = (   0.3333300   0.5773445   0.0334308), wk =   0.0011074
        k(  816) = (   0.3333300   0.5773445   0.0362167), wk =   0.0011074
        k(  817) = (   0.3333300   0.5773445   0.0390026), wk =   0.0011074
        k(  818) = (   0.3333300   0.5773445   0.0417885), wk =   0.0011074
        k(  819) = (   0.3333300   0.5773445   0.0445744), wk =   0.0011074
        k(  820) = (   0.3333300   0.5773445   0.0473603), wk =   0.0011074
        k(  821) = (   0.3333300   0.5773445   0.0501462), wk =   0.0011074
        k(  822) = (   0.3333300   0.5773445   0.0529321), wk =   0.0011074
        k(  823) = (   0.3333300   0.5773445   0.0557180), wk =   0.0011074
        k(  824) = (   0.3333300   0.5773445   0.0585040), wk =   0.0011074
        k(  825) = (   0.3333300   0.5773445   0.0612899), wk =   0.0011074
        k(  826) = (   0.3333300   0.5773445   0.0640758), wk =   0.0011074
[...]
     5.0265   5.0265   6.1893   6.1893   6.3003   6.3003   6.4065   6.4065
     6.4571   6.4571   6.5007   6.5007   6.5708   6.5708   7.3716   7.3716
     7.3838   7.3838   8.0086   8.0086   8.3948   8.3948   8.4604   8.4604
     8.5093   8.5093   8.7922   8.7922   8.9227   8.9276   8.9577   8.9642

          k = 0.3333 0.5773 0.2284 ( 25203 PWs)   bands (ev):

   -56.6785 -56.6785 -56.6785 -56.6785 -56.6460 -56.6460 -31.1358 -31.1358
   -31.1001 -31.1001 -31.0830 -31.0830 -30.3718 -30.3718 -30.3381 -30.3381
   -30.3149 -30.3149 -30.2860 -30.2860 -30.1716 -30.1716 -30.0898 -30.0898
   -15.0532 -15.0532  -3.1046  -3.1046  -2.1390  -2.1390  -2.1175  -2.1175
    -2.0958  -2.0958  -1.9818  -1.9818  -1.8305  -1.8305  -1.3739  -1.3739
    -1.2566  -1.2566   2.7768   2.7768   3.2111   3.2111   3.3818   3.3818
     3.6023   3.6023   4.7899   4.7899   4.8691   4.8691   4.9642   4.9642
     5.0264   5.0264   6.1888   6.1888   6.2995   6.2995   6.4060   6.4060
     6.4571   6.4571   6.5007   6.5007   6.5710   6.5710   7.3714   7.3714
     7.3837   7.3837   8.0086   8.0086   8.3940   8.3940   8.4611   8.4611
     8.5101   8.5101   8.7916   8.7916   8.9222   8.9324   8.9497   8.9567

          k = 0.3333 0.5773 0.2312 ( 25191 PWs)   bands (ev):

   -56.6785 -56.6785 -56.6785 -56.6785 -56.6460 -56.6460 -31.1358 -31.1358
   -31.1001 -31.1001 -31.0830 -31.0830 -30.3718 -30.3718 -30.3381 -30.3381
   -30.3149 -30.3149 -30.2860 -30.2860 -30.1716 -30.1716 -30.0898 -30.0898
   -15.0532 -15.0532  -3.1045  -3.1045  -2.1371  -2.1371  -2.1170  -2.1170
    -2.0964  -2.0964  -1.9843  -1.9843  -1.8308  -1.8308  -1.3734  -1.3734
    -1.2559  -1.2559   2.7759   2.7759   3.2113   3.2113   3.3819   3.3819
     3.6033   3.6033   4.7898   4.7898   4.8695   4.8695   4.9637   4.9637
     5.0264   5.0264   6.1884   6.1884   6.2988   6.2988   6.4055   6.4055
     6.4571   6.4571   6.5008   6.5008   6.5711   6.5711   7.3713   7.3713
     7.3836   7.3836   8.0086   8.0086   8.3933   8.3933   8.4617   8.4617
     8.5109   8.5109   8.7911   8.7911   8.9246   8.9351   8.9570   8.9924

          k = 0.3333 0.5773 0.2340 ( 25191 PWs)   bands (ev):

   -56.6785 -56.6785 -56.6785 -56.6785 -56.6460 -56.6460 -31.1358 -31.1358
   -31.1001 -31.1001 -31.0830 -31.0830 -30.3718 -30.3718 -30.3381 -30.3381
   -30.3149 -30.3149 -30.2860 -30.2860 -30.1716 -30.1716 -30.0898 -30.0898
   -15.0532 -15.0532  -3.1045  -3.1045  -2.1352  -2.1352  -2.1166  -2.1166
    -2.0970  -2.0970  -1.9867  -1.9867  -1.8311  -1.8311  -1.3729  -1.3729
    -1.2553  -1.2553   2.7750   2.7750   3.2114   3.2114   3.3821   3.3821
     3.6042   3.6042   4.7898   4.7898   4.8699   4.8699   4.9631   4.9631
     5.0263   5.0263   6.1879   6.1879   6.2981   6.2981   6.4050   6.4050
     6.4571   6.4571   6.5008   6.5008   6.5713   6.5713   7.3711   7.3711
     7.3835   7.3835   8.0086   8.0086   8.3926   8.3926   8.4621   8.4621
     8.5118   8.5118   8.7905   8.7905   8.9228   8.9368   8.9589   8.9857

          k = 0.3333 0.5773 0.2368 ( 25203 PWs)   bands (ev):

   -56.6785 -56.6785 -56.6785 -56.6785 -56.6460 -56.6460 -31.1358 -31.1358
   -31.1001 -31.1001 -31.0830 -31.0830 -30.3718 -30.3718 -30.3381 -30.3381
   -30.3149 -30.3149 -30.2860 -30.2860 -30.1716 -30.1716 -30.0898 -30.0898
   -15.0532 -15.0532  -3.1044  -3.1044  -2.1334  -2.1334  -2.1161  -2.1161
    -2.0976  -2.0976  -1.9890  -1.9890  -1.8313  -1.8313  -1.3725  -1.3725
    -1.2548  -1.2548   2.7742   2.7742   3.2116   3.2116   3.3822   3.3822
     3.6051   3.6051   4.7898   4.7898   4.8703   4.8703   4.9626   4.9626
     5.0262   5.0262   6.1875   6.1875   6.2975   6.2975   6.4046   6.4046
     6.4571   6.4571   6.5008   6.5008   6.5714   6.5714   7.3710   7.3710
     7.3834   7.3834   8.0086   8.0086   8.3920   8.3920   8.4625   8.4625
     8.5128   8.5128   8.7900   8.7900   8.9195   8.9198   8.9549   8.9556

          k = 0.3333 0.5773 0.2396 ( 25215 PWs)   bands (ev):

   -56.6785 -56.6785 -56.6785 -56.6785 -56.6460 -56.6460 -31.1358 -31.1358
   -31.1001 -31.1001 -31.0830 -31.0830 -30.3718 -30.3718 -30.3381 -30.3381
   -30.3149 -30.3149 -30.2860 -30.2860 -30.1716 -30.1716 -30.0898 -30.0898
   -15.0532 -15.0532  -3.1044  -3.1044  -2.1317  -2.1317  -2.1157  -2.1157
    -2.0982  -2.0982  -1.9913  -1.9913  -1.8316  -1.8316  -1.3720  -1.3720
    -1.2542  -1.2542   2.7735   2.7735   3.2117   3.2117   3.3824   3.3824
     3.6059   3.6059   4.7898   4.7898   4.8706   4.8706   4.9621   4.9621
     5.0262   5.0262   6.1871   6.1871   6.2969   6.2969   6.4042   6.4042
     6.4570   6.4570   6.5008   6.5008   6.5715   6.5715   7.3708   7.3708
     7.3833   7.3833   8.0086   8.0086   8.3914   8.3914   8.4627   8.4627
     8.5137   8.5137   8.7895   8.7895   8.9190   8.9293   8.9550   8.9865

          k = 0.3333 0.5773 0.2424 ( 25209 PWs)   bands (ev):

   -56.6785 -56.6785 -56.6785 -56.6785 -56.6460 -56.6460 -31.1358 -31.1358
   -31.1001 -31.1001 -31.0830 -31.0830 -30.3718 -30.3718 -30.3381 -30.3381
   -30.3149 -30.3149 -30.2860 -30.2860 -30.1716 -30.1716 -30.0898 -30.0898
   -15.0532 -15.0532  -3.1044  -3.1044  -2.1300  -2.1300  -2.1152  -2.1152
    -2.0988  -2.0988  -1.9934  -1.9934  -1.8318  -1.8318  -1.3717  -1.3717
    -1.2537  -1.2537   2.7727   2.7727   3.2119   3.2119   3.3825   3.3825
     3.6067   3.6067   4.7897   4.7897   4.8710   4.8710   4.9617   4.9617
     5.0261   5.0261   6.1868   6.1868   6.2963   6.2963   6.4039   6.4039
     6.4570   6.4570   6.5008   6.5008   6.5716   6.5716   7.3707   7.3707
     7.3832   7.3832   8.0086   8.0086   8.3908   8.3908   8.4629   8.4629
     8.5147   8.5147   8.7891   8.7891   8.9184   8.9199   8.9541   8.9546

          k = 0.3333 0.5773 0.2452 ( 25209 PWs)   bands (ev):

   -56.6785 -56.6785 -56.6785 -56.6785 -56.6460 -56.6460 -31.1358 -31.1358
   -31.1001 -31.1001 -31.0830 -31.0830 -30.3718 -30.3718 -30.3381 -30.3381
   -30.3149 -30.3149 -30.2860 -30.2860 -30.1716 -30.1716 -30.0898 -30.0898
   -15.0532 -15.0532  -3.1043  -3.1043  -2.1284  -2.1284  -2.1147  -2.1147
    -2.0994  -2.0994  -1.9955  -1.9955  -1.8320  -1.8320  -1.3713  -1.3713
    -1.2533  -1.2533   2.7721   2.7721   3.2120   3.2120   3.3826   3.3826
     3.6074   3.6074   4.7897   4.7897   4.8713   4.8713   4.9612   4.9612
     5.0261   5.0261   6.1864   6.1864   6.2958   6.2958   6.4035   6.4035
     6.4570   6.4570   6.5008   6.5008   6.5717   6.5717   7.3706   7.3706
     7.3831   7.3831   8.0086   8.0086   8.3903   8.3903   8.4630   8.4630
     8.5156   8.5156   8.7887   8.7887   8.9188   8.9195   8.9545   9.0658

          k = 0.3333 0.5773 0.2479 ( 25209 PWs)   bands (ev):

   -56.6785 -56.6785 -56.6785 -56.6785 -56.6460 -56.6460 -31.1358 -31.1358
   -31.1001 -31.1001 -31.0830 -31.0830 -30.3718 -30.3718 -30.3381 -30.3381
   -30.3149 -30.3149 -30.2860 -30.2860 -30.1716 -30.1716 -30.0898 -30.0898
   -15.0532 -15.0532  -3.1043  -3.1043  -2.1268  -2.1268  -2.1142  -2.1142
    -2.1000  -2.1000  -1.9974  -1.9974  -1.8322  -1.8322  -1.3710  -1.3710
    -1.2528  -1.2528   2.7715   2.7715   3.2121   3.2121   3.3827   3.3827
     3.6081   3.6081   4.7897   4.7897   4.8715   4.8715   4.9608   4.9608
     5.0261   5.0261   6.1861   6.1861   6.2953   6.2953   6.4032   6.4032
     6.4570   6.4570   6.5008   6.5008   6.5718   6.5718   7.3705   7.3705
     7.3830   7.3830   8.0086   8.0086   8.3898   8.3898   8.4631   8.4631
     8.5165   8.5165   8.7883   8.7883   8.9177   8.9235   8.9555   8.9582

          k = 0.3333 0.5773 0.2507 ( 25203 PWs)   bands (ev):

   -56.6785 -56.6785 -56.6785 -56.6785 -56.6460 -56.6460 -31.1358 -31.1358
   -31.1001 -31.1001 -31.0830 -31.0830 -30.3718 -30.3718 -30.3381 -30.3381
   -30.3149 -30.3149 -30.2860 -30.2860 -30.1716 -30.1716 -30.0898 -30.0898
   -15.0532 -15.0532  -3.1043  -3.1043  -2.1254  -2.1254  -2.1137  -2.1137
    -2.1005  -2.1005  -1.9992  -1.9992  -1.8324  -1.8324  -1.3706  -1.3706
    -1.2524  -1.2524   2.7709   2.7709   3.2122   3.2122   3.3828   3.3828
     3.6087   3.6087   4.7897   4.7897   4.8718   4.8718   4.9605   4.9605
     5.0260   5.0260   6.1858   6.1858   6.2949   6.2949   6.4029   6.4029
     6.4570   6.4570   6.5009   6.5009   6.5719   6.5719   7.3704   7.3704
     7.3829   7.3829   8.0086   8.0086   8.3893   8.3893   8.4631   8.4631
     8.5174   8.5174   8.7879   8.7879   8.9166   8.9191   8.9535   8.9580

          k = 0.3333 0.5773 0.2535 ( 25193 PWs)   bands (ev):

   -56.6785 -56.6785 -56.6785 -56.6785 -56.6460 -56.6460 -31.1358 -31.1358
   -31.1001 -31.1001 -31.0830 -31.0830 -30.3718 -30.3718 -30.3381 -30.3381
   -30.3149 -30.3149 -30.2860 -30.2860 -30.1716 -30.1716 -30.0898 -30.0898
   -15.0532 -15.0532  -3.1043  -3.1043  -2.1240  -2.1240  -2.1132  -2.1132
    -2.1011  -2.1011  -2.0009  -2.0009  -1.8326  -1.8326  -1.3704  -1.3704
    -1.2521  -1.2521   2.7704   2.7704   3.2123   3.2123   3.3829   3.3829
     3.6092   3.6092   4.7897   4.7897   4.8721   4.8721   4.9601   4.9601
     5.0260   5.0260   6.1856   6.1856   6.2945   6.2945   6.4027   6.4027
     6.4570   6.4570   6.5009   6.5009   6.5720   6.5720   7.3703   7.3703
     7.3829   7.3829   8.0086   8.0086   8.3889   8.3889   8.4631   8.4631
     8.5182   8.5182   8.7876   8.7876   8.9228   8.9340   8.9623   8.9979

          k = 0.3333 0.5773 0.2563 ( 25194 PWs)   bands (ev):

   -56.6785 -56.6785 -56.6785 -56.6785 -56.6460 -56.6460 -31.1358 -31.1358
   -31.1001 -31.1001 -31.0830 -31.0830 -30.3718 -30.3718 -30.3381 -30.3381
   -30.3149 -30.3149 -30.2860 -30.2860 -30.1716 -30.1716 -30.0898 -30.0898
   -15.0532 -15.0532  -3.1042  -3.1042  -2.1228  -2.1228  -2.1127  -2.1127
    -2.1017  -2.1017  -2.0025  -2.0025  -1.8327  -1.8327  -1.3701  -1.3701
    -1.2518  -1.2518   2.7699   2.7699   3.2124   3.2124   3.3830   3.3830
     3.6097   3.6097   4.7897   4.7897   4.8723   4.8723   4.9598   4.9598
     5.0259   5.0259   6.1853   6.1853   6.2942   6.2942   6.4024   6.4024
     6.4570   6.4570   6.5009   6.5009   6.5720   6.5720   7.3702   7.3702
     7.3828   7.3828   8.0086   8.0086   8.3886   8.3886   8.4631   8.4631
     8.5190   8.5190   8.7873   8.7873   8.9174   8.9182   8.9523   8.9529

          k = 0.3333 0.5773 0.2591 ( 25188 PWs)   bands (ev):

   -56.6785 -56.6785 -56.6785 -56.6785 -56.6460 -56.6460 -31.1358 -31.1358
   -31.1001 -31.1001 -31.0830 -31.0830 -30.3718 -30.3718 -30.3381 -30.3381
   -30.3149 -30.3149 -30.2860 -30.2860 -30.1716 -30.1716 -30.0898 -30.0898
   -15.0532 -15.0532  -3.1042  -3.1042  -2.1217  -2.1217  -2.1122  -2.1122
    -2.1022  -2.1022  -2.0038  -2.0038  -1.8328  -1.8328  -1.3699  -1.3699
    -1.2515  -1.2515   2.7695   2.7695   3.2125   3.2125   3.3830   3.3830
     3.6102   3.6102   4.7896   4.7896   4.8725   4.8725   4.9595   4.9595
     5.0259   5.0259   6.1851   6.1851   6.2938   6.2938   6.4022   6.4022
     6.4570   6.4570   6.5009   6.5009   6.5721   6.5721   7.3701   7.3701
     7.3827   7.3827   8.0086   8.0086   8.3882   8.3882   8.4630   8.4630
     8.5197   8.5197   8.7871   8.7871   8.9205   8.9226   8.9593   8.9954

          k = 0.3333 0.5773 0.2619 ( 25182 PWs)   bands (ev):

   -56.6785 -56.6785 -56.6785 -56.6785 -56.6460 -56.6460 -31.1358 -31.1358
   -31.1001 -31.1001 -31.0830 -31.0830 -30.3718 -30.3718 -30.3381 -30.3381
   -30.3149 -30.3149 -30.2860 -30.2860 -30.1716 -30.1716 -30.0898 -30.0898
   -15.0532 -15.0532  -3.1042  -3.1042  -2.1207  -2.1207  -2.1117  -2.1117
    -2.1028  -2.1028  -2.0051  -2.0051  -1.8329  -1.8329  -1.3697  -1.3697
    -1.2512  -1.2512   2.7692   2.7692   3.2125   3.2125   3.3831   3.3831
     3.6106   3.6106   4.7896   4.7896   4.8726   4.8726   4.9593   4.9593
     5.0259   5.0259   6.1849   6.1849   6.2936   6.2936   6.4020   6.4020
     6.4570   6.4570   6.5009   6.5009   6.5721   6.5721   7.3700   7.3700
     7.3827   7.3827   8.0086   8.0086   8.3880   8.3880   8.4630   8.4630
     8.5203   8.5203   8.7869   8.7869   8.9155   8.9222   8.9515   8.9563

          k = 0.3333 0.5773 0.2647 ( 25206 PWs)   bands (ev):

   -56.6785 -56.6785 -56.6785 -56.6785 -56.6460 -56.6460 -31.1358 -31.1358
   -31.1001 -31.1001 -31.0830 -31.0830 -30.3718 -30.3718 -30.3381 -30.3381
   -30.3149 -30.3149 -30.2860 -30.2860 -30.1716 -30.1716 -30.0898 -30.0898
   -15.0532 -15.0532  -3.1042  -3.1042  -2.1198  -2.1198  -2.1113  -2.1113
    -2.1033  -2.1033  -2.0061  -2.0061  -1.8330  -1.8330  -1.3695  -1.3695
    -1.2510  -1.2510   2.7689   2.7689   3.2126   3.2126   3.3831   3.3831
     3.6109   3.6109   4.7896   4.7896   4.8728   4.8728   4.9591   4.9591
     5.0259   5.0259   6.1848   6.1848   6.2933   6.2933   6.4019   6.4019
     6.4570   6.4570   6.5009   6.5009   6.5722   6.5722   7.3700   7.3700
     7.3827   7.3827   8.0085   8.0085   8.3877   8.3877   8.4630   8.4630
     8.5208   8.5208   8.7867   8.7867   8.9151   8.9198   8.9513   8.9530

          k = 0.3333 0.5773 0.2674 ( 25206 PWs)   bands (ev):

   -56.6785 -56.6785 -56.6785 -56.6785 -56.6460 -56.6460 -31.1358 -31.1358
   -31.1001 -31.1001 -31.0830 -31.0830 -30.3718 -30.3718 -30.3381 -30.3381
   -30.3149 -30.3149 -30.2860 -30.2860 -30.1716 -30.1716 -30.0898 -30.0898
   -15.0532 -15.0532  -3.1042  -3.1042  -2.1191  -2.1191  -2.1109  -2.1109
    -2.1038  -2.1038  -2.0070  -2.0070  -1.8331  -1.8331  -1.3694  -1.3694
    -1.2509  -1.2509   2.7687   2.7687   3.2126   3.2126   3.3832   3.3832
     3.6112   3.6112   4.7896   4.7896   4.8729   4.8729   4.9589   4.9589
     5.0258   5.0258   6.1847   6.1847   6.2931   6.2931   6.4017   6.4017
     6.4570   6.4570   6.5009   6.5009   6.5722   6.5722   7.3699   7.3699
     7.3826   7.3826   8.0085   8.0085   8.3875   8.3875   8.4629   8.4629
     8.5213   8.5213   8.7865   8.7865   8.9165   8.9167   8.9515   8.9532

          k = 0.3333 0.5773 0.2702 ( 25209 PWs)   bands (ev):

   -56.6785 -56.6785 -56.6785 -56.6785 -56.6460 -56.6460 -31.1358 -31.1358
   -31.1001 -31.1001 -31.0830 -31.0830 -30.3718 -30.3718 -30.3381 -30.3381
   -30.3149 -30.3149 -30.2860 -30.2860 -30.1716 -30.1716 -30.0898 -30.0898
   -15.0532 -15.0532  -3.1042  -3.1042  -2.1185  -2.1185  -2.1105  -2.1105
    -2.1042  -2.1042  -2.0077  -2.0077  -1.8332  -1.8332  -1.3693  -1.3693
    -1.2507  -1.2507   2.7685   2.7685   3.2127   3.2127   3.3832   3.3832
     3.6114   3.6114   4.7896   4.7896   4.8730   4.8730   4.9588   4.9588
     5.0258   5.0258   6.1846   6.1846   6.2930   6.2930   6.4017   6.4017
     6.4570   6.4570   6.5009   6.5009   6.5723   6.5723   7.3699   7.3699
     7.3826   7.3826   8.0085   8.0085   8.3874   8.3874   8.4629   8.4629
     8.5216   8.5216   8.7864   8.7864   8.9147   8.9176   8.9510   8.9603

          k = 0.3333 0.5773 0.2730 ( 25209 PWs)   bands (ev):

   -56.6785 -56.6785 -56.6785 -56.6785 -56.6460 -56.6460 -31.1358 -31.1358
   -31.1001 -31.1001 -31.0830 -31.0830 -30.3718 -30.3718 -30.3381 -30.3381
   -30.3149 -30.3149 -30.2860 -30.2860 -30.1716 -30.1716 -30.0898 -30.0898
   -15.0532 -15.0532  -3.1041  -3.1041  -2.1181  -2.1181  -2.1102  -2.1102
    -2.1045  -2.1045  -2.0082  -2.0082  -1.8332  -1.8332  -1.3692  -1.3692
    -1.2506  -1.2506   2.7683   2.7683   3.2127   3.2127   3.3832   3.3832
     3.6115   3.6115   4.7896   4.7896   4.8731   4.8731   4.9587   4.9587
     5.0258   5.0258   6.1845   6.1845   6.2929   6.2929   6.4016   6.4016
     6.4569   6.4569   6.5009   6.5009   6.5723   6.5723   7.3699   7.3699
     7.3826   7.3826   8.0085   8.0085   8.3873   8.3873   8.4629   8.4629
     8.5219   8.5219   8.7863   8.7863   8.9179   8.9258   8.9514   9.0378

          k = 0.3333 0.5773 0.2758 ( 25209 PWs)   bands (ev):

   -56.6785 -56.6785 -56.6785 -56.6785 -56.6460 -56.6460 -31.1358 -31.1358
   -31.1001 -31.1001 -31.0830 -31.0830 -30.3718 -30.3718 -30.3381 -30.3381
   -30.3149 -30.3149 -30.2860 -30.2860 -30.1716 -30.1716 -30.0898 -30.0898
   -15.0532 -15.0532  -3.1041  -3.1041  -2.1178  -2.1178  -2.1100  -2.1100
    -2.1047  -2.1047  -2.0085  -2.0085  -1.8332  -1.8332  -1.3692  -1.3692
    -1.2506  -1.2506   2.7683   2.7683   3.2127   3.2127   3.3833   3.3833
     3.6116   3.6116   4.7896   4.7896   4.8731   4.8731   4.9587   4.9587
     5.0258   5.0258   6.1845   6.1845   6.2928   6.2928   6.4015   6.4015
     6.4569   6.4569   6.5009   6.5009   6.5723   6.5723   7.3699   7.3699
     7.3826   7.3826   8.0085   8.0085   8.3872   8.3872   8.4628   8.4628
     8.5220   8.5220   8.7863   8.7863   8.9145   8.9184   8.9504   8.9509

          k = 0.3333 0.5773 0.2786 ( 25218 PWs)   bands (ev):

   -56.6785 -56.6785 -56.6785 -56.6785 -56.6460 -56.6460 -31.1358 -31.1358
   -31.1001 -31.1001 -31.0830 -31.0830 -30.3718 -30.3718 -30.3381 -30.3381
   -30.3149 -30.3149 -30.2860 -30.2860 -30.1716 -30.1716 -30.0898 -30.0898
   -15.0532 -15.0532  -3.1041  -3.1041  -2.1178  -2.1178  -2.1099  -2.1099
    -2.1048  -2.1048  -2.0086  -2.0086  -1.8332  -1.8332  -1.3692  -1.3692
    -1.2506  -1.2506   2.7682   2.7682   3.2127   3.2127   3.3833   3.3833
     3.6116   3.6116   4.7896   4.7896   4.8731   4.8731   4.9586   4.9586
     5.0258   5.0258   6.1844   6.1844   6.2928   6.2928   6.4015   6.4015
     6.4569   6.4569   6.5009   6.5009   6.5723   6.5723   7.3699   7.3699
     7.3826   7.3826   8.0085   8.0085   8.3872   8.3872   8.4628   8.4628
     8.5221   8.5221   8.7863   8.7863   8.9172   8.9188   8.9520   8.9591

     Writing output data file /zfs_data/vergnior/martin/Scratch/CsV3Sb5/P6mmm/bands/tmp/CsV3Sb5.save/
 
     init_run     :      4.78s CPU      5.20s WALL (       1 calls)
     electrons    : 113765.24s CPU 114625.61s WALL (       1 calls)

     Called by init_run:
     wfcinit      :      0.00s CPU      0.01s WALL (       1 calls)
     wfcinit:atom :      2.27s CPU      2.57s WALL (     903 calls)
     wfcinit:wfcr :    247.24s CPU    251.37s WALL (     903 calls)
     potinit      :      0.56s CPU      0.59s WALL (       1 calls)
     hinit0       :      1.07s CPU      1.09s WALL (       1 calls)

     Called by electrons:
     c_bands      : 113765.24s CPU 114625.50s WALL (       1 calls)
     v_of_rho     :      0.05s CPU      0.06s WALL (       1 calls)
     v_h          :      0.00s CPU      0.00s WALL (       1 calls)
     v_xc         :      0.04s CPU      0.05s WALL (       1 calls)
     newd         :      2.34s CPU      2.68s WALL (       1 calls)
     PAW_pot      :      0.45s CPU      0.46s WALL (       1 calls)

     Called by c_bands:
     init_us_2    :      3.14s CPU      3.48s WALL (     903 calls)
     ccgdiagg     : 112549.34s CPU 113381.46s WALL (    5418 calls)
     wfcrot       :   1202.92s CPU   1226.56s WALL (    5418 calls)

     Called by sum_band:

     Called by *cgdiagg:
     h_psi        :  56229.15s CPU  56765.85s WALL ( 7932978 calls)
     s_psi        :  40932.55s CPU  41166.34s WALL (15860538 calls)

     Called by h_psi:
     h_psi:calbec :  12641.51s CPU  12784.31s WALL ( 7932978 calls)
     vloc_psi     :  18881.04s CPU  19177.25s WALL ( 7932978 calls)
     add_vuspsi   :  24506.09s CPU  24615.74s WALL ( 7932978 calls)
     hs_1psi      :  75749.23s CPU  76344.73s WALL ( 7927560 calls)
     s_1psi       :  31211.31s CPU  31376.98s WALL ( 7927560 calls)

     General routines
     calbec       :  23088.48s CPU  23329.26s WALL (15860538 calls)
     fft          :      0.07s CPU      0.07s WALL (      19 calls)
     ffts         :      0.00s CPU      0.00s WALL (       4 calls)
     fftw         :  10196.96s CPU  10333.64s WALL (33696840 calls)
     interpolate  :      0.02s CPU      0.02s WALL (       4 calls)
     davcio       :      0.42s CPU     20.06s WALL (    1806 calls)
 
     Parallel routines
     fft_scatt_xy :   1458.49s CPU   1482.18s WALL (33696863 calls)
     fft_scatt_yz :   4671.11s CPU   4755.30s WALL (33696863 calls)

     PAW routines
     PAW_pot      :      0.45s CPU      0.46s WALL (       1 calls)
 
     PWSCF        :   1d 7h40m CPU   1d 8h 0m WALL

 
   This run was terminated on:  18: 5: 2   8Sep2021            

=------------------------------------------------------------------------------=
   JOB DONE.
=------------------------------------------------------------------------------=
