
     Program PWSCF v.6.7MaX starts on 18May2022 at 17:51:32 

     This program is part of the open-source Quantum ESPRESSO suite
     for quantum simulation of materials; please cite
         "P. Giannozzi et al., J. Phys.:Condens. Matter 21 395502 (2009);
         "P. Giannozzi et al., J. Phys.:Condens. Matter 29 465901 (2017);
          URL http://www.quantum-espresso.org", 
     in publications or presentations arising from this work. More details at
     http://www.quantum-espresso.org/quote

     Parallel version (MPI), running on    48 processors

     MPI processes distributed on     1 nodes
     R & G space division:  proc/nbgrp/npool/nimage =      48
     Waiting for input...
     Reading input from standard input

     Current dimensions of program PWSCF are:
     Max number of different atomic species (ntypx) = 10
     Max number of k-points (npk) =  40000
     Max angular momentum in pseudopotentials (lmaxx) =  3
     file O.pbe-nl-kjpaw_psl.1.0.0.UPF: wavefunction(s)  2S 2P renormalized
     file Cl.pbe-nl-kjpaw_psl.1.0.0.UPF: wavefunction(s)  3S renormalized
     file Nb.pbe-spn-kjpaw_psl.1.0.0.UPF: wavefunction(s)  4S 4P 4D renormalized

     Subspace diagonalization in iterative solution of the eigenvalue problem:
     a serial algorithm will be used

     Message from routine setup:
     using ibrav=0 with symmetry is DISCOURAGED, use correct ibrav instead
 
     Parallelization info
     --------------------
     sticks:   dense  smooth     PW     G-vecs:    dense   smooth      PW
     Min         226      90     28                 8011     2025     357
     Max         227      91     29                 8013     2026     359
     Sum       10861    4353   1363               384583    97215   17183
 


     bravais-lattice index     =            0
     lattice parameter (alat)  =      12.6717  a.u.
     unit-cell volume          =     547.9313 (a.u.)^3
     number of atoms/cell      =            4
     number of atomic types    =            3
     number of electrons       =        33.00
     number of Kohn-Sham states=           21
     kinetic-energy cutoff     =     120.0000  Ry
     charge density cutoff     =    1200.0000  Ry
     scf convergence threshold =      1.0E-10
     mixing beta               =       0.7000
     number of iterations used =            8  plain     mixing
     Exchange-correlation= SLA  PW   PBX  PBC
                           (   1   4   3   4   0   0   0)

     celldm(1)=  12.671676  celldm(2)=   0.000000  celldm(3)=   0.000000
     celldm(4)=   0.000000  celldm(5)=   0.000000  celldm(6)=   0.000000

     crystal axes: (cart. coord. in units of alat)
               a(1) = (  -0.250426   0.291161   0.923316 )  
               a(2) = (   0.250426  -0.291161   0.923316 )  
               a(3) = (   0.250426   0.291161  -0.923316 )  

     reciprocal axes: (cart. coord. in units 2 pi/alat)
               b(1) = (  0.000000  1.717261  0.541527 )  
               b(2) = (  1.996594  0.000000  0.541527 )  
               b(3) = (  1.996594  1.717261  0.000000 )  


     PseudoPot. # 1 for O  read from file:
     /zfs_data/gutierre/Scratch/Cl2NbO/smearing/8x8x8/0.016/pseudo/O.pbe-nl-kjpaw_psl.1.0.0.UPF
     MD5 check sum: df3ddea38124b4e5de5e1084591730e4
     Pseudo is Projector augmented-wave + core cor, Zval =  6.0
     Generated using 'atomic' code by A. Dal Corso  v.6.7MaX
     Shape of augmentation charge: PSQ
     Using radial grid of 1095 points,  4 beta functions with: 
                l(1) =   0
                l(2) =   0
                l(3) =   1
                l(4) =   1
     Q(r) pseudized with 0 coefficients 


     PseudoPot. # 2 for Cl read from file:
     /zfs_data/gutierre/Scratch/Cl2NbO/smearing/8x8x8/0.016/pseudo/Cl.pbe-nl-kjpaw_psl.1.0.0.UPF
     MD5 check sum: 8cf6bde52c08f6236e0f72a8870677af
     Pseudo is Projector augmented-wave + core cor, Zval =  7.0
     Generated using 'atomic' code by A. Dal Corso  v.6.7MaX
     Shape of augmentation charge: PSQ
     Using radial grid of 1157 points,  4 beta functions with: 
                l(1) =   0
                l(2) =   0
                l(3) =   1
                l(4) =   1
     Q(r) pseudized with 0 coefficients 


     PseudoPot. # 3 for Nb read from file:
     /zfs_data/gutierre/Scratch/Cl2NbO/smearing/8x8x8/0.016/pseudo/Nb.pbe-spn-kjpaw_psl.1.0.0.UPF
     MD5 check sum: 1ec1a3aa7bf3cbf7f7e0d720422bce7a
     Pseudo is Projector augmented-wave + core cor, Zval = 13.0
     Generated using 'atomic' code by A. Dal Corso  v.6.7MaX
     Shape of augmentation charge: PSQ
     Using radial grid of 1227 points,  6 beta functions with: 
                l(1) =   0
                l(2) =   0
                l(3) =   1
                l(4) =   1
                l(5) =   2
                l(6) =   2
     Q(r) pseudized with 0 coefficients 


     atomic species   valence    mass     pseudopotential
        O              6.00    15.99940     O ( 1.00)
        Cl             7.00    35.45150     Cl( 1.00)
        Nb            13.00    92.90637     Nb( 1.00)

      8 Sym. Ops., with inversion, found


                                    s                        frac. trans.

      isym =  1     identity                                     

 cryst.   s( 1) = (     1          0          0      )
                  (     0          1          0      )
                  (     0          0          1      )

 cart.    s( 1) = (  1.0000000  0.0000000  0.0000000 )
                  (  0.0000000  1.0000000  0.0000000 )
                  (  0.0000000  0.0000000  1.0000000 )


      isym =  2     180 deg rotation - cart. axis [0,0,1]        

 cryst.   s( 2) = (     0          1          0      )
                  (     1          0          0      )
                  (    -1         -1         -1      )

 cart.    s( 2) = ( -1.0000000  0.0000000  0.0000000 )
                  (  0.0000000 -1.0000000  0.0000000 )
                  (  0.0000000  0.0000000  1.0000000 )


      isym =  3     180 deg rotation - cart. axis [0,1,0]        

 cryst.   s( 3) = (     0          0          1      )
                  (    -1         -1         -1      )
                  (     1          0          0      )

 cart.    s( 3) = ( -1.0000000  0.0000000  0.0000000 )
                  (  0.0000000  1.0000000  0.0000000 )
                  (  0.0000000  0.0000000 -1.0000000 )


      isym =  4     180 deg rotation - cart. axis [1,0,0]        

 cryst.   s( 4) = (    -1         -1         -1      )
                  (     0          0          1      )
                  (     0          1          0      )

 cart.    s( 4) = (  1.0000000  0.0000000  0.0000000 )
                  (  0.0000000 -1.0000000  0.0000000 )
                  (  0.0000000  0.0000000 -1.0000000 )


      isym =  5     inversion                                    

 cryst.   s( 5) = (    -1          0          0      )
                  (     0         -1          0      )
                  (     0          0         -1      )

 cart.    s( 5) = ( -1.0000000  0.0000000  0.0000000 )
                  (  0.0000000 -1.0000000  0.0000000 )
                  (  0.0000000  0.0000000 -1.0000000 )


      isym =  6     inv. 180 deg rotation - cart. axis [0,0,1]   

 cryst.   s( 6) = (     0         -1          0      )
                  (    -1          0          0      )
                  (     1          1          1      )

 cart.    s( 6) = (  1.0000000  0.0000000  0.0000000 )
                  (  0.0000000  1.0000000  0.0000000 )
                  (  0.0000000  0.0000000 -1.0000000 )


      isym =  7     inv. 180 deg rotation - cart. axis [0,1,0]   

 cryst.   s( 7) = (     0          0         -1      )
                  (     1          1          1      )
                  (    -1          0          0      )

 cart.    s( 7) = (  1.0000000  0.0000000  0.0000000 )
                  (  0.0000000 -1.0000000  0.0000000 )
                  (  0.0000000  0.0000000  1.0000000 )


      isym =  8     inv. 180 deg rotation - cart. axis [1,0,0]   

 cryst.   s( 8) = (     1          1          1      )
                  (     0          0         -1      )
                  (     0         -1          0      )

 cart.    s( 8) = ( -1.0000000  0.0000000  0.0000000 )
                  (  0.0000000  1.0000000  0.0000000 )
                  (  0.0000000  0.0000000  1.0000000 )


   Cartesian axes

     site n.     atom                  positions (alat units)
         1           O   tau(   1) = (   0.0000000   0.2911613   0.0000000  )
         2           Cl  tau(   2) = (  -0.0000000   0.2911613   0.6365338  )
         3           Cl  tau(   3) = (   0.2504264  -0.0000000   0.2867819  )
         4           Nb  tau(   4) = (   0.0000000   0.0000000   0.0000000  )

   Crystallographic axes

     site n.     atom                  positions (cryst. coord.)
         1           O   tau(   1) = (  0.5000000  0.0000000  0.5000000  )
         2           Cl  tau(   2) = (  0.8447000  0.3447000  0.5000000  )
         3           Cl  tau(   3) = (  0.1553000  0.6553000  0.5000000  )
         4           Nb  tau(   4) = (  0.0000000  0.0000000  0.0000000  )

     number of k points=    95  Methfessel-Paxton smearing, width (Ry)=  0.0160
                       cart. coord. in units 2pi/alat
        k(    1) = (   0.0000000   0.0000000   0.0000000), wk =   0.0039062
        k(    2) = (   0.2495743   0.2146577   0.0000000), wk =   0.0156250
        k(    3) = (   0.4991486   0.4293153   0.0000000), wk =   0.0156250
        k(    4) = (   0.7487229   0.6439730   0.0000000), wk =   0.0156250
        k(    5) = (  -0.9982971  -0.8586307   0.0000000), wk =   0.0078125
        k(    6) = (   0.2495743   0.0000000   0.0676908), wk =   0.0156250
        k(    7) = (   0.4991486   0.2146577   0.0676908), wk =   0.0312500
        k(    8) = (   0.7487229   0.4293153   0.0676908), wk =   0.0312500
        k(    9) = (   0.9982971   0.6439730   0.0676908), wk =   0.0312500
        k(   10) = (  -0.7487229  -0.8586307   0.0676908), wk =   0.0312500
        k(   11) = (  -0.4991486  -0.6439730   0.0676908), wk =   0.0312500
        k(   12) = (  -0.2495743  -0.4293153   0.0676908), wk =   0.0312500
        k(   13) = (   0.0000000  -0.2146577   0.0676908), wk =   0.0156250
        k(   14) = (   0.4991486   0.0000000   0.1353817), wk =   0.0156250
        k(   15) = (   0.7487229   0.2146577   0.1353817), wk =   0.0312500
        k(   16) = (   0.9982971   0.4293153   0.1353817), wk =   0.0312500
        k(   17) = (   1.2478714   0.6439730   0.1353817), wk =   0.0312500
        k(   18) = (  -0.4991486  -0.8586307   0.1353817), wk =   0.0312500
        k(   19) = (  -0.2495743  -0.6439730   0.1353817), wk =   0.0312500
        k(   20) = (   0.0000000  -0.4293153   0.1353817), wk =   0.0156250
        k(   21) = (   0.2495743  -0.2146577   0.1353817), wk =   0.0312500
        k(   22) = (   0.7487229   0.0000000   0.2030725), wk =   0.0156250
        k(   23) = (   0.9982971   0.2146577   0.2030725), wk =   0.0312500
        k(   24) = (   1.2478714   0.4293153   0.2030725), wk =   0.0312500
        k(   25) = (   1.4974457   0.6439730   0.2030725), wk =   0.0312500
        k(   26) = (  -0.2495743  -0.8586307   0.2030725), wk =   0.0312500
        k(   27) = (   0.0000000  -0.6439730   0.2030725), wk =   0.0156250
        k(   28) = (   0.2495743  -0.4293153   0.2030725), wk =   0.0312500
        k(   29) = (   0.4991486  -0.2146577   0.2030725), wk =   0.0312500
        k(   30) = (  -0.9982971   0.0000000  -0.2707633), wk =   0.0078125
        k(   31) = (  -0.7487229   0.2146577  -0.2707633), wk =   0.0312500
        k(   32) = (  -0.4991486   0.4293153  -0.2707633), wk =   0.0312500
        k(   33) = (  -0.2495743   0.6439730  -0.2707633), wk =   0.0312500
        k(   34) = (  -1.9965943  -0.8586307  -0.2707633), wk =   0.0078125
        k(   35) = (   0.4991486   0.4293153   0.1353817), wk =   0.0312500
        k(   36) = (   0.7487229   0.6439730   0.1353817), wk =   0.0312500
        k(   37) = (   0.9982971   0.8586307   0.1353817), wk =   0.0156250
        k(   38) = (   0.0000000   0.0000000   0.1353817), wk =   0.0078125
        k(   39) = (   0.7487229   0.4293153   0.2030725), wk =   0.0312500
        k(   40) = (   0.9982971   0.6439730   0.2030725), wk =   0.0312500
        k(   41) = (   1.2478714   0.8586307   0.2030725), wk =   0.0312500
        k(   42) = (  -0.4991486  -0.6439730   0.2030725), wk =   0.0312500
        k(   43) = (   0.0000000  -0.2146577   0.2030725), wk =   0.0156250
        k(   44) = (   0.2495743   0.0000000   0.2030725), wk =   0.0156250
        k(   45) = (   0.9982971   0.4293153   0.2707633), wk =   0.0156250
        k(   46) = (   1.2478714   0.6439730   0.2707633), wk =   0.0312500
        k(   47) = (   1.4974457   0.8586307   0.2707633), wk =   0.0156250
        k(   48) = (   0.0000000  -0.4293153   0.2707633), wk =   0.0156250
        k(   49) = (   0.2495743  -0.2146577   0.2707633), wk =   0.0312500
        k(   50) = (   0.4991486   0.0000000   0.2707633), wk =   0.0156250
        k(   51) = (  -1.9965943  -0.6439730  -0.2030725), wk =   0.0156250
        k(   52) = (  -1.7470200  -0.4293153  -0.2030725), wk =   0.0312500
        k(   53) = (  -1.4974457  -0.2146577  -0.2030725), wk =   0.0312500
        k(   54) = (  -1.2478714   0.0000000  -0.2030725), wk =   0.0156250
        k(   55) = (   0.0000000   0.8586307  -0.1353817), wk =   0.0156250
        k(   56) = (  -1.7470200  -0.6439730  -0.1353817), wk =   0.0312500
        k(   57) = (  -1.4974457  -0.4293153  -0.1353817), wk =   0.0312500
        k(   58) = (  -1.2478714  -0.2146577  -0.1353817), wk =   0.0312500
        k(   59) = (  -0.9982971   0.0000000  -0.1353817), wk =   0.0156250
        k(   60) = (   0.0000000   0.6439730  -0.0676908), wk =   0.0156250
        k(   61) = (   0.2495743   0.8586307  -0.0676908), wk =   0.0312500
        k(   62) = (  -1.4974457  -0.6439730  -0.0676908), wk =   0.0312500
        k(   63) = (  -1.2478714  -0.4293153  -0.0676908), wk =   0.0312500
        k(   64) = (  -0.9982971  -0.2146577  -0.0676908), wk =   0.0312500
        k(   65) = (  -0.7487229   0.0000000  -0.0676908), wk =   0.0156250
        k(   66) = (   0.0000000   0.4293153   0.0000000), wk =   0.0078125
        k(   67) = (   0.2495743   0.6439730   0.0000000), wk =   0.0156250
        k(   68) = (   0.4991486   0.8586307   0.0000000), wk =   0.0156250
        k(   69) = (  -1.2478714  -0.6439730   0.0000000), wk =   0.0156250
        k(   70) = (  -0.9982971  -0.4293153   0.0000000), wk =   0.0156250
        k(   71) = (  -0.7487229  -0.2146577   0.0000000), wk =   0.0156250
        k(   72) = (  -0.4991486   0.0000000   0.0000000), wk =   0.0078125
        k(   73) = (   0.9982971   0.8586307   0.2707633), wk =   0.0078125
        k(   74) = (   0.0000000   0.0000000   0.2707633), wk =   0.0078125
        k(   75) = (   0.0000000  -0.2146577   0.3384542), wk =   0.0156250
        k(   76) = (   0.2495743   0.0000000   0.3384542), wk =   0.0156250
        k(   77) = (  -1.9965943  -0.4293153  -0.1353817), wk =   0.0156250
        k(   78) = (  -1.7470200  -0.2146577  -0.1353817), wk =   0.0312500
        k(   79) = (  -1.4974457   0.0000000  -0.1353817), wk =   0.0156250
        k(   80) = (   0.0000000   1.0732883  -0.0676908), wk =   0.0156250
        k(   81) = (  -1.7470200  -0.4293153  -0.0676908), wk =   0.0312500
        k(   82) = (  -1.4974457  -0.2146577  -0.0676908), wk =   0.0312500
        k(   83) = (  -1.2478714   0.0000000  -0.0676908), wk =   0.0156250
        k(   84) = (   0.0000000   0.8586307   0.0000000), wk =   0.0078125
        k(   85) = (   0.2495743   1.0732883   0.0000000), wk =   0.0156250
        k(   86) = (  -1.4974457  -0.4293153   0.0000000), wk =   0.0156250
        k(   87) = (  -1.2478714  -0.2146577   0.0000000), wk =   0.0156250
        k(   88) = (  -0.9982971   0.0000000   0.0000000), wk =   0.0078125
        k(   89) = (   0.0000000   0.0000000   0.4061450), wk =   0.0078125
        k(   90) = (  -1.9965943  -0.2146577  -0.0676908), wk =   0.0156250
        k(   91) = (  -1.7470200   0.0000000  -0.0676908), wk =   0.0156250
        k(   92) = (   0.0000000   1.2879460   0.0000000), wk =   0.0078125
        k(   93) = (  -1.7470200  -0.2146577   0.0000000), wk =   0.0156250
        k(   94) = (  -1.4974457   0.0000000   0.0000000), wk =   0.0078125
        k(   95) = (  -1.9965943  -1.7172613  -0.5415266), wk =   0.0039062

                       cryst. coord.
        k(    1) = (   0.0000000   0.0000000   0.0000000), wk =   0.0039062
        k(    2) = (   0.0000000   0.0000000   0.1250000), wk =   0.0156250
        k(    3) = (   0.0000000   0.0000000   0.2500000), wk =   0.0156250
        k(    4) = (  -0.0000000   0.0000000   0.3750000), wk =   0.0156250
        k(    5) = (   0.0000000   0.0000000  -0.5000000), wk =   0.0078125
        k(    6) = (   0.0000000   0.1250000   0.0000000), wk =   0.0156250
        k(    7) = (   0.0000000   0.1250000   0.1250000), wk =   0.0312500
        k(    8) = (   0.0000000   0.1250000   0.2500000), wk =   0.0312500
        k(    9) = (  -0.0000000   0.1250000   0.3750000), wk =   0.0312500
        k(   10) = (   0.0000000   0.1250000  -0.5000000), wk =   0.0312500
        k(   11) = (   0.0000000   0.1250000  -0.3750000), wk =   0.0312500
        k(   12) = (   0.0000000   0.1250000  -0.2500000), wk =   0.0312500
        k(   13) = (   0.0000000   0.1250000  -0.1250000), wk =   0.0156250
        k(   14) = (   0.0000000   0.2500000   0.0000000), wk =   0.0156250
        k(   15) = (   0.0000000   0.2500000   0.1250000), wk =   0.0312500
        k(   16) = (   0.0000000   0.2500000   0.2500000), wk =   0.0312500
        k(   17) = (  -0.0000000   0.2500000   0.3750000), wk =   0.0312500
        k(   18) = (   0.0000000   0.2500000  -0.5000000), wk =   0.0312500
        k(   19) = (   0.0000000   0.2500000  -0.3750000), wk =   0.0312500
        k(   20) = (   0.0000000   0.2500000  -0.2500000), wk =   0.0156250
        k(   21) = (   0.0000000   0.2500000  -0.1250000), wk =   0.0312500
        k(   22) = (   0.0000000   0.3750000   0.0000000), wk =   0.0156250
        k(   23) = (   0.0000000   0.3750000   0.1250000), wk =   0.0312500
        k(   24) = (  -0.0000000   0.3750000   0.2500000), wk =   0.0312500
        k(   25) = (  -0.0000000   0.3750000   0.3750000), wk =   0.0312500
        k(   26) = (   0.0000000   0.3750000  -0.5000000), wk =   0.0312500
        k(   27) = (   0.0000000   0.3750000  -0.3750000), wk =   0.0156250
        k(   28) = (   0.0000000   0.3750000  -0.2500000), wk =   0.0312500
        k(   29) = (   0.0000000   0.3750000  -0.1250000), wk =   0.0312500
        k(   30) = (   0.0000000  -0.5000000   0.0000000), wk =   0.0078125
        k(   31) = (   0.0000000  -0.5000000   0.1250000), wk =   0.0312500
        k(   32) = (   0.0000000  -0.5000000   0.2500000), wk =   0.0312500
        k(   33) = (   0.0000000  -0.5000000   0.3750000), wk =   0.0312500
        k(   34) = (   0.0000000  -0.5000000  -0.5000000), wk =   0.0078125
        k(   35) = (   0.1250000   0.1250000   0.1250000), wk =   0.0312500
        k(   36) = (   0.1250000   0.1250000   0.2500000), wk =   0.0312500
        k(   37) = (   0.1250000   0.1250000   0.3750000), wk =   0.0156250
        k(   38) = (   0.1250000   0.1250000  -0.1250000), wk =   0.0078125
        k(   39) = (   0.1250000   0.2500000   0.1250000), wk =   0.0312500
        k(   40) = (   0.1250000   0.2500000   0.2500000), wk =   0.0312500
        k(   41) = (   0.1250000   0.2500000   0.3750000), wk =   0.0312500
        k(   42) = (   0.1250000   0.2500000  -0.5000000), wk =   0.0312500
        k(   43) = (   0.1250000   0.2500000  -0.2500000), wk =   0.0156250
        k(   44) = (   0.1250000   0.2500000  -0.1250000), wk =   0.0156250
        k(   45) = (   0.1250000   0.3750000   0.1250000), wk =   0.0156250
        k(   46) = (   0.1250000   0.3750000   0.2500000), wk =   0.0312500
        k(   47) = (   0.1250000   0.3750000   0.3750000), wk =   0.0156250
        k(   48) = (   0.1250000   0.3750000  -0.3750000), wk =   0.0156250
        k(   49) = (   0.1250000   0.3750000  -0.2500000), wk =   0.0312500
        k(   50) = (   0.1250000   0.3750000  -0.1250000), wk =   0.0156250
        k(   51) = (   0.1250000  -0.5000000  -0.5000000), wk =   0.0156250
        k(   52) = (   0.1250000  -0.5000000  -0.3750000), wk =   0.0312500
        k(   53) = (   0.1250000  -0.5000000  -0.2500000), wk =   0.0312500
        k(   54) = (   0.1250000  -0.5000000  -0.1250000), wk =   0.0156250
        k(   55) = (   0.1250000  -0.3750000   0.3750000), wk =   0.0156250
        k(   56) = (   0.1250000  -0.3750000  -0.5000000), wk =   0.0312500
        k(   57) = (   0.1250000  -0.3750000  -0.3750000), wk =   0.0312500
        k(   58) = (   0.1250000  -0.3750000  -0.2500000), wk =   0.0312500
        k(   59) = (   0.1250000  -0.3750000  -0.1250000), wk =   0.0156250
        k(   60) = (   0.1250000  -0.2500000   0.2500000), wk =   0.0156250
        k(   61) = (   0.1250000  -0.2500000   0.3750000), wk =   0.0312500
        k(   62) = (   0.1250000  -0.2500000  -0.5000000), wk =   0.0312500
        k(   63) = (   0.1250000  -0.2500000  -0.3750000), wk =   0.0312500
        k(   64) = (   0.1250000  -0.2500000  -0.2500000), wk =   0.0312500
        k(   65) = (   0.1250000  -0.2500000  -0.1250000), wk =   0.0156250
        k(   66) = (   0.1250000  -0.1250000   0.1250000), wk =   0.0078125
        k(   67) = (   0.1250000  -0.1250000   0.2500000), wk =   0.0156250
        k(   68) = (   0.1250000  -0.1250000   0.3750000), wk =   0.0156250
        k(   69) = (   0.1250000  -0.1250000  -0.5000000), wk =   0.0156250
        k(   70) = (   0.1250000  -0.1250000  -0.3750000), wk =   0.0156250
        k(   71) = (   0.1250000  -0.1250000  -0.2500000), wk =   0.0156250
        k(   72) = (   0.1250000  -0.1250000  -0.1250000), wk =   0.0078125
        k(   73) = (   0.2500000   0.2500000   0.2500000), wk =   0.0078125
        k(   74) = (   0.2500000   0.2500000  -0.2500000), wk =   0.0078125
        k(   75) = (   0.2500000   0.3750000  -0.3750000), wk =   0.0156250
        k(   76) = (   0.2500000   0.3750000  -0.2500000), wk =   0.0156250
        k(   77) = (   0.2500000  -0.5000000  -0.5000000), wk =   0.0156250
        k(   78) = (   0.2500000  -0.5000000  -0.3750000), wk =   0.0312500
        k(   79) = (   0.2500000  -0.5000000  -0.2500000), wk =   0.0156250
        k(   80) = (   0.2500000  -0.3750000   0.3750000), wk =   0.0156250
        k(   81) = (   0.2500000  -0.3750000  -0.5000000), wk =   0.0312500
        k(   82) = (   0.2500000  -0.3750000  -0.3750000), wk =   0.0312500
        k(   83) = (   0.2500000  -0.3750000  -0.2500000), wk =   0.0156250
        k(   84) = (   0.2500000  -0.2500000   0.2500000), wk =   0.0078125
        k(   85) = (   0.2500000  -0.2500000   0.3750000), wk =   0.0156250
        k(   86) = (   0.2500000  -0.2500000  -0.5000000), wk =   0.0156250
        k(   87) = (   0.2500000  -0.2500000  -0.3750000), wk =   0.0156250
        k(   88) = (   0.2500000  -0.2500000  -0.2500000), wk =   0.0078125
        k(   89) = (   0.3750000   0.3750000  -0.3750000), wk =   0.0078125
        k(   90) = (   0.3750000  -0.5000000  -0.5000000), wk =   0.0156250
        k(   91) = (   0.3750000  -0.5000000  -0.3750000), wk =   0.0156250
        k(   92) = (   0.3750000  -0.3750000   0.3750000), wk =   0.0078125
        k(   93) = (   0.3750000  -0.3750000  -0.5000000), wk =   0.0156250
        k(   94) = (   0.3750000  -0.3750000  -0.3750000), wk =   0.0078125
        k(   95) = (  -0.5000000  -0.5000000  -0.5000000), wk =   0.0039062

     Dense  grid:   384583 G-vectors     FFT dimensions: ( 144, 144, 144)

     Smooth grid:    97215 G-vectors     FFT dimensions: (  90,  90,  90)

     Dynamical RAM for                 wfc:       0.08 MB

     Dynamical RAM for     wfc (w. buffer):       7.78 MB

     Dynamical RAM for           str. fact:       0.37 MB

     Dynamical RAM for           local pot:       0.00 MB

     Dynamical RAM for          nlocal pot:       0.16 MB

     Dynamical RAM for                qrad:       8.33 MB

     Dynamical RAM for          rho,v,vnew:       1.79 MB

     Dynamical RAM for               rhoin:       0.60 MB

     Dynamical RAM for            rho*nmix:       1.96 MB

     Dynamical RAM for           G-vectors:       0.47 MB

     Dynamical RAM for          h,s,v(r/c):       0.08 MB

     Dynamical RAM for          <psi|beta>:       0.01 MB

     Dynamical RAM for                 psi:       0.16 MB

     Dynamical RAM for                hpsi:       0.16 MB

     Dynamical RAM for                spsi:       0.16 MB

     Dynamical RAM for      wfcinit/wfcrot:       0.21 MB

     Dynamical RAM for           addusdens:      22.98 MB

     Dynamical RAM for          addusforce:      23.30 MB

     Dynamical RAM for         addusstress:      24.57 MB

     Estimated static dynamical RAM per process >      24.33 MB

     Estimated max dynamical RAM per process >      48.90 MB

     Estimated total dynamical RAM >       2.29 GB

     Initial potential from superposition of free atoms

     starting charge   32.99867, renormalised to   33.00000
     Starting wfcs are   25 randomized atomic wfcs
     Checking if some PAW data can be deallocated... 
       PAW data deallocated on   36 nodes for type:  1
       PAW data deallocated on   24 nodes for type:  2
       PAW data deallocated on   36 nodes for type:  3

     total cpu time spent up to now is        3.4 secs

     Self-consistent Calculation

     iteration #  1     ecut=   120.00 Ry     beta= 0.70
     Davidson diagonalization with overlap
     ethr =  1.00E-02,  avg # of iterations =  2.3

     total cpu time spent up to now is        8.2 secs

     total energy              =    -534.52342872 Ry
     estimated scf accuracy    <       0.76554417 Ry

     iteration #  2     ecut=   120.00 Ry     beta= 0.70
     Davidson diagonalization with overlap
     ethr =  2.32E-03,  avg # of iterations =  3.7

     total cpu time spent up to now is       13.9 secs

     total energy              =    -533.64003226 Ry
     estimated scf accuracy    <       8.34651767 Ry

     iteration #  3     ecut=   120.00 Ry     beta= 0.70
     Davidson diagonalization with overlap
     ethr =  2.32E-03,  avg # of iterations =  3.5

     total cpu time spent up to now is       19.1 secs

     total energy              =    -534.97370594 Ry
     estimated scf accuracy    <       0.12408191 Ry

     iteration #  4     ecut=   120.00 Ry     beta= 0.70
     Davidson diagonalization with overlap
     ethr =  3.76E-04,  avg # of iterations =  1.3

     total cpu time spent up to now is       23.3 secs

     total energy              =    -534.96780899 Ry
     estimated scf accuracy    <       0.05868833 Ry

     iteration #  5     ecut=   120.00 Ry     beta= 0.70
     Davidson diagonalization with overlap
     ethr =  1.78E-04,  avg # of iterations =  1.5

     total cpu time spent up to now is       27.6 secs

     total energy              =    -534.96371892 Ry
     estimated scf accuracy    <       0.02390403 Ry

     iteration #  6     ecut=   120.00 Ry     beta= 0.70
     Davidson diagonalization with overlap
     ethr =  7.24E-05,  avg # of iterations =  2.0

     total cpu time spent up to now is       31.9 secs

     total energy              =    -534.96645805 Ry
     estimated scf accuracy    <       0.00056750 Ry

     iteration #  7     ecut=   120.00 Ry     beta= 0.70
     Davidson diagonalization with overlap
     ethr =  1.72E-06,  avg # of iterations =  3.7

     total cpu time spent up to now is       37.6 secs

     total energy              =    -534.96664820 Ry
     estimated scf accuracy    <       0.00018057 Ry

     iteration #  8     ecut=   120.00 Ry     beta= 0.70
     Davidson diagonalization with overlap
     ethr =  5.47E-07,  avg # of iterations =  1.3

     total cpu time spent up to now is       41.8 secs

     total energy              =    -534.96665106 Ry
     estimated scf accuracy    <       0.00002691 Ry

     iteration #  9     ecut=   120.00 Ry     beta= 0.70
     Davidson diagonalization with overlap
     ethr =  8.15E-08,  avg # of iterations =  2.4

     total cpu time spent up to now is       46.5 secs

     total energy              =    -534.96665768 Ry
     estimated scf accuracy    <       0.00000072 Ry

     iteration # 10     ecut=   120.00 Ry     beta= 0.70
     Davidson diagonalization with overlap
     ethr =  2.19E-09,  avg # of iterations =  3.8

     total cpu time spent up to now is       52.1 secs

     total energy              =    -534.96665800 Ry
     estimated scf accuracy    <          7.4E-09 Ry

     iteration # 11     ecut=   120.00 Ry     beta= 0.70
     Davidson diagonalization with overlap
     ethr =  2.25E-11,  avg # of iterations =  4.8

     total cpu time spent up to now is       58.9 secs

     total energy              =    -534.96665801 Ry
     estimated scf accuracy    <       0.00000003 Ry

     iteration # 12     ecut=   120.00 Ry     beta= 0.70
     Davidson diagonalization with overlap
     ethr =  2.25E-11,  avg # of iterations =  2.5

     total cpu time spent up to now is       63.9 secs

     End of self-consistent calculation

          k = 0.0000 0.0000 0.0000 ( 12131 PWs)   bands (ev):

   -49.8442 -26.0680 -25.7928 -25.7128 -12.3890  -9.5154  -8.8259   0.6200
     2.4691   2.7342   2.8742   2.9982   3.4555   3.9419   4.2000   4.2833
     5.5078   7.2119   7.3512   8.6492   9.3850

     occupation numbers 
     1.0000   1.0000   1.0000   1.0000   1.0000   1.0000   1.0000   1.0000
     1.0000   1.0000   1.0000   1.0000   1.0000   1.0000   1.0000   1.0000
     1.0000  -0.0131  -0.0013  -0.0000  -0.0000

          k = 0.2496 0.2147 0.0000 ( 12121 PWs)   bands (ev):

   -49.8416 -26.0930 -25.7862 -25.7439 -12.1939  -9.4067  -8.8336   0.8315
     2.1195   2.2590   2.4362   2.9916   3.2944   3.5033   3.8811   4.0342
     5.9419   7.5216   7.5957   8.7534  10.0883

     occupation numbers 
     1.0000   1.0000   1.0000   1.0000   1.0000   1.0000   1.0000   1.0000
     1.0000   1.0000   1.0000   1.0000   1.0000   1.0000   1.0000   1.0000
     1.0000  -0.0000  -0.0000  -0.0000  -0.0000

          k = 0.4991 0.4293 0.0000 ( 12152 PWs)   bands (ev):

   -49.8352 -26.1518 -25.8178 -25.7703 -11.6950  -9.1292  -8.8556   1.1024
     1.4029   1.7302   1.8998   2.0040   2.1888   2.9257   3.8441   4.0127
     6.8130   8.1600   8.2690   9.1624  11.1475

     occupation numbers 
     1.0000   1.0000   1.0000   1.0000   1.0000   1.0000   1.0000   1.0000
     1.0000   1.0000   1.0000   1.0000   1.0000   1.0000   1.0000   1.0000
     0.4969  -0.0000  -0.0000  -0.0000  -0.0000

          k = 0.7487 0.6440 0.0000 ( 12176 PWs)   bands (ev):

   -49.8289 -26.2082 -25.8902 -25.7544 -11.1454  -8.8827  -8.8246  -0.0806
     0.9745   1.2663   1.6660   1.7768   2.1898   2.3125   3.5231   3.9753
     7.8702   8.8482   9.0540   9.5790  11.3792

     occupation numbers 
     1.0000   1.0000   1.0000   1.0000   1.0000   1.0000   1.0000   1.0000
     1.0000   1.0000   1.0000   1.0000   1.0000   1.0000   1.0000   1.0000
    -0.0000  -0.0000  -0.0000  -0.0000  -0.0000

          k =-0.9983-0.8586 0.0000 ( 12140 PWs)   bands (ev):

   -49.8263 -26.2309 -25.9199 -25.7479 -10.8981  -8.8954  -8.6880  -0.5694
     0.6024   0.9572   1.7509   1.8329   1.9794   2.5764   3.2705   3.8795
     8.4696   9.1789   9.3696   9.7699  11.4035

     occupation numbers 
     1.0000   1.0000   1.0000   1.0000   1.0000   1.0000   1.0000   1.0000
     1.0000   1.0000   1.0000   1.0000   1.0000   1.0000   1.0000   1.0000
    -0.0000  -0.0000  -0.0000  -0.0000  -0.0000

          k = 0.2496 0.0000 0.0677 ( 12148 PWs)   bands (ev):

   -49.8421 -26.0655 -25.7872 -25.7448 -12.3717  -9.4260  -8.8389   0.8095
     2.2525   2.6615   2.9497   3.0554   3.1021   3.7973   3.9315   4.1187
     5.9263   7.1217   7.2910   8.7334   9.7630

     occupation numbers 
     1.0000   1.0000   1.0000   1.0000   1.0000   1.0000   1.0000   1.0000
     1.0000   1.0000   1.0000   1.0000   1.0000   1.0000   1.0000   1.0000
     1.0000  -0.0309  -0.0040  -0.0000  -0.0000

          k = 0.4991 0.2147 0.0677 ( 12153 PWs)   bands (ev):

   -49.8364 -26.0868 -25.8202 -25.7727 -12.1529  -9.1863  -8.8573   1.2379
     1.9050   2.0842   2.2400   2.4794   2.8865   3.0663   3.8672   4.0690
     6.7615   7.3185   7.4348   9.1653  10.5477

     occupation numbers 
     1.0000   1.0000   1.0000   1.0000   1.0000   1.0000   1.0000   1.0000
     1.0000   1.0000   1.0000   1.0000   1.0000   1.0000   1.0000   1.0000
     0.6913  -0.0024  -0.0002  -0.0000  -0.0000

          k = 0.7487 0.4293 0.0677 ( 12179 PWs)   bands (ev):

   -49.8301 -26.1451 -25.8928 -25.7567 -11.6556  -8.9077  -8.8610   1.0875
     1.2380   1.4386   1.6820   1.9142   2.2642   2.5413   3.7126   4.1135
     7.7193   8.0637   8.1659   9.6564  11.1228

     occupation numbers 
     1.0000   1.0000   1.0000   1.0000   1.0000   1.0000   1.0000   1.0000
     1.0000   1.0000   1.0000   1.0000   1.0000   1.0000   1.0000   1.0000
    -0.0000  -0.0000  -0.0000  -0.0000  -0.0000

          k = 0.9983 0.6440 0.0677 ( 12173 PWs)   bands (ev):

   -49.8268 -26.2052 -25.9210 -25.7488 -11.1300  -8.9074  -8.7013  -0.0678
     0.7484   0.9312   1.5602   1.9435   2.2078   2.6064   3.3453   3.9447
     8.4571   8.7756   9.0129   9.7547  11.2782

     occupation numbers 
     1.0000   1.0000   1.0000   1.0000   1.0000   1.0000   1.0000   1.0000
     1.0000   1.0000   1.0000   1.0000   1.0000   1.0000   1.0000   1.0000
    -0.0000  -0.0000  -0.0000  -0.0000  -0.0000

          k =-0.7487-0.8586 0.0677 ( 12172 PWs)   bands (ev):

   -49.8284 -26.2340 -25.8892 -25.7535 -10.9129  -8.9014  -8.7788  -0.5801
     0.7880   1.2471   1.4381   1.8024   2.3334   2.4054   3.4325   3.8226
     7.9218   9.2301   9.4185   9.4886  11.3393

     occupation numbers 
     1.0000   1.0000   1.0000   1.0000   1.0000   1.0000   1.0000   1.0000
     1.0000   1.0000   1.0000   1.0000   1.0000   1.0000   1.0000   1.0000
    -0.0000  -0.0000  -0.0000  -0.0000  -0.0000

          k =-0.4991-0.6440 0.0677 ( 12166 PWs)   bands (ev):

   -49.8341 -26.2153 -25.8154 -25.7680 -11.1822  -9.0533  -8.8740  -0.1097
     1.3214   1.4577   1.5738   1.8805   2.1385   2.9342   3.7141   3.8060
     6.8896   8.9644   9.0492   9.2184  11.4224

     occupation numbers 
     1.0000   1.0000   1.0000   1.0000   1.0000   1.0000   1.0000   1.0000
     1.0000   1.0000   1.0000   1.0000   1.0000   1.0000   1.0000   1.0000
     0.2192  -0.0000  -0.0000  -0.0000  -0.0000

          k =-0.2496-0.4293 0.0677 ( 12135 PWs)   bands (ev):

   -49.8404 -26.1585 -25.7838 -25.7417 -11.7342  -9.3384  -8.8472   0.9181
     1.1257   1.4920   2.2553   2.5160   3.1857   3.4117   3.7274   3.9141
     6.0064   8.3680   8.3997   8.7881  10.6472

     occupation numbers 
     1.0000   1.0000   1.0000   1.0000   1.0000   1.0000   1.0000   1.0000
     1.0000   1.0000   1.0000   1.0000   1.0000   1.0000   1.0000   1.0000
     1.0000  -0.0000  -0.0000  -0.0000  -0.0000

          k = 0.0000-0.2147 0.0677 ( 12112 PWs)   bands (ev):

   -49.8437 -26.0956 -25.7918 -25.7120 -12.2108  -9.4850  -8.8346   0.6725
     2.0603   2.4245   2.4916   3.2892   3.3589   3.7524   3.9557   4.1617
     5.5364   7.6368   7.6608   8.6787   9.7218

     occupation numbers 
     1.0000   1.0000   1.0000   1.0000   1.0000   1.0000   1.0000   1.0000
     1.0000   1.0000   1.0000   1.0000   1.0000   1.0000   1.0000   1.0000
     1.0000  -0.0000  -0.0000  -0.0000  -0.0000

          k = 0.4991 0.0000 0.1354 ( 12156 PWs)   bands (ev):

   -49.8369 -26.0594 -25.8211 -25.7737 -12.3302  -9.2032  -8.8650   1.1861
     1.9269   2.0270   2.4805   3.0455   3.3260   3.4575   3.7814   3.9065
     6.7909   6.9350   7.0915   9.1066  10.1087

     occupation numbers 
     1.0000   1.0000   1.0000   1.0000   1.0000   1.0000   1.0000   1.0000
     1.0000   1.0000   1.0000   1.0000   1.0000   1.0000   1.0000   1.0000
     0.5823   0.0967  -0.0350  -0.0000  -0.0000

          k = 0.7487 0.2147 0.1354 ( 12169 PWs)   bands (ev):

   -49.8313 -26.0805 -25.8954 -25.7591 -12.1120  -8.9681  -8.8599   1.0812
     1.4595   1.8242   2.0198   2.6125   2.7618   3.1373   3.8318   4.0153
     7.0900   7.2232   7.8546   9.6463  10.4465

     occupation numbers 
     1.0000   1.0000   1.0000   1.0000   1.0000   1.0000   1.0000   1.0000
     1.0000   1.0000   1.0000   1.0000   1.0000   1.0000   1.0000   1.0000
    -0.0351  -0.0113  -0.0000  -0.0000  -0.0000

          k = 0.9983 0.4293 0.1354 ( 12163 PWs)   bands (ev):

   -49.8279 -26.1423 -25.9236 -25.7511 -11.6392  -8.9362  -8.7331   0.7694
     1.2131   1.2322   1.4304   1.9540   2.6325   2.8136   3.5549   4.0441
     7.8484   8.1145   8.4600   9.7382  10.8970

     occupation numbers 
     1.0000   1.0000   1.0000   1.0000   1.0000   1.0000   1.0000   1.0000
     1.0000   1.0000   1.0000   1.0000   1.0000   1.0000   1.0000   1.0000
    -0.0000  -0.0000  -0.0000  -0.0000  -0.0000

          k = 1.2479 0.6440 0.1354 ( 12184 PWs)   bands (ev):

   -49.8289 -26.2082 -25.8902 -25.7544 -11.1452  -8.9386  -8.7646  -0.0809
     0.9188   1.1591   1.3374   1.9048   2.5147   2.5826   3.5038   3.8057
     7.9386   8.8321   9.0593   9.4159  11.1818

     occupation numbers 
     1.0000   1.0000   1.0000   1.0000   1.0000   1.0000   1.0000   1.0000
     1.0000   1.0000   1.0000   1.0000   1.0000   1.0000   1.0000   1.0000
    -0.0000  -0.0000  -0.0000  -0.0000  -0.0000

          k =-0.4991-0.8586 0.1354 ( 12184 PWs)   bands (ev):

   -49.8336 -26.2413 -25.8144 -25.7670 -10.9479  -8.9876  -8.9170  -0.6059
     1.1736   1.2187   1.7251   1.8034   2.1835   2.9659   3.5788   3.7461
     6.9436   8.9623   9.4158   9.5126  11.4673

     occupation numbers 
     1.0000   1.0000   1.0000   1.0000   1.0000   1.0000   1.0000   1.0000
     1.0000   1.0000   1.0000   1.0000   1.0000   1.0000   1.0000   1.0000
     0.0783  -0.0000  -0.0000  -0.0000  -0.0000

          k =-0.2496-0.6440 0.1354 ( 12161 PWs)   bands (ev):

   -49.8392 -26.2225 -25.7814 -25.7395 -11.2184  -9.2485  -8.8868  -0.1379
     0.9538   1.2484   2.0090   2.2597   2.9752   3.3222   3.5289   3.9351
     6.0750   8.7678   9.2158   9.2492  11.0491

     occupation numbers 
     1.0000   1.0000   1.0000   1.0000   1.0000   1.0000   1.0000   1.0000
     1.0000   1.0000   1.0000   1.0000   1.0000   1.0000   1.0000   1.0000
     1.0000  -0.0000  -0.0000  -0.0000  -0.0000

          k = 0.0000-0.4293 0.1354 ( 12137 PWs)   bands (ev):

   -49.8425 -26.1612 -25.7894 -25.7098 -11.7502  -9.4053  -8.8635   0.7831
     1.1012   1.4361   2.5481   2.8982   3.0156   3.5533   3.9499   4.0134
     5.5916   8.4191   8.5309   8.7507  10.3229

     occupation numbers 
     1.0000   1.0000   1.0000   1.0000   1.0000   1.0000   1.0000   1.0000
     1.0000   1.0000   1.0000   1.0000   1.0000   1.0000   1.0000   1.0000
     1.0000  -0.0000  -0.0000  -0.0000  -0.0000

          k = 0.2496-0.2147 0.1354 ( 12130 PWs)   bands (ev):

   -49.8416 -26.0930 -25.7862 -25.7439 -12.1936  -9.3877  -8.8566   0.8875
     2.1353   2.2530   2.4478   2.9565   3.2058   3.4971   3.8589   4.0650
     5.9654   7.5155   7.6134   8.7354  10.1534

     occupation numbers 
     1.0000   1.0000   1.0000   1.0000   1.0000   1.0000   1.0000   1.0000
     1.0000   1.0000   1.0000   1.0000   1.0000   1.0000   1.0000   1.0000
     1.0000  -0.0000  -0.0000  -0.0000  -0.0000

          k = 0.7487 0.0000 0.2031 ( 12173 PWs)   bands (ev):

   -49.8318 -26.0533 -25.8964 -25.7600 -12.2888  -9.0062  -8.8446   1.0122
     1.3357   1.9962   2.0985   3.1659   3.4377   3.5748   3.7245   3.7613
     6.7772   6.7928   7.8424   9.5488   9.9749

     occupation numbers 
     1.0000   1.0000   1.0000   1.0000   1.0000   1.0000   1.0000   1.0000
     1.0000   1.0000   1.0000   1.0000   1.0000   1.0000   1.0000   1.0000
     0.6338   0.5750  -0.0000  -0.0000  -0.0000

          k = 0.9983 0.2147 0.2031 ( 12179 PWs)   bands (ev):

   -49.8291 -26.0779 -25.9262 -25.7534 -12.0950  -8.9646  -8.7643   0.6995
     1.3353   1.7666   1.9318   2.6778   2.9050   3.3979   3.8055   3.9297
     7.0294   7.1154   8.4366   9.6764  10.3081

     occupation numbers 
     1.0000   1.0000   1.0000   1.0000   1.0000   1.0000   1.0000   1.0000
     1.0000   1.0000   1.0000   1.0000   1.0000   1.0000   1.0000   1.0000
    -0.0249  -0.0320  -0.0000  -0.0000  -0.0000

          k = 1.2479 0.4293 0.2031 ( 12170 PWs)   bands (ev):

   -49.8301 -26.1451 -25.8928 -25.7568 -11.6554  -8.9809  -8.7821   1.0041
     1.1780   1.3008   1.3900   2.0956   2.6527   2.8093   3.6919   3.9526
     7.8590   7.9900   8.1705   9.4082  10.8583

     occupation numbers 
     1.0000   1.0000   1.0000   1.0000   1.0000   1.0000   1.0000   1.0000
     1.0000   1.0000   1.0000   1.0000   1.0000   1.0000   1.0000   1.0000
    -0.0000  -0.0000  -0.0000  -0.0000  -0.0000

          k = 1.4974 0.6440 0.2031 ( 12175 PWs)   bands (ev):

   -49.8341 -26.2153 -25.8154 -25.7680 -11.1817  -9.0184  -8.9097  -0.1109
     1.2539   1.3198   1.6924   1.8501   2.2886   3.0137   3.5547   3.8693
     6.9481   8.8559   9.1165   9.1497  11.3569

     occupation numbers 
     1.0000   1.0000   1.0000   1.0000   1.0000   1.0000   1.0000   1.0000
     1.0000   1.0000   1.0000   1.0000   1.0000   1.0000   1.0000   1.0000
     0.0694  -0.0000  -0.0000  -0.0000  -0.0000

          k =-0.2496-0.8586 0.2031 ( 12167 PWs)   bands (ev):

   -49.8387 -26.2486 -25.7805 -25.7386 -10.9822  -9.1841  -8.9341  -0.6315
     0.8376   1.4210   1.7743   2.1686   2.8886   3.2275   3.4815   3.9628
     6.1119   8.7827   9.5645   9.5959  11.2102

     occupation numbers 
     1.0000   1.0000   1.0000   1.0000   1.0000   1.0000   1.0000   1.0000
     1.0000   1.0000   1.0000   1.0000   1.0000   1.0000   1.0000   1.0000
     1.0000  -0.0000  -0.0000  -0.0000  -0.0000

          k = 0.0000-0.6440 0.2031 ( 12156 PWs)   bands (ev):

   -49.8413 -26.2254 -25.7870 -25.7077 -11.2331  -9.3105  -8.9109  -0.1499
     0.7867   1.2383   2.4085   2.5541   2.6108   3.4612   3.9280   3.9835
     5.6453   8.8217   9.2179   9.3564  10.7867

     occupation numbers 
     1.0000   1.0000   1.0000   1.0000   1.0000   1.0000   1.0000   1.0000
     1.0000   1.0000   1.0000   1.0000   1.0000   1.0000   1.0000   1.0000
     1.0000  -0.0000  -0.0000  -0.0000  -0.0000

          k = 0.2496-0.4293 0.2031 ( 12155 PWs)   bands (ev):

   -49.8404 -26.1585 -25.7838 -25.7417 -11.7337  -9.3040  -8.8875   0.9612
     1.1523   1.5873   2.1788   2.5387   2.9632   3.4676   3.5766   4.0732
     6.0358   8.3876   8.3979   8.7638  10.7473

     occupation numbers 
     1.0000   1.0000   1.0000   1.0000   1.0000   1.0000   1.0000   1.0000
     1.0000   1.0000   1.0000   1.0000   1.0000   1.0000   1.0000   1.0000
     1.0000  -0.0000  -0.0000  -0.0000  -0.0000

          k = 0.4991-0.2147 0.2031 ( 12152 PWs)   bands (ev):

   -49.8364 -26.0868 -25.8202 -25.7727 -12.1526  -9.1722  -8.8719   1.2113
     1.8895   1.9456   2.3063   2.5120   2.9289   3.1641   3.8396   4.0808
     6.8169   7.2840   7.4493   9.0343  10.4906

     occupation numbers 
     1.0000   1.0000   1.0000   1.0000   1.0000   1.0000   1.0000   1.0000
     1.0000   1.0000   1.0000   1.0000   1.0000   1.0000   1.0000   1.0000
     0.4818  -0.0045  -0.0001  -0.0000  -0.0000

          k =-0.9983 0.0000-0.2708 ( 12202 PWs)   bands (ev):

   -49.8296 -26.0508 -25.9273 -25.7544 -12.2717  -8.9763  -8.7771   0.6657
     1.3154   1.8938   2.0417   3.3085   3.3990   3.4973   3.7787   3.9235
     6.5997   6.7430   8.4242   9.5357  10.0267

     occupation numbers 
     1.0000   1.0000   1.0000   1.0000   1.0000   1.0000   1.0000   1.0000
     1.0000   1.0000   1.0000   1.0000   1.0000   1.0000   1.0000   1.0000
     1.0225   0.7544  -0.0000  -0.0000  -0.0000

          k =-0.7487 0.2147-0.2708 ( 12174 PWs)   bands (ev):

   -49.8313 -26.0805 -25.8954 -25.7591 -12.1118  -9.0089  -8.8152   0.9999
     1.2718   1.8228   2.1587   2.6285   2.8936   3.2491   3.8063   4.0098
     7.0789   7.2171   7.8848   9.4650  10.3139

     occupation numbers 
     1.0000   1.0000   1.0000   1.0000   1.0000   1.0000   1.0000   1.0000
     1.0000   1.0000   1.0000   1.0000   1.0000   1.0000   1.0000   1.0000
    -0.0355  -0.0122  -0.0000  -0.0000  -0.0000

          k =-0.4991 0.4293-0.2708 ( 12174 PWs)   bands (ev):

   -49.8352 -26.1518 -25.8178 -25.7703 -11.6945  -9.1025  -8.8832   1.0848
     1.3109   1.6897   1.8843   1.9353   2.4036   3.0849   3.6918   4.0572
     6.8964   8.1308   8.2927   8.9899  11.0519

     occupation numbers 
     1.0000   1.0000   1.0000   1.0000   1.0000   1.0000   1.0000   1.0000
     1.0000   1.0000   1.0000   1.0000   1.0000   1.0000   1.0000   1.0000
     0.1982  -0.0000  -0.0000  -0.0000  -0.0000

          k =-0.2496 0.6440-0.2708 ( 12165 PWs)   bands (ev):

   -49.8392 -26.2225 -25.7815 -25.7395 -11.2180  -9.2119  -8.9279  -0.1391
     0.9463   1.4638   1.8442   2.2669   2.8848   3.2770   3.5021   4.0186
     6.0968   8.7733   9.2040   9.2519  11.1168

     occupation numbers 
     1.0000   1.0000   1.0000   1.0000   1.0000   1.0000   1.0000   1.0000
     1.0000   1.0000   1.0000   1.0000   1.0000   1.0000   1.0000   1.0000
     1.0000  -0.0000  -0.0000  -0.0000  -0.0000

          k =-1.9966-0.8586-0.2708 ( 12134 PWs)   bands (ev):

   -49.8408 -26.2516 -25.7860 -25.7069 -10.9962  -9.2625  -8.9417  -0.6420
     0.6856   1.3319   2.1220   2.4277   2.6357   3.4199   3.8982   3.9803
     5.6677   8.8518   9.5684   9.6941  10.9572

     occupation numbers 
     1.0000   1.0000   1.0000   1.0000   1.0000   1.0000   1.0000   1.0000
     1.0000   1.0000   1.0000   1.0000   1.0000   1.0000   1.0000   1.0000
     1.0000  -0.0000  -0.0000  -0.0000  -0.0000

          k = 0.4991 0.4293 0.1354 ( 12160 PWs)   bands (ev):

   -49.8352 -26.1518 -25.8178 -25.7703 -11.6948  -9.1220  -8.8631   1.0968
     1.3675   1.7498   1.8329   2.0674   2.1927   2.9873   3.7928   4.0328
     6.8365   8.1466   8.2794   9.1125  11.1238

     occupation numbers 
     1.0000   1.0000   1.0000   1.0000   1.0000   1.0000   1.0000   1.0000
     1.0000   1.0000   1.0000   1.0000   1.0000   1.0000   1.0000   1.0000
     0.4061  -0.0000  -0.0000  -0.0000  -0.0000

          k = 0.7487 0.6440 0.1354 ( 12164 PWs)   bands (ev):

   -49.8289 -26.2082 -25.8902 -25.7544 -11.1454  -8.8980  -8.8086  -0.0806
     0.9674   1.2321   1.6473   1.7319   2.2862   2.3610   3.5173   3.9480
     7.8825   8.8362   9.0540   9.5600  11.3604

     occupation numbers 
     1.0000   1.0000   1.0000   1.0000   1.0000   1.0000   1.0000   1.0000
     1.0000   1.0000   1.0000   1.0000   1.0000   1.0000   1.0000   1.0000
    -0.0000  -0.0000  -0.0000  -0.0000  -0.0000

          k = 0.9983 0.8586 0.1354 ( 12170 PWs)   bands (ev):

   -49.8263 -26.2309 -25.9199 -25.7479 -10.8981  -8.8954  -8.6880  -0.5694
     0.6163   0.9279   1.7746   1.8648   1.9449   2.5879   3.2267   3.9078
     8.4713   9.1806   9.3790   9.7414  11.3845

     occupation numbers 
     1.0000   1.0000   1.0000   1.0000   1.0000   1.0000   1.0000   1.0000
     1.0000   1.0000   1.0000   1.0000   1.0000   1.0000   1.0000   1.0000
    -0.0000  -0.0000  -0.0000  -0.0000  -0.0000

          k = 0.0000 0.0000 0.1354 ( 12125 PWs)   bands (ev):

   -49.8442 -26.0680 -25.7928 -25.7128 -12.3887  -9.4926  -8.8549   0.6983
     2.4932   2.7039   2.8450   3.0554   3.4423   3.8218   4.1532   4.2476
     5.5254   7.2121   7.3813   8.7009   9.4770

     occupation numbers 
     1.0000   1.0000   1.0000   1.0000   1.0000   1.0000   1.0000   1.0000
     1.0000   1.0000   1.0000   1.0000   1.0000   1.0000   1.0000   1.0000
     1.0000  -0.0130  -0.0007  -0.0000  -0.0000

          k = 0.7487 0.4293 0.2031 ( 12170 PWs)   bands (ev):

   -49.8301 -26.1451 -25.8928 -25.7568 -11.6555  -8.9496  -8.8168   1.0516
     1.2062   1.4093   1.4982   1.9878   2.4710   2.6468   3.7004   4.0547
     7.7726   8.0325   8.1673   9.5561  11.0165

     occupation numbers 
     1.0000   1.0000   1.0000   1.0000   1.0000   1.0000   1.0000   1.0000
     1.0000   1.0000   1.0000   1.0000   1.0000   1.0000   1.0000   1.0000
    -0.0000  -0.0000  -0.0000  -0.0000  -0.0000

          k = 0.9983 0.6440 0.2031 ( 12179 PWs)   bands (ev):

   -49.8268 -26.2052 -25.9210 -25.7488 -11.1300  -8.9074  -8.7013  -0.0678
     0.7799   0.8799   1.6406   1.8563   2.2209   2.6454   3.2917   3.9745
     8.4658   8.7710   9.0196   9.7228  11.2689

     occupation numbers 
     1.0000   1.0000   1.0000   1.0000   1.0000   1.0000   1.0000   1.0000
     1.0000   1.0000   1.0000   1.0000   1.0000   1.0000   1.0000   1.0000
    -0.0000  -0.0000  -0.0000  -0.0000  -0.0000

          k = 1.2479 0.8586 0.2031 ( 12154 PWs)   bands (ev):

   -49.8284 -26.2340 -25.8892 -25.7535 -10.9129  -8.9013  -8.7788  -0.5801
     0.7913   1.2145   1.5395   1.6958   2.3672   2.4145   3.4290   3.8170
     7.9228   9.1930   9.4229   9.5203  11.3780

     occupation numbers 
     1.0000   1.0000   1.0000   1.0000   1.0000   1.0000   1.0000   1.0000
     1.0000   1.0000   1.0000   1.0000   1.0000   1.0000   1.0000   1.0000
    -0.0000  -0.0000  -0.0000  -0.0000  -0.0000

          k =-0.4991-0.6440 0.2031 ( 12177 PWs)   bands (ev):

   -49.8341 -26.2153 -25.8154 -25.7680 -11.1820  -9.0408  -8.8868  -0.1102
     1.2894   1.3897   1.6103   1.9272   2.1612   2.9758   3.6266   3.8530
     6.9130   8.8925   9.1109   9.1838  11.4042

     occupation numbers 
     1.0000   1.0000   1.0000   1.0000   1.0000   1.0000   1.0000   1.0000
     1.0000   1.0000   1.0000   1.0000   1.0000   1.0000   1.0000   1.0000
     0.1507  -0.0000  -0.0000  -0.0000  -0.0000

          k = 0.0000-0.2147 0.2031 ( 12117 PWs)   bands (ev):

   -49.8437 -26.0956 -25.7919 -25.7120 -12.2102  -9.4412  -8.8893   0.8166
     2.1003   2.4226   2.5352   3.1543   3.2754   3.5609   4.0577   4.0909
     5.5526   7.6364   7.6839   8.7671   9.9043

     occupation numbers 
     1.0000   1.0000   1.0000   1.0000   1.0000   1.0000   1.0000   1.0000
     1.0000   1.0000   1.0000   1.0000   1.0000   1.0000   1.0000   1.0000
     1.0000  -0.0000  -0.0000  -0.0000  -0.0000

          k = 0.2496 0.0000 0.2031 ( 12145 PWs)   bands (ev):

   -49.8421 -26.0655 -25.7872 -25.7448 -12.3712  -9.3879  -8.8850   0.9280
     2.2580   2.5866   2.8835   3.0458   3.1739   3.6948   3.9581   4.0467
     5.9790   7.1017   7.3379   8.7055   9.8600

     occupation numbers 
     1.0000   1.0000   1.0000   1.0000   1.0000   1.0000   1.0000   1.0000
     1.0000   1.0000   1.0000   1.0000   1.0000   1.0000   1.0000   1.0000
     1.0000  -0.0340  -0.0017  -0.0000  -0.0000

          k = 0.9983 0.4293 0.2708 ( 12166 PWs)   bands (ev):

   -49.8279 -26.1423 -25.9236 -25.7511 -11.6392  -8.9362  -8.7331   0.7564
     1.2129   1.2306   1.5076   1.8645   2.6188   2.8732   3.5281   4.0524
     7.8572   8.1161   8.4534   9.7152  10.9162

     occupation numbers 
     1.0000   1.0000   1.0000   1.0000   1.0000   1.0000   1.0000   1.0000
     1.0000   1.0000   1.0000   1.0000   1.0000   1.0000   1.0000   1.0000
    -0.0000  -0.0000  -0.0000  -0.0000  -0.0000

          k = 1.2479 0.6440 0.2708 ( 12163 PWs)   bands (ev):

   -49.8289 -26.2082 -25.8902 -25.7544 -11.1453  -8.9216  -8.7833  -0.0808
     0.9472   1.1752   1.4853   1.8119   2.4263   2.4764   3.5066   3.8796
     7.9115   8.8213   9.0560   9.4997  11.2878

     occupation numbers 
     1.0000   1.0000   1.0000   1.0000   1.0000   1.0000   1.0000   1.0000
     1.0000   1.0000   1.0000   1.0000   1.0000   1.0000   1.0000   1.0000
    -0.0000  -0.0000  -0.0000  -0.0000  -0.0000

          k = 1.4974 0.8586 0.2708 ( 12186 PWs)   bands (ev):

   -49.8336 -26.2413 -25.8144 -25.7670 -10.9479  -8.9877  -8.9169  -0.6059
     1.1888   1.2030   1.7112   1.8118   2.1983   2.9538   3.5704   3.7579
     6.9432   8.9523   9.4362   9.5035  11.4793

     occupation numbers 
     1.0000   1.0000   1.0000   1.0000   1.0000   1.0000   1.0000   1.0000
     1.0000   1.0000   1.0000   1.0000   1.0000   1.0000   1.0000   1.0000
     0.0791  -0.0000  -0.0000  -0.0000  -0.0000

          k = 0.0000-0.4293 0.2708 ( 12158 PWs)   bands (ev):

   -49.8425 -26.1612 -25.7895 -25.7098 -11.7495  -9.3472  -8.9329   0.8943
     1.1364   1.5719   2.5957   2.6250   2.8941   3.3879   3.9300   4.1533
     5.6034   8.4101   8.5297   8.8395  10.5398

     occupation numbers 
     1.0000   1.0000   1.0000   1.0000   1.0000   1.0000   1.0000   1.0000
     1.0000   1.0000   1.0000   1.0000   1.0000   1.0000   1.0000   1.0000
     1.0000  -0.0000  -0.0000  -0.0000  -0.0000

          k = 0.2496-0.2147 0.2708 ( 12146 PWs)   bands (ev):

   -49.8416 -26.0930 -25.7863 -25.7439 -12.1929  -9.3332  -8.9208   1.0485
     2.1087   2.2745   2.4637   2.8378   3.1149   3.4559   3.7832   4.1135
     6.0202   7.5072   7.6439   8.7260  10.2754

     occupation numbers 
     1.0000   1.0000   1.0000   1.0000   1.0000   1.0000   1.0000   1.0000
     1.0000   1.0000   1.0000   1.0000   1.0000   1.0000   1.0000   1.0000
     1.0000  -0.0000  -0.0000  -0.0000  -0.0000

          k = 0.4991 0.0000 0.2708 ( 12154 PWs)   bands (ev):

   -49.8369 -26.0594 -25.8211 -25.7737 -12.3298  -9.1837  -8.8852   1.1691
     1.7876   2.0255   2.5634   2.9815   3.4458   3.5384   3.8457   3.8637
     6.8586   6.8848   7.1056   8.9245  10.0294

     occupation numbers 
     1.0000   1.0000   1.0000   1.0000   1.0000   1.0000   1.0000   1.0000
     1.0000   1.0000   1.0000   1.0000   1.0000   1.0000   1.0000   1.0000
     0.3240   0.2343  -0.0335  -0.0000  -0.0000

          k =-1.9966-0.6440-0.2031 ( 12169 PWs)   bands (ev):

   -49.8413 -26.2254 -25.7870 -25.7077 -11.2326  -9.2602  -8.9683  -0.1514
     0.8487   1.3884   2.2026   2.5533   2.6409   3.2656   3.8757   4.1446
     5.6515   8.8737   9.2091   9.3557  10.9053

     occupation numbers 
     1.0000   1.0000   1.0000   1.0000   1.0000   1.0000   1.0000   1.0000
     1.0000   1.0000   1.0000   1.0000   1.0000   1.0000   1.0000   1.0000
     1.0000  -0.0000  -0.0000  -0.0000  -0.0000

          k =-1.7470-0.4293-0.2031 ( 12164 PWs)   bands (ev):

   -49.8404 -26.1585 -25.7839 -25.7417 -11.7330  -9.2394  -8.9605   1.0066
     1.2500   1.7316   2.0006   2.5313   2.8829   3.3862   3.4222   4.2194
     6.0780   8.3742   8.4052   8.7806  10.8665

     occupation numbers 
     1.0000   1.0000   1.0000   1.0000   1.0000   1.0000   1.0000   1.0000
     1.0000   1.0000   1.0000   1.0000   1.0000   1.0000   1.0000   1.0000
     1.0000  -0.0000  -0.0000  -0.0000  -0.0000

          k =-1.4974-0.2147-0.2031 ( 12140 PWs)   bands (ev):

   -49.8364 -26.0868 -25.8201 -25.7727 -12.1522  -9.1494  -8.8955   1.2007
     1.6807   1.9716   2.3781   2.5334   3.0319   3.2520   3.7831   4.1051
     6.9050   7.2506   7.4564   8.8592  10.3905

     occupation numbers 
     1.0000   1.0000   1.0000   1.0000   1.0000   1.0000   1.0000   1.0000
     1.0000   1.0000   1.0000   1.0000   1.0000   1.0000   1.0000   1.0000
     0.1731  -0.0076  -0.0001  -0.0000  -0.0000

          k =-1.2479 0.0000-0.2031 ( 12202 PWs)   bands (ev):

   -49.8318 -26.0533 -25.8964 -25.7601 -12.2886  -9.0415  -8.8046   0.9360
     1.1559   2.0141   2.2762   3.1242   3.5543   3.5618   3.7869   3.8494
     6.7386   6.7670   7.8917   9.3451   9.8386

     occupation numbers 
     1.0000   1.0000   1.0000   1.0000   1.0000   1.0000   1.0000   1.0000
     1.0000   1.0000   1.0000   1.0000   1.0000   1.0000   1.0000   1.0000
     0.7688   0.6714  -0.0000  -0.0000  -0.0000

          k = 0.0000 0.8586-0.1354 ( 12137 PWs)   bands (ev):

   -49.8408 -26.2516 -25.7860 -25.7069 -10.9962  -9.2624  -8.9417  -0.6420
     0.7394   1.1833   2.3394   2.4278   2.6356   3.1865   3.8983   4.0969
     5.6633   8.8518   9.5781   9.6940  10.9152

     occupation numbers 
     1.0000   1.0000   1.0000   1.0000   1.0000   1.0000   1.0000   1.0000
     1.0000   1.0000   1.0000   1.0000   1.0000   1.0000   1.0000   1.0000
     1.0000  -0.0000  -0.0000  -0.0000  -0.0000

          k =-1.7470-0.6440-0.1354 ( 12171 PWs)   bands (ev):

   -49.8392 -26.2225 -25.7815 -25.7395 -11.2176  -9.1596  -8.9847  -0.1402
     1.0331   1.4557   1.8664   2.2175   2.9302   3.1797   3.3458   4.1488
     6.1152   8.7657   9.2219   9.2511  11.1717

     occupation numbers 
     1.0000   1.0000   1.0000   1.0000   1.0000   1.0000   1.0000   1.0000
     1.0000   1.0000   1.0000   1.0000   1.0000   1.0000   1.0000   1.0000
     1.0000  -0.0000  -0.0000  -0.0000  -0.0000

          k =-1.4974-0.4293-0.1354 ( 12163 PWs)   bands (ev):

   -49.8352 -26.1518 -25.8178 -25.7704 -11.6941  -9.0784  -8.9079   1.0764
     1.2771   1.6232   1.7955   1.9845   2.6114   3.1258   3.6009   4.0697
     6.9608   8.1391   8.2902   8.8633  10.9611

     occupation numbers 
     1.0000   1.0000   1.0000   1.0000   1.0000   1.0000   1.0000   1.0000
     1.0000   1.0000   1.0000   1.0000   1.0000   1.0000   1.0000   1.0000
     0.0463  -0.0000  -0.0000  -0.0000  -0.0000

          k =-1.2479-0.2147-0.1354 ( 12175 PWs)   bands (ev):

   -49.8313 -26.0805 -25.8954 -25.7591 -12.1117  -9.0360  -8.7841   0.9440
     1.1211   1.7917   2.2955   2.6280   3.0120   3.3659   3.8057   3.9748
     7.0658   7.2125   7.9286   9.2897  10.1670

     occupation numbers 
     1.0000   1.0000   1.0000   1.0000   1.0000   1.0000   1.0000   1.0000
     1.0000   1.0000   1.0000   1.0000   1.0000   1.0000   1.0000   1.0000
    -0.0349  -0.0130  -0.0000  -0.0000  -0.0000

          k =-0.9983 0.0000-0.1354 ( 12175 PWs)   bands (ev):

   -49.8296 -26.0508 -25.9273 -25.7544 -12.2717  -8.9763  -8.7771   0.6836
     1.2624   1.9102   2.0713   3.3082   3.3996   3.5125   3.7489   3.9232
     6.6062   6.7364   8.4276   9.6035   9.9503

     occupation numbers 
     1.0000   1.0000   1.0000   1.0000   1.0000   1.0000   1.0000   1.0000
     1.0000   1.0000   1.0000   1.0000   1.0000   1.0000   1.0000   1.0000
     1.0186   0.7756  -0.0000  -0.0000  -0.0000

          k = 0.0000 0.6440-0.0677 ( 12143 PWs)   bands (ev):

   -49.8413 -26.2254 -25.7870 -25.7077 -11.2335  -9.3387  -8.8778  -0.1489
     0.8351   1.0127   2.5561   2.5892   2.8049   3.2249   3.9641   4.0268
     5.6362   8.7850   9.2388   9.3567  10.6643

     occupation numbers 
     1.0000   1.0000   1.0000   1.0000   1.0000   1.0000   1.0000   1.0000
     1.0000   1.0000   1.0000   1.0000   1.0000   1.0000   1.0000   1.0000
     1.0000  -0.0000  -0.0000  -0.0000  -0.0000

          k = 0.2496 0.8586-0.0677 ( 12173 PWs)   bands (ev):

   -49.8387 -26.2486 -25.7805 -25.7386 -10.9822  -9.1841  -8.9342  -0.6315
     0.9084   1.2243   1.9434   2.1473   2.9904   3.1545   3.3593   4.0365
     6.1081   8.7815   9.5781   9.5920  11.2007

     occupation numbers 
     1.0000   1.0000   1.0000   1.0000   1.0000   1.0000   1.0000   1.0000
     1.0000   1.0000   1.0000   1.0000   1.0000   1.0000   1.0000   1.0000
     1.0000  -0.0000  -0.0000  -0.0000  -0.0000

          k =-1.4974-0.6440-0.0677 ( 12172 PWs)   bands (ev):

   -49.8341 -26.2153 -25.8154 -25.7680 -11.1815  -8.9932  -8.9351  -0.1114
     1.2276   1.2925   1.7531   1.7829   2.3735   3.0363   3.5139   3.8689
     6.9742   8.8596   9.0479   9.1681  11.3081

     occupation numbers 
     1.0000   1.0000   1.0000   1.0000   1.0000   1.0000   1.0000   1.0000
     1.0000   1.0000   1.0000   1.0000   1.0000   1.0000   1.0000   1.0000
     0.0257  -0.0000  -0.0000  -0.0000  -0.0000

          k =-1.2479-0.4293-0.0677 ( 12169 PWs)   bands (ev):

   -49.8301 -26.1451 -25.8928 -25.7568 -11.6552  -8.9976  -8.7630   0.9813
     1.1530   1.1916   1.3787   2.1629   2.7683   2.9160   3.7140   3.8444
     7.9285   7.9631   8.1736   9.2969  10.7399

     occupation numbers 
     1.0000   1.0000   1.0000   1.0000   1.0000   1.0000   1.0000   1.0000
     1.0000   1.0000   1.0000   1.0000   1.0000   1.0000   1.0000   1.0000
    -0.0000  -0.0000  -0.0000  -0.0000  -0.0000

          k =-0.9983-0.2147-0.0677 ( 12179 PWs)   bands (ev):

   -49.8291 -26.0779 -25.9262 -25.7534 -12.0950  -8.9646  -8.7643   0.7255
     1.2665   1.7134   2.0619   2.6743   2.8966   3.3579   3.8231   3.9285
     7.0257   7.1127   8.4424   9.7480  10.2260

     occupation numbers 
     1.0000   1.0000   1.0000   1.0000   1.0000   1.0000   1.0000   1.0000
     1.0000   1.0000   1.0000   1.0000   1.0000   1.0000   1.0000   1.0000
    -0.0230  -0.0325  -0.0000  -0.0000  -0.0000

          k =-0.7487 0.0000-0.0677 ( 12188 PWs)   bands (ev):

   -49.8318 -26.0533 -25.8964 -25.7600 -12.2889  -8.9621  -8.8919   1.0831
     1.5414   1.8256   2.0410   3.2009   3.3519   3.6068   3.6714   3.6795
     6.7930   6.8220   7.8139   9.7149  10.0447

     occupation numbers 
     1.0000   1.0000   1.0000   1.0000   1.0000   1.0000   1.0000   1.0000
     1.0000   1.0000   1.0000   1.0000   1.0000   1.0000   1.0000   1.0000
     0.5742   0.4619  -0.0000  -0.0000  -0.0000

          k = 0.0000 0.4293 0.0000 ( 12139 PWs)   bands (ev):

   -49.8425 -26.1612 -25.7894 -25.7098 -11.7505  -9.4254  -8.8386   0.7377
     1.0964   1.3829   2.5300   2.8994   3.3702   3.4006   3.8811   4.0471
     5.5863   8.4288   8.5319   8.7134  10.2272

     occupation numbers 
     1.0000   1.0000   1.0000   1.0000   1.0000   1.0000   1.0000   1.0000
     1.0000   1.0000   1.0000   1.0000   1.0000   1.0000   1.0000   1.0000
     1.0000  -0.0000  -0.0000  -0.0000  -0.0000

          k = 0.2496 0.6440 0.0000 ( 12153 PWs)   bands (ev):

   -49.8392 -26.2225 -25.7814 -25.7395 -11.2186  -9.2614  -8.8720  -0.1374
     1.0502   1.0699   2.0917   2.2338   3.1521   3.2066   3.5048   3.9355
     6.0649   8.7616   9.2377   9.2393  11.0168

     occupation numbers 
     1.0000   1.0000   1.0000   1.0000   1.0000   1.0000   1.0000   1.0000
     1.0000   1.0000   1.0000   1.0000   1.0000   1.0000   1.0000   1.0000
     1.0000  -0.0000  -0.0000  -0.0000  -0.0000

          k = 0.4991 0.8586 0.0000 ( 12181 PWs)   bands (ev):

   -49.8336 -26.2413 -25.8144 -25.7670 -10.9479  -8.9876  -8.9170  -0.6059
     1.1655   1.2270   1.7502   1.7835   2.1695   2.9775   3.5891   3.7324
     6.9440   8.9728   9.3974   9.5191  11.4555

     occupation numbers 
     1.0000   1.0000   1.0000   1.0000   1.0000   1.0000   1.0000   1.0000
     1.0000   1.0000   1.0000   1.0000   1.0000   1.0000   1.0000   1.0000
     0.0775  -0.0000  -0.0000  -0.0000  -0.0000

          k =-1.2479-0.6440 0.0000 ( 12181 PWs)   bands (ev):

   -49.8289 -26.2082 -25.8902 -25.7544 -11.1451  -8.9447  -8.7579  -0.0809
     0.9044   1.1782   1.2627   1.9448   2.5509   2.6146   3.5074   3.7719
     7.9490   8.8478   9.0597   9.3727  11.1289

     occupation numbers 
     1.0000   1.0000   1.0000   1.0000   1.0000   1.0000   1.0000   1.0000
     1.0000   1.0000   1.0000   1.0000   1.0000   1.0000   1.0000   1.0000
    -0.0000  -0.0000  -0.0000  -0.0000  -0.0000

          k =-0.9983-0.4293 0.0000 ( 12173 PWs)   bands (ev):

   -49.8279 -26.1423 -25.9236 -25.7511 -11.6392  -8.9362  -8.7331   0.7835
     1.2137   1.2346   1.3681   2.0291   2.6736   2.7255   3.5805   4.0353
     7.8398   8.1130   8.4663   9.7622  10.8765

     occupation numbers 
     1.0000   1.0000   1.0000   1.0000   1.0000   1.0000   1.0000   1.0000
     1.0000   1.0000   1.0000   1.0000   1.0000   1.0000   1.0000   1.0000
    -0.0000  -0.0000  -0.0000  -0.0000  -0.0000

          k =-0.7487-0.2147 0.0000 ( 12171 PWs)   bands (ev):

   -49.8313 -26.0805 -25.8954 -25.7591 -12.1120  -8.9308  -8.8989   1.1227
     1.6364   1.6840   2.0147   2.5791   2.7135   3.0947   3.8475   4.0105
     7.0942   7.2260   7.8452   9.7248  10.4964

     occupation numbers 
     1.0000   1.0000   1.0000   1.0000   1.0000   1.0000   1.0000   1.0000
     1.0000   1.0000   1.0000   1.0000   1.0000   1.0000   1.0000   1.0000
    -0.0348  -0.0109  -0.0000  -0.0000  -0.0000

          k =-0.4991 0.0000 0.0000 ( 12159 PWs)   bands (ev):

   -49.8369 -26.0594 -25.8211 -25.7736 -12.3303  -9.2106  -8.8573   1.2005
     1.8940   2.1535   2.4068   3.0911   3.2609   3.4241   3.7509   3.9207
     6.7661   6.9608   7.0807   9.1884  10.1351

     occupation numbers 
     1.0000   1.0000   1.0000   1.0000   1.0000   1.0000   1.0000   1.0000
     1.0000   1.0000   1.0000   1.0000   1.0000   1.0000   1.0000   1.0000
     0.6748   0.0463  -0.0354  -0.0000  -0.0000

          k = 0.9983 0.8586 0.2708 ( 12188 PWs)   bands (ev):

   -49.8263 -26.2309 -25.9199 -25.7479 -10.8981  -8.8954  -8.6880  -0.5694
     0.6326   0.8971   1.8138   1.8955   1.8965   2.5988   3.1848   3.9333
     8.4730   9.1823   9.3898   9.7121  11.3658

     occupation numbers 
     1.0000   1.0000   1.0000   1.0000   1.0000   1.0000   1.0000   1.0000
     1.0000   1.0000   1.0000   1.0000   1.0000   1.0000   1.0000   1.0000
    -0.0000  -0.0000  -0.0000  -0.0000  -0.0000

          k = 0.0000 0.0000 0.2708 ( 12121 PWs)   bands (ev):

   -49.8442 -26.0680 -25.7929 -25.7128 -12.3879  -9.4269  -8.9356   0.9204
     2.5581   2.5793   2.8079   3.1722   3.4025   3.5742   4.0296   4.1649
     5.5502   7.2125   7.4529   8.8253   9.6838

     occupation numbers 
     1.0000   1.0000   1.0000   1.0000   1.0000   1.0000   1.0000   1.0000
     1.0000   1.0000   1.0000   1.0000   1.0000   1.0000   1.0000   1.0000
     1.0000  -0.0130  -0.0001  -0.0000  -0.0000

          k = 0.0000-0.2147 0.3385 ( 12164 PWs)   bands (ev):

   -49.8437 -26.0956 -25.7919 -25.7120 -12.2093  -9.3587  -8.9870   1.0752
     2.1554   2.4189   2.6064   2.7776   3.2478   3.4519   3.9916   4.0842
     5.5695   7.6360   7.7262   8.8915  10.1461

     occupation numbers 
     1.0000   1.0000   1.0000   1.0000   1.0000   1.0000   1.0000   1.0000
     1.0000   1.0000   1.0000   1.0000   1.0000   1.0000   1.0000   1.0000
     1.0000  -0.0000  -0.0000  -0.0000  -0.0000

          k = 0.2496 0.0000 0.3385 ( 12138 PWs)   bands (ev):

   -49.8421 -26.0655 -25.7873 -25.7448 -12.3705  -9.3177  -8.9662   1.1506
     2.1151   2.5778   2.8396   2.9604   3.3138   3.6480   3.9066   3.9234
     6.0413   7.0843   7.3926   8.7168   9.9399

     occupation numbers 
     1.0000   1.0000   1.0000   1.0000   1.0000   1.0000   1.0000   1.0000
     1.0000   1.0000   1.0000   1.0000   1.0000   1.0000   1.0000   1.0000
     1.0000  -0.0354  -0.0005  -0.0000  -0.0000

          k =-1.9966-0.4293-0.1354 ( 12189 PWs)   bands (ev):

   -49.8425 -26.1613 -25.7895 -25.7098 -11.7487  -9.2579  -9.0334   0.9769
     1.2722   1.6867   2.3324   2.6509   2.8872   3.1226   3.8432   4.3086
     5.6142   8.4178   8.5293   8.9273  10.7382

     occupation numbers 
     1.0000   1.0000   1.0000   1.0000   1.0000   1.0000   1.0000   1.0000
     1.0000   1.0000   1.0000   1.0000   1.0000   1.0000   1.0000   1.0000
     1.0000  -0.0000  -0.0000  -0.0000  -0.0000

          k =-1.7470-0.2147-0.1354 ( 12147 PWs)   bands (ev):

   -49.8416 -26.0930 -25.7863 -25.7439 -12.1923  -9.2529  -9.0108   1.2912
     1.9273   2.3474   2.4438   2.7759   3.0861   3.3914   3.6942   4.1372
     6.0714   7.5020   7.6644   8.7555  10.3554

     occupation numbers 
     1.0000   1.0000   1.0000   1.0000   1.0000   1.0000   1.0000   1.0000
     1.0000   1.0000   1.0000   1.0000   1.0000   1.0000   1.0000   1.0000
     1.0000  -0.0000  -0.0000  -0.0000  -0.0000

          k =-1.4974 0.0000-0.1354 ( 12156 PWs)   bands (ev):

   -49.8369 -26.0594 -25.8211 -25.7737 -12.3294  -9.1610  -8.9085   1.1825
     1.5908   2.0940   2.6119   2.9385   3.5736   3.6277   3.7919   3.8910
     6.8423   6.9395   7.1121   8.7561   9.9326

     occupation numbers 
     1.0000   1.0000   1.0000   1.0000   1.0000   1.0000   1.0000   1.0000
     1.0000   1.0000   1.0000   1.0000   1.0000   1.0000   1.0000   1.0000
     0.3840   0.0869  -0.0326  -0.0000  -0.0000

          k = 0.0000 1.0733-0.0677 ( 12170 PWs)   bands (ev):

   -49.8413 -26.2254 -25.7870 -25.7077 -11.2323  -9.2070  -9.0264  -0.1525
     1.0079   1.2571   2.3769   2.5533   2.6630   2.9007   3.8377   4.2930
     5.6516   8.9107   9.2152   9.3549  10.9441

     occupation numbers 
     1.0000   1.0000   1.0000   1.0000   1.0000   1.0000   1.0000   1.0000
     1.0000   1.0000   1.0000   1.0000   1.0000   1.0000   1.0000   1.0000
     1.0000  -0.0000  -0.0000  -0.0000  -0.0000

          k =-1.7470-0.4293-0.0677 ( 12175 PWs)   bands (ev):

   -49.8404 -26.1585 -25.7839 -25.7417 -11.7326  -9.1538  -9.0521   1.0239
     1.4398   1.6977   1.9095   2.4759   2.9728   3.2290   3.3318   4.3011
     6.1079   8.3524   8.4065   8.8208  10.9366

     occupation numbers 
     1.0000   1.0000   1.0000   1.0000   1.0000   1.0000   1.0000   1.0000
     1.0000   1.0000   1.0000   1.0000   1.0000   1.0000   1.0000   1.0000
     1.0000  -0.0000  -0.0000  -0.0000  -0.0000

          k =-1.4974-0.2147-0.0677 ( 12154 PWs)   bands (ev):

   -49.8364 -26.0868 -25.8201 -25.7727 -12.1519  -9.1303  -8.9151   1.2211
     1.5310   1.9768   2.4402   2.5355   3.1150   3.3121   3.7174   4.1277
     6.9730   7.2392   7.4532   8.7393  10.3084

     occupation numbers 
     1.0000   1.0000   1.0000   1.0000   1.0000   1.0000   1.0000   1.0000
     1.0000   1.0000   1.0000   1.0000   1.0000   1.0000   1.0000   1.0000
     0.0273  -0.0090  -0.0001  -0.0000  -0.0000

          k =-1.2479 0.0000-0.0677 ( 12165 PWs)   bands (ev):

   -49.8318 -26.0533 -25.8964 -25.7601 -12.2885  -9.0606  -8.7823   0.9012
     1.0420   2.0148   2.3849   3.0985   3.5575   3.6438   3.8222   3.9039
     6.7054   6.7539   7.9356   9.2115   9.7247

     occupation numbers 
     1.0000   1.0000   1.0000   1.0000   1.0000   1.0000   1.0000   1.0000
     1.0000   1.0000   1.0000   1.0000   1.0000   1.0000   1.0000   1.0000
     0.8648   0.7177  -0.0000  -0.0000  -0.0000

          k = 0.0000 0.8586 0.0000 ( 12151 PWs)   bands (ev):

   -49.8408 -26.2516 -25.7860 -25.7069 -10.9962  -9.2624  -8.9417  -0.6420
     0.8393   1.0131   2.4279   2.6355   2.7311   2.7884   3.8983   4.1794
     5.6588   8.8518   9.5882   9.6939  10.8746

     occupation numbers 
     1.0000   1.0000   1.0000   1.0000   1.0000   1.0000   1.0000   1.0000
     1.0000   1.0000   1.0000   1.0000   1.0000   1.0000   1.0000   1.0000
     1.0000  -0.0000  -0.0000  -0.0000  -0.0000

          k = 0.2496 1.0733 0.0000 ( 12164 PWs)   bands (ev):

   -49.8392 -26.2225 -25.7815 -25.7395 -11.2175  -9.1227  -9.0234  -0.1407
     1.1443   1.3095   2.0052   2.1406   3.0189   3.1069   3.2383   4.2030
     6.1219   8.7594   9.2384   9.2484  11.1911

     occupation numbers 
     1.0000   1.0000   1.0000   1.0000   1.0000   1.0000   1.0000   1.0000
     1.0000   1.0000   1.0000   1.0000   1.0000   1.0000   1.0000   1.0000
     1.0000  -0.0000  -0.0000  -0.0000  -0.0000

          k =-1.4974-0.4293 0.0000 ( 12157 PWs)   bands (ev):

   -49.8352 -26.1518 -25.8178 -25.7704 -11.6940  -9.0661  -8.9205   1.0744
     1.2681   1.5900   1.7576   2.0172   2.7068   3.1214   3.5643   4.0735
     6.9888   8.1550   8.2795   8.8095  10.9184

     occupation numbers 
     1.0000   1.0000   1.0000   1.0000   1.0000   1.0000   1.0000   1.0000
     1.0000   1.0000   1.0000   1.0000   1.0000   1.0000   1.0000   1.0000
     0.0071  -0.0000  -0.0000  -0.0000  -0.0000

          k =-1.2479-0.2147 0.0000 ( 12169 PWs)   bands (ev):

   -49.8313 -26.0805 -25.8954 -25.7591 -12.1116  -9.0454  -8.7730   0.9314
     1.0574   1.7807   2.3459   2.6266   3.0596   3.4119   3.8250   3.9412
     7.0597   7.2110   7.9521   9.2171  10.1024

     occupation numbers 
     1.0000   1.0000   1.0000   1.0000   1.0000   1.0000   1.0000   1.0000
     1.0000   1.0000   1.0000   1.0000   1.0000   1.0000   1.0000   1.0000
    -0.0341  -0.0132  -0.0000  -0.0000  -0.0000

          k =-0.9983 0.0000 0.0000 ( 12191 PWs)   bands (ev):

   -49.8296 -26.0508 -25.9273 -25.7544 -12.2717  -8.9762  -8.7771   0.7038
     1.2115   1.9202   2.1030   3.3079   3.4001   3.5330   3.7136   3.9228
     6.6134   6.7291   8.4309   9.7676   9.7779

     occupation numbers 
     1.0000   1.0000   1.0000   1.0000   1.0000   1.0000   1.0000   1.0000
     1.0000   1.0000   1.0000   1.0000   1.0000   1.0000   1.0000   1.0000
     1.0136   0.7983  -0.0000  -0.0000  -0.0000

          k = 0.0000 0.0000 0.4061 ( 12117 PWs)   bands (ev):

   -49.8442 -26.0680 -25.7929 -25.7128 -12.3872  -9.3279  -9.0494   1.2383
     2.3140   2.6365   2.7853   3.3063   3.3459   3.3956   3.8764   4.0881
     5.5588   7.2128   7.5231   8.9494   9.8642

     occupation numbers 
     1.0000   1.0000   1.0000   1.0000   1.0000   1.0000   1.0000   1.0000
     1.0000   1.0000   1.0000   1.0000   1.0000   1.0000   1.0000   1.0000
     1.0000  -0.0129  -0.0000  -0.0000  -0.0000

          k =-1.9966-0.2147-0.0677 ( 12164 PWs)   bands (ev):

   -49.8437 -26.0956 -25.7919 -25.7120 -12.2088  -9.2510  -9.1053   1.3515
     2.1541   2.4000   2.4871   2.6672   3.2185   3.3852   3.9222   4.0859
     5.5775   7.6358   7.7615   8.9793  10.3034

     occupation numbers 
     1.0000   1.0000   1.0000   1.0000   1.0000   1.0000   1.0000   1.0000
     1.0000   1.0000   1.0000   1.0000   1.0000   1.0000   1.0000   1.0000
     1.0000  -0.0000  -0.0000  -0.0000  -0.0000

          k =-1.7470 0.0000-0.0677 ( 12142 PWs)   bands (ev):

   -49.8421 -26.0655 -25.7873 -25.7448 -12.3700  -9.2361  -9.0557   1.4456
     1.8122   2.6742   2.8182   2.8635   3.4422   3.6492   3.7976   3.8372
     6.0768   7.0758   7.4271   8.7540   9.9647

     occupation numbers 
     1.0000   1.0000   1.0000   1.0000   1.0000   1.0000   1.0000   1.0000
     1.0000   1.0000   1.0000   1.0000   1.0000   1.0000   1.0000   1.0000
     1.0000  -0.0354  -0.0002  -0.0000  -0.0000

          k = 0.0000 1.2879 0.0000 ( 12185 PWs)   bands (ev):

   -49.8425 -26.1613 -25.7895 -25.7098 -11.7484  -9.1579  -9.1380   0.9953
     1.4277   1.6394   2.2683   2.6772   2.8828   2.9775   3.8059   4.3627
     5.6184   8.4252   8.5293   8.9635  10.8147

     occupation numbers 
     1.0000   1.0000   1.0000   1.0000   1.0000   1.0000   1.0000   1.0000
     1.0000   1.0000   1.0000   1.0000   1.0000   1.0000   1.0000   1.0000
     1.0000  -0.0000  -0.0000  -0.0000  -0.0000

          k =-1.7470-0.2147 0.0000 ( 12152 PWs)   bands (ev):

   -49.8416 -26.0930 -25.7863 -25.7439 -12.1920  -9.1900  -9.0776   1.5074
     1.7183   2.3969   2.4151   2.7817   3.0792   3.3553   3.6544   4.1427
     6.0913   7.5002   7.6711   8.7776  10.3776

     occupation numbers 
     1.0000   1.0000   1.0000   1.0000   1.0000   1.0000   1.0000   1.0000
     1.0000   1.0000   1.0000   1.0000   1.0000   1.0000   1.0000   1.0000
     1.0000  -0.0000  -0.0000  -0.0000  -0.0000

          k =-1.4974 0.0000 0.0000 ( 12179 PWs)   bands (ev):

   -49.8369 -26.0594 -25.8211 -25.7737 -12.3292  -9.1503  -8.9195   1.2048
     1.5009   2.1197   2.6281   2.9237   3.6707   3.6852   3.7005   3.9012
     6.8260   6.9778   7.1135   8.6886   9.8881

     occupation numbers 
     1.0000   1.0000   1.0000   1.0000   1.0000   1.0000   1.0000   1.0000
     1.0000   1.0000   1.0000   1.0000   1.0000   1.0000   1.0000   1.0000
     0.4464   0.0207  -0.0323  -0.0000  -0.0000

          k =-1.9966-1.7173-0.5415 ( 12132 PWs)   bands (ev):

   -49.8442 -26.0680 -25.7929 -25.7128 -12.3869  -9.2418  -9.1416   1.4599
     2.0980   2.6751   2.7779   3.3149   3.3431   3.3832   3.7902   4.0584
     5.5592   7.2130   7.5518   9.0008   9.9299

     occupation numbers 
     1.0000   1.0000   1.0000   1.0000   1.0000   1.0000   1.0000   1.0000
     1.0000   1.0000   1.0000   1.0000   1.0000   1.0000   1.0000   1.0000
     1.0000  -0.0129  -0.0000  -0.0000  -0.0000

     the Fermi energy is     6.8122 ev

!    total energy              =    -534.96665801 Ry

     total all-electron energy =     -9636.856901 Ry
     estimated scf accuracy    <          4.7E-11 Ry
     smearing contrib. (-TS)   =      -0.00039393 Ry
     internal energy E=F+TS    =    -534.96626408 Ry

     The total energy is F=E-TS. E is the sum of the following terms:
     one-electron contribution =     -93.95215877 Ry
     hartree contribution      =      61.22062968 Ry
     xc contribution           =     -39.53527921 Ry
     ewald contribution        =    -135.48921389 Ry
     one-center paw contrib.   =    -327.21024191 Ry
      -> PAW hartree energy AE =      29.08347073 Ry
      -> PAW hartree energy PS =     -29.05340817 Ry
      -> PAW xc energy AE      =     -17.03678322 Ry
      -> PAW xc energy PS      =       7.41264156 Ry
      -> total E_H with PAW    =      61.25069225 Ry
      -> total E_XC with PAW   =     -49.15942087 Ry

     convergence has been achieved in  12 iterations

     Forces acting on atoms (cartesian axes, Ry/au):

     atom    1 type  1   force =     0.00000000    0.00000000    0.00000000
     atom    2 type  2   force =     0.00000000    0.00000000    0.03657064
     atom    3 type  2   force =     0.00000000    0.00000000   -0.03657064
     atom    4 type  3   force =     0.00000000    0.00000000    0.00000000
     The non-local contrib.  to forces
     atom    1 type  1   force =     0.00000000    0.00000000    0.00000000
     atom    2 type  2   force =     0.00000000    0.00000000    0.06332206
     atom    3 type  2   force =    -0.00000000   -0.00000000   -0.06332206
     atom    4 type  3   force =     0.00000000    0.00000000    0.00000000
     The ionic contribution  to forces
     atom    1 type  1   force =    -0.00000000   -0.00000000    0.00000000
     atom    2 type  2   force =     0.00000001    0.00000000  -10.07462875
     atom    3 type  2   force =    -0.00000001   -0.00000000   10.07462875
     atom    4 type  3   force =    -0.00000000   -0.00000000    0.00000000
     The local contribution  to forces
     atom    1 type  1   force =     0.00000000    0.00000000    0.00000000
     atom    2 type  2   force =     0.00000002   -0.00000003   10.04633492
     atom    3 type  2   force =    -0.00000002    0.00000003  -10.04633492
     atom    4 type  3   force =     0.00000000    0.00000000    0.00000000
     The core correction contribution to forces
     atom    1 type  1   force =     0.00000000    0.00000000    0.00000000
     atom    2 type  2   force =    -0.00000000    0.00000000    0.00154137
     atom    3 type  2   force =     0.00000000   -0.00000000   -0.00154137
     atom    4 type  3   force =     0.00000000    0.00000000    0.00000000
     The Hubbard contrib.    to forces
     atom    1 type  1   force =     0.00000000    0.00000000    0.00000000
     atom    2 type  2   force =     0.00000000    0.00000000    0.00000000
     atom    3 type  2   force =     0.00000000    0.00000000    0.00000000
     atom    4 type  3   force =     0.00000000    0.00000000    0.00000000
     The SCF correction term to forces
     atom    1 type  1   force =    -0.00000000   -0.00000000    0.00000000
     atom    2 type  2   force =    -0.00000000    0.00000000    0.00000104
     atom    3 type  2   force =     0.00000000   -0.00000000   -0.00000104
     atom    4 type  3   force =    -0.00000000   -0.00000000    0.00000000

     Total force =     0.051719     Total SCF correction =     0.000001


     Computing stress (Cartesian axis) and pressure

          total   stress  (Ry/bohr**3)                   (kbar)     P=      -39.03
  -0.00026222   0.00000000   0.00000000          -38.57        0.00        0.00
   0.00000000  -0.00026213   0.00000000            0.00      -38.56        0.00
   0.00000000   0.00000000  -0.00027164            0.00        0.00      -39.96

     kinetic stress (kbar)  14752.06      0.00      0.00
                                0.00  14835.76      0.00
                                0.00      0.00  14763.32

     local   stress (kbar) -18889.09     -0.00      0.00
                               -0.00 -24232.65      0.00
                                0.00      0.00   4115.90

     nonloc. stress (kbar)   8010.63     -0.00     -0.00
                                0.00   7931.04     -0.00
                                0.00     -0.00   8005.77

     hartree stress (kbar)   8373.31     -0.00     -0.00
                               -0.00  10119.31      0.00
                               -0.00      0.00  -2056.50

     exc-cor stress (kbar)  -1131.02     -0.00     -0.00
                               -0.00  -1121.31     -0.00
                               -0.00     -0.00  -1130.55

     corecor stress (kbar)  -2029.34     -0.00      0.00
                               -0.00  -2029.27      0.00
                                0.00      0.00  -2029.20

     ewald   stress (kbar)  -9125.13      0.00     -0.00
                                0.00  -5541.44     -0.00
                               -0.00     -0.00 -21708.70

     hubbard stress (kbar)      0.00      0.00      0.00
                                0.00      0.00      0.00
                                0.00      0.00      0.00

     DFT-D   stress (kbar)      0.00      0.00      0.00
                                0.00      0.00      0.00
                                0.00      0.00      0.00

     XDM     stress (kbar)      0.00      0.00      0.00
                                0.00      0.00      0.00
                                0.00      0.00      0.00

     dft-nl  stress (kbar)      0.00      0.00      0.00
                                0.00      0.00      0.00
                                0.00      0.00      0.00

     TS-vdW  stress (kbar)      0.00      0.00      0.00
                                0.00      0.00      0.00
                                0.00      0.00      0.00



     Writing output data file /zfs_data/gutierre/Scratch/Cl2NbO/smearing/8x8x8/0.016/tmp/Cl2NbO.save/
 
     init_run     :      3.01s CPU      3.11s WALL (       1 calls)
     electrons    :     59.11s CPU     60.52s WALL (       1 calls)
     forces       :      0.78s CPU      0.79s WALL (       1 calls)
     stress       :      1.77s CPU      1.78s WALL (       1 calls)

     Called by init_run:
     wfcinit      :      1.78s CPU      1.84s WALL (       1 calls)
     wfcinit:atom :      0.01s CPU      0.01s WALL (      95 calls)
     wfcinit:wfcr :      1.72s CPU      1.76s WALL (      95 calls)
     potinit      :      0.38s CPU      0.40s WALL (       1 calls)
     hinit0       :      0.49s CPU      0.49s WALL (       1 calls)

     Called by electrons:
     c_bands      :     45.82s CPU     46.91s WALL (      12 calls)
     sum_band     :     10.35s CPU     10.59s WALL (      12 calls)
     v_of_rho     :      1.16s CPU      1.19s WALL (      13 calls)
     v_h          :      0.10s CPU      0.10s WALL (      13 calls)
     v_xc         :      1.23s CPU      1.26s WALL (      15 calls)
     newd         :      1.00s CPU      1.02s WALL (      13 calls)
     PAW_pot      :      0.67s CPU      0.68s WALL (      13 calls)
     mix_rho      :      0.17s CPU      0.17s WALL (      12 calls)

     Called by c_bands:
     init_us_2    :      0.63s CPU      0.66s WALL (    2565 calls)
     cegterg      :     44.51s CPU     45.53s WALL (    1140 calls)

     Called by sum_band:
     sum_band:wei :      0.04s CPU      0.04s WALL (      12 calls)
     sum_band:loo :      9.17s CPU      9.38s WALL (      12 calls)
     sum_band:buf :      0.09s CPU      0.09s WALL (    1140 calls)
     sum_band:ini :      0.30s CPU      0.30s WALL (    1140 calls)
     sum_band:cal :      0.33s CPU      0.34s WALL (    1140 calls)
     sum_band:bec :      0.03s CPU      0.03s WALL (    1140 calls)
     addusdens    :      0.98s CPU      1.01s WALL (      12 calls)
     addusd:skk   :      0.01s CPU      0.01s WALL (      36 calls)
     addusd:dgemm :      0.29s CPU      0.31s WALL (      36 calls)
     addusd:qvan2 :      0.64s CPU      0.64s WALL (      36 calls)

     Called by *egterg:
     cdiaghg      :      2.42s CPU      2.53s WALL (    4256 calls)
     cegterg:over :      0.88s CPU      0.90s WALL (    3116 calls)
     cegterg:upda :      0.27s CPU      0.28s WALL (    3116 calls)
     cegterg:last :      0.41s CPU      0.42s WALL (    2229 calls)
     h_psi        :     41.01s CPU     41.92s WALL (    4351 calls)
     s_psi        :      0.29s CPU      0.30s WALL (    4351 calls)
     g_psi        :      0.06s CPU      0.06s WALL (    3116 calls)

     Called by h_psi:
     h_psi:calbec :      1.08s CPU      1.10s WALL (    4351 calls)
     vloc_psi     :     39.35s CPU     40.22s WALL (    4351 calls)
     add_vuspsi   :      0.44s CPU      0.45s WALL (    4351 calls)

     General routines
     calbec       :      1.45s CPU      1.49s WALL (    5966 calls)
     fft          :      1.00s CPU      1.01s WALL (     192 calls)
     ffts         :      0.02s CPU      0.02s WALL (      25 calls)
     fftw         :     42.85s CPU     43.84s WALL (  147376 calls)
     interpolate  :      0.09s CPU      0.09s WALL (      13 calls)
 
     Parallel routines
     fft_scatt_xy :      5.79s CPU      5.89s WALL (  147593 calls)
     fft_scatt_yz :     19.40s CPU     19.85s WALL (  147593 calls)

     PAW routines
     PAW_pot      :      0.67s CPU      0.68s WALL (      13 calls)
     PAW_symme    :      0.03s CPU      0.03s WALL (      25 calls)
 
     PWSCF        :   1m 5.46s CPU   1m 7.93s WALL

 
   This run was terminated on:  17:52:40  18May2022            

=------------------------------------------------------------------------------=
   JOB DONE.
=------------------------------------------------------------------------------=
