MPI startup(): Warning: I_MPI_PMI_LIBRARY will be ignored since the hydra process manager was found
MPI startup(): Warning: I_MPI_PMI_LIBRARY will be ignored since the hydra process manager was found
MPI startup(): Warning: I_MPI_PMI_LIBRARY will be ignored since the hydra process manager was found
MPI startup(): Warning: I_MPI_PMI_LIBRARY will be ignored since the hydra process manager was found
MPI startup(): Warning: I_MPI_PMI_LIBRARY will be ignored since the hydra process manager was found
MPI startup(): Warning: I_MPI_PMI_LIBRARY will be ignored since the hydra process manager was found
MPI startup(): Warning: I_MPI_PMI_LIBRARY will be ignored since the hydra process manager was found
MPI startup(): Warning: I_MPI_PMI_LIBRARY will be ignored since the hydra process manager was found
MPI startup(): Warning: I_MPI_PMI_LIBRARY will be ignored since the hydra process manager was found
MPI startup(): Warning: I_MPI_PMI_LIBRARY will be ignored since the hydra process manager was found
MPI startup(): Warning: I_MPI_PMI_LIBRARY will be ignored since the hydra process manager was found
MPI startup(): Warning: I_MPI_PMI_LIBRARY will be ignored since the hydra process manager was found
MPI startup(): Warning: I_MPI_PMI_LIBRARY will be ignored since the hydra process manager was found
MPI startup(): Warning: I_MPI_PMI_LIBRARY will be ignored since the hydra process manager was found
MPI startup(): Warning: I_MPI_PMI_LIBRARY will be ignored since the hydra process manager was found
MPI startup(): Warning: I_MPI_PMI_LIBRARY will be ignored since the hydra process manager was found
MPI startup(): Warning: I_MPI_PMI_LIBRARY will be ignored since the hydra process manager was found
MPI startup(): Warning: I_MPI_PMI_LIBRARY will be ignored since the hydra process manager was found
MPI startup(): Warning: I_MPI_PMI_LIBRARY will be ignored since the hydra process manager was found
MPI startup(): Warning: I_MPI_PMI_LIBRARY will be ignored since the hydra process manager was found
MPI startup(): Warning: I_MPI_PMI_LIBRARY will be ignored since the hydra process manager was found
MPI startup(): Warning: I_MPI_PMI_LIBRARY will be ignored since the hydra process manager was found
MPI startup(): Warning: I_MPI_PMI_LIBRARY will be ignored since the hydra process manager was found
MPI startup(): Warning: I_MPI_PMI_LIBRARY will be ignored since the hydra process manager was found

     Program PWSCF v.6.7MaX starts on  1Aug2021 at 12:45:22 

     This program is part of the open-source Quantum ESPRESSO suite
     for quantum simulation of materials; please cite
         "P. Giannozzi et al., J. Phys.:Condens. Matter 21 395502 (2009);
         "P. Giannozzi et al., J. Phys.:Condens. Matter 29 465901 (2017);
          URL http://www.quantum-espresso.org", 
     in publications or presentations arising from this work. More details at
     http://www.quantum-espresso.org/quote

     Parallel version (MPI), running on    24 processors

     MPI processes distributed on     1 nodes
     R & G space division:  proc/nbgrp/npool/nimage =      24
     Waiting for input...
     Reading input from standard input

     Current dimensions of program PWSCF are:
     Max number of different atomic species (ntypx) = 10
     Max number of k-points (npk) =  40000
     Max angular momentum in pseudopotentials (lmaxx) =  3
     file Cr.rel-pbe-spn-kjpaw_psl.1.0.0.UPF: wavefunction(s)  3S 3P 3P 3D 3D renormalized
     file Si.rel-pbe-n-kjpaw_psl.1.0.0.UPF: wavefunction(s)  3S 3P 3P renormalized

     Subspace diagonalization in iterative solution of the eigenvalue problem:
     a serial algorithm will be used

     Message from routine setup:
     using ibrav=0 with symmetry is DISCOURAGED, use correct ibrav instead
 
     Parallelization info
     --------------------
     sticks:   dense  smooth     PW     G-vecs:    dense   smooth      PW
     Min         228      91     25                12702     3210     487
     Max         229      93     26                12704     3214     492
     Sum        5473    2201    621               304867    77053   11753
 


     bravais-lattice index     =            0
     lattice parameter (alat)  =       8.7475  a.u.
     unit-cell volume          =     669.3575 (a.u.)^3
     number of atoms/cell      =            8
     number of atomic types    =            2
     number of electrons       =        72.00
     number of Kohn-Sham states=           86
     kinetic-energy cutoff     =      90.0000  Ry
     charge density cutoff     =     900.0000  Ry
     scf convergence threshold =      1.0E-06
     mixing beta               =       0.7000
     number of iterations used =            8  plain     mixing
     Exchange-correlation= SLA  PW   PBX  PBC
                           (   1   4   3   4   0   0   0)
     Non magnetic calculation with spin-orbit


     celldm(1)=   8.747542  celldm(2)=   0.000000  celldm(3)=   0.000000
     celldm(4)=   0.000000  celldm(5)=   0.000000  celldm(6)=   0.000000

     crystal axes: (cart. coord. in units of alat)
               a(1) = (   1.000000   0.000000   0.000000 )  
               a(2) = (   0.000000   1.000000   0.000000 )  
               a(3) = (   0.000000   0.000000   1.000000 )  

     reciprocal axes: (cart. coord. in units 2 pi/alat)
               b(1) = (  1.000000  0.000000  0.000000 )  
               b(2) = (  0.000000  1.000000  0.000000 )  
               b(3) = (  0.000000  0.000000  1.000000 )  


     PseudoPot. # 1 for Cr read from file:
     ../../../../pseudo/Cr.rel-pbe-spn-kjpaw_psl.1.0.0.UPF
     MD5 check sum: 1e24e2b5251376a8b945118fca0c7981
     Pseudo is Projector augmented-wave + core cor, Zval = 14.0
     Generated using &quot;atomic&quot; code by A. Dal Corso  v.6.3
     Shape of augmentation charge: PSQ
     Using radial grid of 1183 points, 10 beta functions with: 
                l(1) =   0
                l(2) =   0
                l(3) =   1
                l(4) =   1
                l(5) =   1
                l(6) =   1
                l(7) =   2
                l(8) =   2
                l(9) =   2
               l(10) =   2
     Q(r) pseudized with 0 coefficients 


     PseudoPot. # 2 for Si read from file:
     ../../../../pseudo/Si.rel-pbe-n-kjpaw_psl.1.0.0.UPF
     MD5 check sum: d74f6caf6830ea4c2076867160cab1b0
     Pseudo is Projector augmented-wave + core cor, Zval =  4.0
     Generated using &quot;atomic&quot; code by A. Dal Corso  v.6.3
     Shape of augmentation charge: PSQ
     Using radial grid of 1141 points, 10 beta functions with: 
                l(1) =   0
                l(2) =   0
                l(3) =   1
                l(4) =   1
                l(5) =   1
                l(6) =   1
                l(7) =   2
                l(8) =   2
                l(9) =   2
               l(10) =   2
     Q(r) pseudized with 0 coefficients 


     atomic species   valence    mass     pseudopotential
        Cr            14.00    51.99600     Cr( 1.00)
        Si             4.00    28.08500     Si( 1.00)

     12 Sym. Ops. (no inversion) found ( 9 have fractional translation)


                                    s                        frac. trans.

      isym =  1     identity                                     

 cryst.   s( 1) = (     1          0          0      )
                  (     0          1          0      )
                  (     0          0          1      )

 cart.    s( 1) = (  1.0000000  0.0000000  0.0000000 )
                  (  0.0000000  1.0000000  0.0000000 )
                  (  0.0000000  0.0000000  1.0000000 )


      isym =  2     180 deg rotation - cart. axis [0,0,1]        

 cryst.   s( 2) = (    -1          0          0      )    f =(  0.5000000 )
                  (     0         -1          0      )       (  0.0000000 )
                  (     0          0          1      )       ( -0.5000000 )

 cart.    s( 2) = ( -1.0000000  0.0000000  0.0000000 )    f =(  0.5000000 )
                  (  0.0000000 -1.0000000  0.0000000 )       (  0.0000000 )
                  (  0.0000000  0.0000000  1.0000000 )       ( -0.5000000 )


      isym =  3     180 deg rotation - cart. axis [0,1,0]        

 cryst.   s( 3) = (    -1          0          0      )    f =(  0.0000000 )
                  (     0          1          0      )       ( -0.5000000 )
                  (     0          0         -1      )       (  0.5000000 )

 cart.    s( 3) = ( -1.0000000  0.0000000  0.0000000 )    f =(  0.0000000 )
                  (  0.0000000  1.0000000  0.0000000 )       ( -0.5000000 )
                  (  0.0000000  0.0000000 -1.0000000 )       (  0.5000000 )


      isym =  4     180 deg rotation - cart. axis [1,0,0]        

 cryst.   s( 4) = (     1          0          0      )    f =(  0.5000000 )
                  (     0         -1          0      )       (  0.5000000 )
                  (     0          0         -1      )       (  0.0000000 )

 cart.    s( 4) = (  1.0000000  0.0000000  0.0000000 )    f =(  0.5000000 )
                  (  0.0000000 -1.0000000  0.0000000 )       (  0.5000000 )
                  (  0.0000000  0.0000000 -1.0000000 )       (  0.0000000 )


      isym =  5     120 deg rotation - cart. axis [-1,-1,-1]     

 cryst.   s( 5) = (     0          0          1      )
                  (     1          0          0      )
                  (     0          1          0      )

 cart.    s( 5) = (  0.0000000  1.0000000  0.0000000 )
                  (  0.0000000  0.0000000  1.0000000 )
                  (  1.0000000  0.0000000  0.0000000 )


      isym =  6     120 deg rotation - cart. axis [-1,1,1]       

 cryst.   s( 6) = (     0          0         -1      )    f =(  0.0000000 )
                  (    -1          0          0      )       ( -0.5000000 )
                  (     0          1          0      )       (  0.5000000 )

 cart.    s( 6) = (  0.0000000 -1.0000000  0.0000000 )    f =(  0.0000000 )
                  (  0.0000000  0.0000000  1.0000000 )       ( -0.5000000 )
                  ( -1.0000000  0.0000000  0.0000000 )       (  0.5000000 )


      isym =  7     120 deg rotation - cart. axis [1,1,-1]       

 cryst.   s( 7) = (     0          0         -1      )    f =(  0.5000000 )
                  (     1          0          0      )       (  0.5000000 )
                  (     0         -1          0      )       (  0.0000000 )

 cart.    s( 7) = (  0.0000000  1.0000000  0.0000000 )    f =(  0.5000000 )
                  (  0.0000000  0.0000000 -1.0000000 )       (  0.5000000 )
                  ( -1.0000000  0.0000000  0.0000000 )       (  0.0000000 )


      isym =  8     120 deg rotation - cart. axis [1,-1,1]       

 cryst.   s( 8) = (     0          0          1      )    f =(  0.5000000 )
                  (    -1          0          0      )       (  0.0000000 )
                  (     0         -1          0      )       ( -0.5000000 )

 cart.    s( 8) = (  0.0000000 -1.0000000  0.0000000 )    f =(  0.5000000 )
                  (  0.0000000  0.0000000 -1.0000000 )       (  0.0000000 )
                  (  1.0000000  0.0000000  0.0000000 )       ( -0.5000000 )


      isym =  9     120 deg rotation - cart. axis [1,1,1]        

 cryst.   s( 9) = (     0          1          0      )
                  (     0          0          1      )
                  (     1          0          0      )

 cart.    s( 9) = (  0.0000000  0.0000000  1.0000000 )
                  (  1.0000000  0.0000000  0.0000000 )
                  (  0.0000000  1.0000000  0.0000000 )


      isym = 10     120 deg rotation - cart. axis [-1,1,-1]      

 cryst.   s(10) = (     0         -1          0      )    f =(  0.5000000 )
                  (     0          0         -1      )       (  0.5000000 )
                  (     1          0          0      )       (  0.0000000 )

 cart.    s(10) = (  0.0000000  0.0000000  1.0000000 )    f =(  0.5000000 )
                  ( -1.0000000  0.0000000  0.0000000 )       (  0.5000000 )
                  (  0.0000000 -1.0000000  0.0000000 )       (  0.0000000 )


      isym = 11     120 deg rotation - cart. axis [1,-1,-1]      

 cryst.   s(11) = (     0         -1          0      )    f =(  0.5000000 )
                  (     0          0          1      )       (  0.0000000 )
                  (    -1          0          0      )       ( -0.5000000 )

 cart.    s(11) = (  0.0000000  0.0000000 -1.0000000 )    f =(  0.5000000 )
                  ( -1.0000000  0.0000000  0.0000000 )       (  0.0000000 )
                  (  0.0000000  1.0000000  0.0000000 )       ( -0.5000000 )


      isym = 12     120 deg rotation - cart. axis [-1,-1,1]      

 cryst.   s(12) = (     0          1          0      )    f =(  0.0000000 )
                  (     0          0         -1      )       ( -0.5000000 )
                  (    -1          0          0      )       (  0.5000000 )

 cart.    s(12) = (  0.0000000  0.0000000 -1.0000000 )    f =(  0.0000000 )
                  (  1.0000000  0.0000000  0.0000000 )       ( -0.5000000 )
                  (  0.0000000 -1.0000000  0.0000000 )       (  0.5000000 )


   Cartesian axes

     site n.     atom                  positions (alat units)
         1           Cr  tau(   1) = (   0.8640000   0.3640000   0.1360000  )
         2           Cr  tau(   2) = (   0.3640000   0.1360000   0.8640000  )
         3           Cr  tau(   3) = (   0.1360000   0.8640000   0.3640000  )
         4           Cr  tau(   4) = (   0.6360000   0.6360000   0.6360000  )
         5           Si  tau(   5) = (   0.1540000   0.6540000   0.8460000  )
         6           Si  tau(   6) = (   0.6540000   0.8460000   0.1540000  )
         7           Si  tau(   7) = (   0.8460000   0.1540000   0.6540000  )
         8           Si  tau(   8) = (   0.3460000   0.3460000   0.3460000  )

   Crystallographic axes

     site n.     atom                  positions (cryst. coord.)
         1           Cr  tau(   1) = (  0.8640000  0.3640000  0.1360000  )
         2           Cr  tau(   2) = (  0.3640000  0.1360000  0.8640000  )
         3           Cr  tau(   3) = (  0.1360000  0.8640000  0.3640000  )
         4           Cr  tau(   4) = (  0.6360000  0.6360000  0.6360000  )
         5           Si  tau(   5) = (  0.1540000  0.6540000  0.8460000  )
         6           Si  tau(   6) = (  0.6540000  0.8460000  0.1540000  )
         7           Si  tau(   7) = (  0.8460000  0.1540000  0.6540000  )
         8           Si  tau(   8) = (  0.3460000  0.3460000  0.3460000  )

     number of k points=    45  Methfessel-Paxton smearing, width (Ry)=  0.0160
                       cart. coord. in units 2pi/alat
        k(    1) = (   0.0000000   0.0000000   0.0000000), wk =   0.0019531
        k(    2) = (   0.0000000   0.0000000   0.1250000), wk =   0.0117188
        k(    3) = (   0.0000000   0.0000000   0.2500000), wk =   0.0117188
        k(    4) = (   0.0000000   0.0000000   0.3750000), wk =   0.0117188
        k(    5) = (   0.0000000   0.0000000  -0.5000000), wk =   0.0058594
        k(    6) = (   0.0000000   0.1250000   0.1250000), wk =   0.0234375
        k(    7) = (   0.0000000   0.1250000   0.2500000), wk =   0.0234375
        k(    8) = (   0.0000000   0.1250000   0.3750000), wk =   0.0234375
        k(    9) = (   0.0000000   0.1250000  -0.5000000), wk =   0.0117188
        k(   10) = (   0.0000000   0.2500000   0.2500000), wk =   0.0234375
        k(   11) = (   0.0000000   0.2500000   0.3750000), wk =   0.0234375
        k(   12) = (   0.0000000   0.2500000  -0.5000000), wk =   0.0117188
        k(   13) = (   0.0000000   0.3750000   0.3750000), wk =   0.0234375
        k(   14) = (   0.0000000   0.3750000  -0.5000000), wk =   0.0117188
        k(   15) = (   0.0000000  -0.5000000  -0.5000000), wk =   0.0058594
        k(   16) = (   0.1250000   0.1250000   0.1250000), wk =   0.0156250
        k(   17) = (   0.1250000   0.1250000   0.2500000), wk =   0.0468750
        k(   18) = (   0.1250000   0.1250000   0.3750000), wk =   0.0468750
        k(   19) = (   0.1250000   0.1250000  -0.5000000), wk =   0.0234375
        k(   20) = (   0.1250000   0.2500000   0.2500000), wk =   0.0468750
        k(   21) = (   0.1250000   0.2500000   0.3750000), wk =   0.0468750
        k(   22) = (   0.1250000   0.2500000  -0.5000000), wk =   0.0234375
        k(   23) = (   0.1250000   0.3750000   0.3750000), wk =   0.0468750
        k(   24) = (   0.1250000   0.3750000  -0.5000000), wk =   0.0234375
        k(   25) = (   0.1250000  -0.5000000  -0.5000000), wk =   0.0117188
        k(   26) = (   0.2500000   0.2500000   0.2500000), wk =   0.0156250
        k(   27) = (   0.2500000   0.2500000   0.3750000), wk =   0.0468750
        k(   28) = (   0.2500000   0.2500000  -0.5000000), wk =   0.0234375
        k(   29) = (   0.2500000   0.3750000   0.3750000), wk =   0.0468750
        k(   30) = (   0.2500000   0.3750000  -0.5000000), wk =   0.0234375
        k(   31) = (   0.2500000  -0.5000000  -0.5000000), wk =   0.0117188
        k(   32) = (   0.3750000   0.3750000   0.3750000), wk =   0.0156250
        k(   33) = (   0.3750000   0.3750000  -0.5000000), wk =   0.0234375
        k(   34) = (   0.3750000  -0.5000000  -0.5000000), wk =   0.0117188
        k(   35) = (  -0.5000000  -0.5000000  -0.5000000), wk =   0.0019531
        k(   36) = (   0.0000000   0.2500000   0.1250000), wk =   0.0234375
        k(   37) = (   0.0000000   0.3750000   0.1250000), wk =   0.0234375
        k(   38) = (   0.0000000  -0.5000000   0.1250000), wk =   0.0117188
        k(   39) = (   0.0000000   0.3750000   0.2500000), wk =   0.0234375
        k(   40) = (   0.0000000  -0.5000000   0.2500000), wk =   0.0117188
        k(   41) = (   0.0000000  -0.5000000   0.3750000), wk =   0.0117188
        k(   42) = (  -0.1250000   0.3750000   0.2500000), wk =   0.0468750
        k(   43) = (  -0.1250000  -0.5000000   0.2500000), wk =   0.0234375
        k(   44) = (  -0.1250000  -0.5000000   0.3750000), wk =   0.0234375
        k(   45) = (  -0.2500000  -0.5000000   0.3750000), wk =   0.0234375

                       cryst. coord.
        k(    1) = (   0.0000000   0.0000000   0.0000000), wk =   0.0019531
        k(    2) = (   0.0000000   0.0000000   0.1250000), wk =   0.0117188
        k(    3) = (   0.0000000   0.0000000   0.2500000), wk =   0.0117188
        k(    4) = (   0.0000000   0.0000000   0.3750000), wk =   0.0117188
        k(    5) = (   0.0000000   0.0000000  -0.5000000), wk =   0.0058594
        k(    6) = (   0.0000000   0.1250000   0.1250000), wk =   0.0234375
        k(    7) = (   0.0000000   0.1250000   0.2500000), wk =   0.0234375
        k(    8) = (   0.0000000   0.1250000   0.3750000), wk =   0.0234375
        k(    9) = (   0.0000000   0.1250000  -0.5000000), wk =   0.0117188
        k(   10) = (   0.0000000   0.2500000   0.2500000), wk =   0.0234375
        k(   11) = (   0.0000000   0.2500000   0.3750000), wk =   0.0234375
        k(   12) = (   0.0000000   0.2500000  -0.5000000), wk =   0.0117188
        k(   13) = (   0.0000000   0.3750000   0.3750000), wk =   0.0234375
        k(   14) = (   0.0000000   0.3750000  -0.5000000), wk =   0.0117188
        k(   15) = (   0.0000000  -0.5000000  -0.5000000), wk =   0.0058594
        k(   16) = (   0.1250000   0.1250000   0.1250000), wk =   0.0156250
        k(   17) = (   0.1250000   0.1250000   0.2500000), wk =   0.0468750
        k(   18) = (   0.1250000   0.1250000   0.3750000), wk =   0.0468750
        k(   19) = (   0.1250000   0.1250000  -0.5000000), wk =   0.0234375
        k(   20) = (   0.1250000   0.2500000   0.2500000), wk =   0.0468750
        k(   21) = (   0.1250000   0.2500000   0.3750000), wk =   0.0468750
        k(   22) = (   0.1250000   0.2500000  -0.5000000), wk =   0.0234375
        k(   23) = (   0.1250000   0.3750000   0.3750000), wk =   0.0468750
        k(   24) = (   0.1250000   0.3750000  -0.5000000), wk =   0.0234375
        k(   25) = (   0.1250000  -0.5000000  -0.5000000), wk =   0.0117188
        k(   26) = (   0.2500000   0.2500000   0.2500000), wk =   0.0156250
        k(   27) = (   0.2500000   0.2500000   0.3750000), wk =   0.0468750
        k(   28) = (   0.2500000   0.2500000  -0.5000000), wk =   0.0234375
        k(   29) = (   0.2500000   0.3750000   0.3750000), wk =   0.0468750
        k(   30) = (   0.2500000   0.3750000  -0.5000000), wk =   0.0234375
        k(   31) = (   0.2500000  -0.5000000  -0.5000000), wk =   0.0117188
        k(   32) = (   0.3750000   0.3750000   0.3750000), wk =   0.0156250
        k(   33) = (   0.3750000   0.3750000  -0.5000000), wk =   0.0234375
        k(   34) = (   0.3750000  -0.5000000  -0.5000000), wk =   0.0117188
        k(   35) = (  -0.5000000  -0.5000000  -0.5000000), wk =   0.0019531
        k(   36) = (   0.0000000   0.2500000   0.1250000), wk =   0.0234375
        k(   37) = (   0.0000000   0.3750000   0.1250000), wk =   0.0234375
        k(   38) = (   0.0000000  -0.5000000   0.1250000), wk =   0.0117188
        k(   39) = (   0.0000000   0.3750000   0.2500000), wk =   0.0234375
        k(   40) = (   0.0000000  -0.5000000   0.2500000), wk =   0.0117188
        k(   41) = (   0.0000000  -0.5000000   0.3750000), wk =   0.0117188
        k(   42) = (  -0.1250000   0.3750000   0.2500000), wk =   0.0468750
        k(   43) = (  -0.1250000  -0.5000000   0.2500000), wk =   0.0234375
        k(   44) = (  -0.1250000  -0.5000000   0.3750000), wk =   0.0234375
        k(   45) = (  -0.2500000  -0.5000000   0.3750000), wk =   0.0234375

     Dense  grid:   304867 G-vectors     FFT dimensions: (  90,  90,  90)

     Smooth grid:    77053 G-vectors     FFT dimensions: (  54,  54,  54)

     Dynamical RAM for                 wfc:       1.06 MB

     Dynamical RAM for     wfc (w. buffer):      48.53 MB

     Dynamical RAM for           str. fact:       0.39 MB

     Dynamical RAM for           local pot:       0.00 MB

     Dynamical RAM for          nlocal pot:       1.67 MB

     Dynamical RAM for                qrad:      12.61 MB

     Dynamical RAM for          rho,v,vnew:       5.29 MB

     Dynamical RAM for               rhoin:       1.76 MB

     Dynamical RAM for            rho*nmix:      12.41 MB

     Dynamical RAM for           G-vectors:       0.75 MB

     Dynamical RAM for          h,s,v(r/c):       1.35 MB

     Dynamical RAM for          <psi|beta>:       0.71 MB

     Dynamical RAM for                 psi:       2.11 MB

     Dynamical RAM for                hpsi:       2.11 MB

     Dynamical RAM for                spsi:       2.11 MB

     Dynamical RAM for      wfcinit/wfcrot:       2.35 MB

     Dynamical RAM for           addusdens:     119.02 MB

     Dynamical RAM for          addusforce:     120.34 MB

     Dynamical RAM for         addusstress:     121.74 MB

     Estimated static dynamical RAM per process >      85.97 MB

     Estimated max dynamical RAM per process >     207.70 MB

     Estimated total dynamical RAM >       4.87 GB

     Initial potential from superposition of free atoms

     starting charge   71.99469, renormalised to   72.00000
     Starting wfcs are  112 randomized atomic wfcs
     Checking if some PAW data can be deallocated... 
       PAW data deallocated on   12 nodes for type:  1
       PAW data deallocated on   12 nodes for type:  2

     total cpu time spent up to now is       14.5 secs

     Self-consistent Calculation

     iteration #  1     ecut=    90.00 Ry     beta= 0.70
     Davidson diagonalization with overlap
     ethr =  1.00E-02,  avg # of iterations =  2.0

     Threshold (ethr) on eigenvalues was too large:
     Diagonalizing with lowered threshold

     Davidson diagonalization with overlap
     ethr =  2.09E-04,  avg # of iterations =  4.3

     total cpu time spent up to now is       80.1 secs

     total energy              =   -1180.30973988 Ry
     estimated scf accuracy    <       0.18946036 Ry

     iteration #  2     ecut=    90.00 Ry     beta= 0.70
     Davidson diagonalization with overlap
     ethr =  2.63E-04,  avg # of iterations =  3.2

     total cpu time spent up to now is      113.7 secs

     total energy              =   -1180.31395882 Ry
     estimated scf accuracy    <       0.08331376 Ry

     iteration #  3     ecut=    90.00 Ry     beta= 0.70
     Davidson diagonalization with overlap
     ethr =  1.16E-04,  avg # of iterations =  5.0

     total cpu time spent up to now is      154.2 secs

     total energy              =   -1180.32584586 Ry
     estimated scf accuracy    <       0.16439049 Ry

     iteration #  4     ecut=    90.00 Ry     beta= 0.70
     Davidson diagonalization with overlap
     ethr =  1.16E-04,  avg # of iterations =  4.1

     total cpu time spent up to now is      186.9 secs

     total energy              =   -1180.34988001 Ry
     estimated scf accuracy    <       0.00027979 Ry

     iteration #  5     ecut=    90.00 Ry     beta= 0.70
     Davidson diagonalization with overlap
     ethr =  3.89E-07,  avg # of iterations =  8.5

     total cpu time spent up to now is      238.4 secs

     total energy              =   -1180.35051240 Ry
     estimated scf accuracy    <       0.00036593 Ry

     iteration #  6     ecut=    90.00 Ry     beta= 0.70
     Davidson diagonalization with overlap
     ethr =  3.89E-07,  avg # of iterations =  3.5

     total cpu time spent up to now is      268.7 secs

     End of self-consistent calculation

          k = 0.0000 0.0000 0.0000 (  9771 PWs)   bands (ev):

   -56.5100 -56.5100 -56.4753 -56.4753 -56.4753 -56.4753 -56.4753 -56.4753
   -28.5756 -28.5756 -28.5680 -28.5680 -28.5680 -28.5680 -28.4787 -28.4787
   -27.6104 -27.6104 -27.6104 -27.6104 -27.5336 -27.5336 -27.5336 -27.5336
   -27.5278 -27.5278 -27.4455 -27.4455 -27.4455 -27.4455 -27.4452 -27.4452
     2.6979   2.6979   7.4563   7.4563   7.4563   7.4563   7.4654   7.4654
    10.5372  10.5372  10.5451  10.5451  10.5451  10.5451  11.9123  11.9123
    11.9123  11.9123  11.9234  11.9234  12.6048  12.6048  12.7735  12.7735
    12.7735  12.7735  13.1463  13.1463  13.1463  13.1463  13.1474  13.1474
    13.6737  13.6737  13.6737  13.6737  13.6775  13.6775  15.5552  15.5552
    15.5865  15.5865  15.5865  15.5865  15.7700  15.7700  15.7700  15.7700
    16.6694  16.6694  16.6997  16.6997  16.6997  16.6997

     occupation numbers 
     1.0000   1.0000   1.0000   1.0000   1.0000   1.0000   1.0000   1.0000
     1.0000   1.0000   1.0000   1.0000   1.0000   1.0000   1.0000   1.0000
     1.0000   1.0000   1.0000   1.0000   1.0000   1.0000   1.0000   1.0000
     1.0000   1.0000   1.0000   1.0000   1.0000   1.0000   1.0000   1.0000
     1.0000   1.0000   1.0000   1.0000   1.0000   1.0000   1.0000   1.0000
     1.0000   1.0000   1.0000   1.0000   1.0000   1.0000   1.0000   1.0000
     1.0000   1.0000   1.0000   1.0000   1.0000   1.0000   1.0000   1.0000
     1.0000   1.0000   1.0000   1.0000   1.0000   1.0000   1.0000   1.0000
     1.0000   1.0000   1.0000   1.0000   1.0000   1.0000  -0.0004  -0.0004
    -0.0002  -0.0002  -0.0002  -0.0002  -0.0000  -0.0000  -0.0000  -0.0000
    -0.0000  -0.0000  -0.0000  -0.0000  -0.0000  -0.0000

          k = 0.0000 0.0000 0.1250 (  9667 PWs)   bands (ev):

   -56.5090 -56.5090 -56.4793 -56.4793 -56.4750 -56.4750 -56.4726 -56.4726
   -28.5818 -28.5747 -28.5717 -28.5711 -28.5613 -28.5582 -28.4815 -28.4815
   -27.6237 -27.6171 -27.6010 -27.5945 -27.5426 -27.5392 -27.5350 -27.5281
   -27.5265 -27.5155 -27.4532 -27.4515 -27.4491 -27.4440 -27.4432 -27.4390
     2.8063   2.8063   6.7946   6.7978   7.5174   7.5189   7.9722   7.9809
    10.0753  10.0804  10.6136  10.6152  11.0396  11.0414  11.3206  11.3207
    11.6511  11.6549  12.5314  12.5380  12.5624  12.5806  12.7810  12.7882
    12.9249  12.9262  13.1166  13.1186  13.1813  13.1817  13.2123  13.2127
    13.5240  13.5316  13.6552  13.6567  13.9018  13.9020  15.4015  15.4197
    15.4486  15.4583  15.7268  15.7300  15.7430  15.7577  15.7696  15.7750
    16.4780  16.4950  16.6378  16.6426  16.8995  16.9201

     occupation numbers 
     1.0000   1.0000   1.0000   1.0000   1.0000   1.0000   1.0000   1.0000
     1.0000   1.0000   1.0000   1.0000   1.0000   1.0000   1.0000   1.0000
     1.0000   1.0000   1.0000   1.0000   1.0000   1.0000   1.0000   1.0000
     1.0000   1.0000   1.0000   1.0000   1.0000   1.0000   1.0000   1.0000
     1.0000   1.0000   1.0000   1.0000   1.0000   1.0000   1.0000   1.0000
     1.0000   1.0000   1.0000   1.0000   1.0000   1.0000   1.0000   1.0000
     1.0000   1.0000   1.0000   1.0000   1.0000   1.0000   1.0000   1.0000
     1.0000   1.0000   1.0000   1.0000   1.0000   1.0000   1.0000   1.0000
     1.0000   1.0000   1.0000   1.0000   1.0000   1.0000  -0.0070  -0.0053
    -0.0032  -0.0027  -0.0000  -0.0000  -0.0000  -0.0000  -0.0000  -0.0000
    -0.0000  -0.0000  -0.0000  -0.0000  -0.0000  -0.0000

          k = 0.0000 0.0000 0.2500 (  9618 PWs)   bands (ev):

   -56.5061 -56.5061 -56.4844 -56.4844 -56.4741 -56.4741 -56.4712 -56.4712
   -28.5853 -28.5783 -28.5750 -28.5726 -28.5486 -28.5456 -28.4897 -28.4895
   -27.6322 -27.6231 -27.5881 -27.5808 -27.5523 -27.5409 -27.5324 -27.5285
   -27.5230 -27.5011 -27.4637 -27.4571 -27.4550 -27.4449 -27.4426 -27.4359
     3.1264   3.1264   5.9911   5.9925   7.6890   7.6920   8.3698   8.3799
     9.7442   9.7455  10.7563  10.7615  10.8658  10.8746  11.1955  11.2029
    11.5692  11.5699  12.2668  12.2817  12.8679  12.8745  12.9135  12.9353
    13.1235  13.1273  13.1318  13.1370  13.2541  13.2547  13.2845  13.2885
    13.5456  13.5489  13.7003  13.7078  14.0486  14.0492  15.0765  15.1051
    15.3841  15.3847  15.6211  15.6363  15.7435  15.7678  15.8549  15.8788
    16.2894  16.3041  16.4974  16.5089  17.1902  17.2108

     occupation numbers 
     1.0000   1.0000   1.0000   1.0000   1.0000   1.0000   1.0000   1.0000
     1.0000   1.0000   1.0000   1.0000   1.0000   1.0000   1.0000   1.0000
     1.0000   1.0000   1.0000   1.0000   1.0000   1.0000   1.0000   1.0000
     1.0000   1.0000   1.0000   1.0000   1.0000   1.0000   1.0000   1.0000
     1.0000   1.0000   1.0000   1.0000   1.0000   1.0000   1.0000   1.0000
     1.0000   1.0000   1.0000   1.0000   1.0000   1.0000   1.0000   1.0000
     1.0000   1.0000   1.0000   1.0000   1.0000   1.0000   1.0000   1.0000
     1.0000   1.0000   1.0000   1.0000   1.0000   1.0000   1.0000   1.0000
     1.0000   1.0000   1.0000   1.0000   1.0000   1.0000   0.1051   0.0478
    -0.0091  -0.0090  -0.0001  -0.0000  -0.0000  -0.0000  -0.0000  -0.0000
    -0.0000  -0.0000  -0.0000  -0.0000  -0.0000  -0.0000

          k = 0.0000 0.0000 0.3750 (  9662 PWs)   bands (ev):

   -56.5017 -56.5017 -56.4902 -56.4902 -56.4729 -56.4729 -56.4711 -56.4711
   -28.5857 -28.5795 -28.5790 -28.5751 -28.5334 -28.5311 -28.5022 -28.5015
   -27.6354 -27.6290 -27.5748 -27.5700 -27.5609 -27.5378 -27.5373 -27.5247
   -27.5185 -27.4868 -27.4798 -27.4632 -27.4566 -27.4479 -27.4413 -27.4362
     3.6430   3.6430   5.1349   5.1355   7.9588   7.9634   8.5099   8.5188
     9.6769   9.6797  10.5125  10.5131  10.7722  10.7854  11.0296  11.0315
    12.0063  12.0085  12.1221  12.1368  12.7694  12.7848  12.9450  12.9578
    13.0819  13.0894  13.1886  13.1926  13.2483  13.2514  13.3274  13.3309
    13.5425  13.5430  13.9339  13.9383  14.2228  14.2362  14.8160  14.8509
    15.3611  15.3728  15.5009  15.5199  15.7577  15.7871  15.8499  15.8751
    16.1690  16.1849  16.3121  16.3260  17.3541  17.3648

     occupation numbers 
     1.0000   1.0000   1.0000   1.0000   1.0000   1.0000   1.0000   1.0000
     1.0000   1.0000   1.0000   1.0000   1.0000   1.0000   1.0000   1.0000
     1.0000   1.0000   1.0000   1.0000   1.0000   1.0000   1.0000   1.0000
     1.0000   1.0000   1.0000   1.0000   1.0000   1.0000   1.0000   1.0000
     1.0000   1.0000   1.0000   1.0000   1.0000   1.0000   1.0000   1.0000
     1.0000   1.0000   1.0000   1.0000   1.0000   1.0000   1.0000   1.0000
     1.0000   1.0000   1.0000   1.0000   1.0000   1.0000   1.0000   1.0000
     1.0000   1.0000   1.0000   1.0000   1.0000   1.0000   1.0000   1.0000
     1.0000   1.0000   1.0000   1.0000   1.0000   1.0000   0.9410   0.8640
    -0.0124  -0.0106  -0.0012  -0.0008  -0.0000  -0.0000  -0.0000  -0.0000
    -0.0000  -0.0000  -0.0000  -0.0000  -0.0000  -0.0000

          k = 0.0000 0.0000-0.5000 (  9658 PWs)   bands (ev):

   -56.4962 -56.4962 -56.4962 -56.4962 -56.4717 -56.4717 -56.4717 -56.4717
   -28.5834 -28.5834 -28.5776 -28.5776 -28.5174 -28.5174 -28.5159 -28.5159
   -27.6338 -27.6338 -27.5681 -27.5681 -27.5533 -27.5533 -27.5307 -27.5307
   -27.4991 -27.4991 -27.4739 -27.4739 -27.4524 -27.4524 -27.4386 -27.4386
     4.3279   4.3279   4.3280   4.3281   8.2823   8.2823   8.2887   8.2887
    10.0170  10.0170  10.0210  10.0210  10.8979  10.8979  10.9091  10.9091
    12.2487  12.2487  12.2553  12.2553  12.6862  12.6862  12.6987  12.6987
    13.1445  13.1445  13.1449  13.1449  13.2399  13.2399  13.2435  13.2435
    13.7850  13.7850  13.7882  13.7882  14.5687  14.5687  14.5972  14.5972
    15.4052  15.4052  15.4230  15.4230  15.8097  15.8097  15.8394  15.8394
    16.1698  16.1699  16.1835  16.1836  17.5458  17.5508

     occupation numbers 
     1.0000   1.0000   1.0000   1.0000   1.0000   1.0000   1.0000   1.0000
     1.0000   1.0000   1.0000   1.0000   1.0000   1.0000   1.0000   1.0000
     1.0000   1.0000   1.0000   1.0000   1.0000   1.0000   1.0000   1.0000
     1.0000   1.0000   1.0000   1.0000   1.0000   1.0000   1.0000   1.0000
     1.0000   1.0000   1.0000   1.0000   1.0000   1.0000   1.0000   1.0000
     1.0000   1.0000   1.0000   1.0000   1.0000   1.0000   1.0000   1.0000
     1.0000   1.0000   1.0000   1.0000   1.0000   1.0000   1.0000   1.0000
     1.0000   1.0000   1.0000   1.0000   1.0000   1.0000   1.0000   1.0000
     1.0000   1.0000   1.0000   1.0000   1.0150   1.0150   1.0206   1.0206
    -0.0066  -0.0066  -0.0050  -0.0050  -0.0000  -0.0000  -0.0000  -0.0000
    -0.0000  -0.0000  -0.0000  -0.0000  -0.0000  -0.0000

          k = 0.0000 0.1250 0.1250 (  9657 PWs)   bands (ev):

   -56.5080 -56.5080 -56.4808 -56.4808 -56.4753 -56.4753 -56.4717 -56.4717
   -28.5838 -28.5775 -28.5704 -28.5698 -28.5585 -28.5545 -28.4843 -28.4842
   -27.6255 -27.6217 -27.5940 -27.5900 -27.5451 -27.5407 -27.5374 -27.5324
   -27.5199 -27.5089 -27.4582 -27.4567 -27.4506 -27.4449 -27.4402 -27.4364
     2.9138   2.9139   6.6446   6.6495   7.3147   7.3186   8.2189   8.2247
     9.9477   9.9526  10.6671  10.6731  10.8543  10.8590  11.2395  11.2427
    11.8054  11.8065  12.4448  12.4560  12.5960  12.6038  12.9040  12.9102
    13.0120  13.0212  13.1634  13.1644  13.1686  13.1734  13.2703  13.2722
    13.4664  13.4727  13.6800  13.6914  13.9966  14.0020  15.3489  15.3612
    15.3965  15.4059  15.6283  15.6377  15.7283  15.7445  15.7972  15.8185
    16.3778  16.3960  16.6503  16.6576  16.9417  16.9710

     occupation numbers 
     1.0000   1.0000   1.0000   1.0000   1.0000   1.0000   1.0000   1.0000
     1.0000   1.0000   1.0000   1.0000   1.0000   1.0000   1.0000   1.0000
     1.0000   1.0000   1.0000   1.0000   1.0000   1.0000   1.0000   1.0000
     1.0000   1.0000   1.0000   1.0000   1.0000   1.0000   1.0000   1.0000
     1.0000   1.0000   1.0000   1.0000   1.0000   1.0000   1.0000   1.0000
     1.0000   1.0000   1.0000   1.0000   1.0000   1.0000   1.0000   1.0000
     1.0000   1.0000   1.0000   1.0000   1.0000   1.0000   1.0000   1.0000
     1.0000   1.0000   1.0000   1.0000   1.0000   1.0000   1.0000   1.0000
     1.0000   1.0000   1.0000   1.0000   1.0000   1.0000  -0.0145  -0.0124
    -0.0076  -0.0065  -0.0001  -0.0000  -0.0000  -0.0000  -0.0000  -0.0000
    -0.0000  -0.0000  -0.0000  -0.0000  -0.0000  -0.0000

          k = 0.0000 0.1250 0.2500 (  9633 PWs)   bands (ev):

   -56.5052 -56.5052 -56.4848 -56.4848 -56.4747 -56.4747 -56.4710 -56.4710
   -28.5856 -28.5796 -28.5723 -28.5709 -28.5482 -28.5449 -28.4922 -28.4921
   -27.6308 -27.6243 -27.5844 -27.5790 -27.5518 -27.5430 -27.5363 -27.5322
   -27.5175 -27.4966 -27.4701 -27.4617 -27.4551 -27.4473 -27.4378 -27.4331
     3.2316   3.2317   6.0258   6.0283   7.3756   7.3783   8.4792   8.4843
     9.7446   9.7461  10.4123  10.4160  10.8575  10.8583  11.4951  11.5004
    11.5890  11.5906  12.3120  12.3219  12.6401  12.6427  13.0366  13.0441
    13.0759  13.0871  13.2058  13.2118  13.2838  13.2851  13.3832  13.3874
    13.5225  13.5289  13.8073  13.8226  14.1028  14.1099  15.0925  15.1195
    15.3018  15.3168  15.5117  15.5263  15.6937  15.7157  15.8426  15.8681
    16.2277  16.2429  16.5313  16.5435  17.1548  17.1885

     occupation numbers 
     1.0000   1.0000   1.0000   1.0000   1.0000   1.0000   1.0000   1.0000
     1.0000   1.0000   1.0000   1.0000   1.0000   1.0000   1.0000   1.0000
     1.0000   1.0000   1.0000   1.0000   1.0000   1.0000   1.0000   1.0000
     1.0000   1.0000   1.0000   1.0000   1.0000   1.0000   1.0000   1.0000
     1.0000   1.0000   1.0000   1.0000   1.0000   1.0000   1.0000   1.0000
     1.0000   1.0000   1.0000   1.0000   1.0000   1.0000   1.0000   1.0000
     1.0000   1.0000   1.0000   1.0000   1.0000   1.0000   1.0000   1.0000
     1.0000   1.0000   1.0000   1.0000   1.0000   1.0000   1.0000   1.0000
     1.0000   1.0000   1.0000   1.0000   1.0000   1.0000   0.0709   0.0255
    -0.0239  -0.0207  -0.0009  -0.0007  -0.0000  -0.0000  -0.0000  -0.0000
    -0.0000  -0.0000  -0.0000  -0.0000  -0.0000  -0.0000

          k = 0.0000 0.1250 0.3750 (  9657 PWs)   bands (ev):

   -56.5010 -56.5010 -56.4901 -56.4901 -56.4735 -56.4735 -56.4713 -56.4713
   -28.5849 -28.5799 -28.5764 -28.5735 -28.5342 -28.5319 -28.5043 -28.5037
   -27.6330 -27.6277 -27.5745 -27.5683 -27.5602 -27.5426 -27.5368 -27.5245
   -27.5196 -27.4873 -27.4823 -27.4649 -27.4583 -27.4515 -27.4357 -27.4324
     3.7438   3.7440   5.2129   5.2139   7.6673   7.6692   8.4239   8.4276
     9.7360   9.7393  10.2161  10.2201  11.0146  11.0206  11.1798  11.1937
    11.8679  11.8732  12.1826  12.1923  12.6405  12.6470  12.8684  12.8784
    13.0678  13.0741  13.2740  13.2788  13.3371  13.3391  13.4498  13.4527
    13.6044  13.6112  13.9702  13.9770  14.2935  14.3106  14.8283  14.8619
    15.2835  15.2993  15.3839  15.3963  15.6975  15.7237  15.8296  15.8590
    16.1513  16.1599  16.3628  16.3763  17.3070  17.3307

     occupation numbers 
     1.0000   1.0000   1.0000   1.0000   1.0000   1.0000   1.0000   1.0000
     1.0000   1.0000   1.0000   1.0000   1.0000   1.0000   1.0000   1.0000
     1.0000   1.0000   1.0000   1.0000   1.0000   1.0000   1.0000   1.0000
     1.0000   1.0000   1.0000   1.0000   1.0000   1.0000   1.0000   1.0000
     1.0000   1.0000   1.0000   1.0000   1.0000   1.0000   1.0000   1.0000
     1.0000   1.0000   1.0000   1.0000   1.0000   1.0000   1.0000   1.0000
     1.0000   1.0000   1.0000   1.0000   1.0000   1.0000   1.0000   1.0000
     1.0000   1.0000   1.0000   1.0000   1.0000   1.0000   1.0000   1.0000
     1.0000   1.0000   1.0000   1.0000   1.0001   1.0001   0.9169   0.8346
    -0.0277  -0.0244  -0.0091  -0.0076  -0.0000  -0.0000  -0.0000  -0.0000
    -0.0000  -0.0000  -0.0000  -0.0000  -0.0000  -0.0000

          k = 0.0000 0.1250-0.5000 (  9664 PWs)   bands (ev):

   -56.4957 -56.4957 -56.4957 -56.4957 -56.4722 -56.4722 -56.4722 -56.4722
   -28.5821 -28.5821 -28.5764 -28.5764 -28.5193 -28.5193 -28.5171 -28.5171
   -27.6314 -27.6314 -27.5678 -27.5678 -27.5540 -27.5540 -27.5303 -27.5303
   -27.5041 -27.5041 -27.4724 -27.4724 -27.4559 -27.4559 -27.4337 -27.4337
     4.4211   4.4211   4.4216   4.4216   8.0582   8.0582   8.0651   8.0651
     9.9961   9.9961  10.0005  10.0005  11.0364  11.0364  11.0506  11.0506
    12.1488  12.1488  12.1542  12.1542  12.5990  12.5990  12.6153  12.6153
    13.2293  13.2293  13.2318  13.2318  13.3353  13.3353  13.3366  13.3366
    13.8319  13.8319  13.8355  13.8355  14.6020  14.6020  14.6324  14.6325
    15.3065  15.3065  15.3224  15.3224  15.7608  15.7608  15.7905  15.7906
    16.2092  16.2092  16.2202  16.2202  17.5227  17.5302

     occupation numbers 
     1.0000   1.0000   1.0000   1.0000   1.0000   1.0000   1.0000   1.0000
     1.0000   1.0000   1.0000   1.0000   1.0000   1.0000   1.0000   1.0000
     1.0000   1.0000   1.0000   1.0000   1.0000   1.0000   1.0000   1.0000
     1.0000   1.0000   1.0000   1.0000   1.0000   1.0000   1.0000   1.0000
     1.0000   1.0000   1.0000   1.0000   1.0000   1.0000   1.0000   1.0000
     1.0000   1.0000   1.0000   1.0000   1.0000   1.0000   1.0000   1.0000
     1.0000   1.0000   1.0000   1.0000   1.0000   1.0000   1.0000   1.0000
     1.0000   1.0000   1.0000   1.0000   1.0000   1.0000   1.0000   1.0000
     1.0000   1.0000   1.0000   1.0000   1.0216   1.0216   1.0280   1.0280
    -0.0229  -0.0229  -0.0196  -0.0196  -0.0000  -0.0000  -0.0000  -0.0000
    -0.0000  -0.0000  -0.0000  -0.0000  -0.0000  -0.0000

          k = 0.0000 0.2500 0.2500 (  9661 PWs)   bands (ev):

   -56.5028 -56.5028 -56.4866 -56.4866 -56.4753 -56.4753 -56.4712 -56.4712
   -28.5849 -28.5798 -28.5701 -28.5693 -28.5446 -28.5413 -28.4995 -28.4991
   -27.6283 -27.6251 -27.5774 -27.5750 -27.5514 -27.5481 -27.5380 -27.5341
   -27.5141 -27.4909 -27.4800 -27.4698 -27.4604 -27.4436 -27.4337 -27.4297
     3.5419   3.5421   5.9643   5.9676   6.9406   6.9446   8.4360   8.4411
     9.7516   9.7548  10.1865  10.1916  10.9266  10.9291  11.3514  11.3524
    11.8604  11.8642  12.2875  12.2910  12.5073  12.5165  12.9057  12.9133
    13.1506  13.1599  13.2726  13.2821  13.4443  13.4458  13.5220  13.5313
    13.5732  13.5839  13.9871  13.9994  14.2222  14.2279  15.0495  15.0699
    15.1436  15.1683  15.2983  15.3097  15.6197  15.6449  15.7665  15.7953
    16.1637  16.1747  16.5160  16.5267  17.1887  17.2318

     occupation numbers 
     1.0000   1.0000   1.0000   1.0000   1.0000   1.0000   1.0000   1.0000
     1.0000   1.0000   1.0000   1.0000   1.0000   1.0000   1.0000   1.0000
     1.0000   1.0000   1.0000   1.0000   1.0000   1.0000   1.0000   1.0000
     1.0000   1.0000   1.0000   1.0000   1.0000   1.0000   1.0000   1.0000
     1.0000   1.0000   1.0000   1.0000   1.0000   1.0000   1.0000   1.0000
     1.0000   1.0000   1.0000   1.0000   1.0000   1.0000   1.0000   1.0000
     1.0000   1.0000   1.0000   1.0000   1.0000   1.0000   1.0000   1.0000
     1.0000   1.0000   1.0000   1.0000   1.0000   1.0000   1.0000   1.0000
     1.0000   1.0000   1.0000   1.0000   1.0000   1.0000   0.1748   0.1206
    -0.0029  -0.0216  -0.0246  -0.0222  -0.0001  -0.0000  -0.0000  -0.0000
    -0.0000  -0.0000  -0.0000  -0.0000  -0.0000  -0.0000

          k = 0.0000 0.2500 0.3750 (  9639 PWs)   bands (ev):

   -56.4990 -56.4990 -56.4901 -56.4901 -56.4747 -56.4747 -56.4720 -56.4720
   -28.5823 -28.5781 -28.5723 -28.5704 -28.5354 -28.5333 -28.5101 -28.5097
   -27.6265 -27.6237 -27.5761 -27.5689 -27.5566 -27.5461 -27.5360 -27.5275
   -27.5184 -27.4953 -27.4871 -27.4767 -27.4565 -27.4440 -27.4308 -27.4281
     4.0400   4.0404   5.4164   5.4182   7.0442   7.0474   8.0205   8.0239
     9.9170   9.9203  10.1873  10.1906  11.0289  11.0328  11.3808  11.3884
    11.8905  11.8924  12.0261  12.0303  12.4344  12.4454  12.6539  12.6639
    13.2377  13.2471  13.3320  13.3373  13.4413  13.4451  13.6560  13.6589
    13.7924  13.7959  14.0690  14.0785  14.4568  14.4821  14.8337  14.8606
    15.0754  15.0967  15.1515  15.1569  15.5808  15.6052  15.6835  15.7156
    16.2045  16.2114  16.4580  16.4684  17.1942  17.2230

     occupation numbers 
     1.0000   1.0000   1.0000   1.0000   1.0000   1.0000   1.0000   1.0000
     1.0000   1.0000   1.0000   1.0000   1.0000   1.0000   1.0000   1.0000
     1.0000   1.0000   1.0000   1.0000   1.0000   1.0000   1.0000   1.0000
     1.0000   1.0000   1.0000   1.0000   1.0000   1.0000   1.0000   1.0000
     1.0000   1.0000   1.0000   1.0000   1.0000   1.0000   1.0000   1.0000
     1.0000   1.0000   1.0000   1.0000   1.0000   1.0000   1.0000   1.0000
     1.0000   1.0000   1.0000   1.0000   1.0000   1.0000   1.0000   1.0000
     1.0000   1.0000   1.0000   1.0000   1.0000   1.0000   1.0000   1.0000
     1.0000   1.0000   1.0000   1.0000   1.0027   1.0042   0.9052   0.8382
     0.1076   0.0628  -0.0100  -0.0142  -0.0002  -0.0001  -0.0000  -0.0000
    -0.0000  -0.0000  -0.0000  -0.0000  -0.0000  -0.0000

          k = 0.0000 0.2500-0.5000 (  9686 PWs)   bands (ev):

   -56.4945 -56.4945 -56.4945 -56.4945 -56.4734 -56.4734 -56.4734 -56.4734
   -28.5784 -28.5784 -28.5732 -28.5732 -28.5239 -28.5239 -28.5208 -28.5208
   -27.6244 -27.6244 -27.5727 -27.5727 -27.5510 -27.5510 -27.5289 -27.5289
   -27.5114 -27.5114 -27.4828 -27.4828 -27.4491 -27.4491 -27.4287 -27.4287
     4.6908   4.6908   4.6918   4.6918   7.4831   7.4831   7.4892   7.4892
    10.1297  10.1297  10.1327  10.1327  11.2002  11.2002  11.2119  11.2119
    11.9565  11.9565  11.9585  11.9585  12.4198  12.4198  12.4323  12.4323
    13.3497  13.3497  13.3561  13.3561  13.5181  13.5181  13.5242  13.5242
    13.9898  13.9898  13.9954  13.9954  14.6575  14.6575  14.6880  14.6880
    15.0888  15.0888  15.1005  15.1005  15.6071  15.6071  15.6359  15.6359
    16.3366  16.3366  16.3476  16.3476  17.3619  17.3651

     occupation numbers 
     1.0000   1.0000   1.0000   1.0000   1.0000   1.0000   1.0000   1.0000
     1.0000   1.0000   1.0000   1.0000   1.0000   1.0000   1.0000   1.0000
     1.0000   1.0000   1.0000   1.0000   1.0000   1.0000   1.0000   1.0000
     1.0000   1.0000   1.0000   1.0000   1.0000   1.0000   1.0000   1.0000
     1.0000   1.0000   1.0000   1.0000   1.0000   1.0000   1.0000   1.0000
     1.0000   1.0000   1.0000   1.0000   1.0000   1.0000   1.0000   1.0000
     1.0000   1.0000   1.0000   1.0000   1.0000   1.0000   1.0000   1.0000
     1.0000   1.0000   1.0000   1.0000   1.0000   1.0000   1.0000   1.0000
     1.0000   1.0000   1.0000   1.0000   1.0326   1.0326   1.0354   1.0354
     0.0783   0.0783   0.0559   0.0559  -0.0001  -0.0001  -0.0000  -0.0000
    -0.0000  -0.0000  -0.0000  -0.0000  -0.0000  -0.0000

          k = 0.0000 0.3750 0.3750 (  9632 PWs)   bands (ev):

   -56.4962 -56.4962 -56.4909 -56.4909 -56.4754 -56.4754 -56.4734 -56.4734
   -28.5780 -28.5747 -28.5699 -28.5690 -28.5340 -28.5322 -28.5187 -28.5178
   -27.6181 -27.6177 -27.5817 -27.5776 -27.5484 -27.5428 -27.5315 -27.5284
   -27.5197 -27.5016 -27.4994 -27.4898 -27.4470 -27.4375 -27.4294 -27.4266
     4.5090   4.5095   5.5224   5.5240   6.5723   6.5744   7.4021   7.4051
    10.2466  10.2479  10.4521  10.4533  10.9123  10.9132  11.2399  11.2430
    11.7875  11.7905  12.0568  12.0607  12.2648  12.2673  12.4698  12.4775
    13.2358  13.2433  13.3915  13.3931  13.6756  13.6761  13.8224  13.8273
    14.0582  14.0704  14.1524  14.1633  14.5600  14.5800  14.7440  14.7558
    14.8564  14.8755  14.9590  14.9823  15.4815  15.5010  15.5213  15.5485
    16.3258  16.3362  16.5142  16.5198  17.0934  17.1158

     occupation numbers 
     1.0000   1.0000   1.0000   1.0000   1.0000   1.0000   1.0000   1.0000
     1.0000   1.0000   1.0000   1.0000   1.0000   1.0000   1.0000   1.0000
     1.0000   1.0000   1.0000   1.0000   1.0000   1.0000   1.0000   1.0000
     1.0000   1.0000   1.0000   1.0000   1.0000   1.0000   1.0000   1.0000
     1.0000   1.0000   1.0000   1.0000   1.0000   1.0000   1.0000   1.0000
     1.0000   1.0000   1.0000   1.0000   1.0000   1.0000   1.0000   1.0000
     1.0000   1.0000   1.0000   1.0000   1.0000   1.0000   1.0000   1.0000
     1.0000   1.0000   1.0000   1.0000   1.0000   1.0000   1.0000   1.0000
     1.0000   1.0000   1.0000   1.0000   1.0135   1.0171   1.0230   1.0156
     0.8497   0.7948   0.4935   0.4039  -0.0017  -0.0012  -0.0008  -0.0004
    -0.0000  -0.0000  -0.0000  -0.0000  -0.0000  -0.0000

          k = 0.0000 0.3750-0.5000 (  9642 PWs)   bands (ev):

   -56.4932 -56.4932 -56.4932 -56.4932 -56.4747 -56.4747 -56.4747 -56.4747
   -28.5736 -28.5736 -28.5701 -28.5701 -28.5283 -28.5283 -28.5258 -28.5258
   -27.6134 -27.6134 -27.5850 -27.5850 -27.5418 -27.5418 -27.5277 -27.5277
   -27.5155 -27.5155 -27.4984 -27.4984 -27.4390 -27.4390 -27.4277 -27.4277
     5.0890   5.0890   5.0904   5.0904   6.8109   6.8109   6.8151   6.8151
    10.4502  10.4502  10.4516  10.4516  11.2424  11.2424  11.2504  11.2504
    11.6414  11.6414  11.6493  11.6493  12.3110  12.3110  12.3160  12.3160
    13.3672  13.3672  13.3729  13.3729  13.7712  13.7712  13.7803  13.7803
    14.2750  14.2750  14.2778  14.2778  14.5472  14.5472  14.5580  14.5580
    14.8883  14.8883  14.9073  14.9073  15.4621  15.4621  15.4818  15.4818
    16.4958  16.4959  16.5059  16.5059  17.1176  17.1208

     occupation numbers 
     1.0000   1.0000   1.0000   1.0000   1.0000   1.0000   1.0000   1.0000
     1.0000   1.0000   1.0000   1.0000   1.0000   1.0000   1.0000   1.0000
     1.0000   1.0000   1.0000   1.0000   1.0000   1.0000   1.0000   1.0000
     1.0000   1.0000   1.0000   1.0000   1.0000   1.0000   1.0000   1.0000
     1.0000   1.0000   1.0000   1.0000   1.0000   1.0000   1.0000   1.0000
     1.0000   1.0000   1.0000   1.0000   1.0000   1.0000   1.0000   1.0000
     1.0000   1.0000   1.0000   1.0000   1.0000   1.0000   1.0000   1.0000
     1.0000   1.0000   1.0000   1.0000   1.0000   1.0000   1.0000   1.0000
     1.0000   1.0000   1.0000   1.0000   1.0114   1.0114   1.0131   1.0131
     0.7540   0.7540   0.6890   0.6890  -0.0025  -0.0025  -0.0017  -0.0017
    -0.0000  -0.0000  -0.0000  -0.0000  -0.0000  -0.0000

          k = 0.0000-0.5000-0.5000 (  9580 PWs)   bands (ev):

   -56.4925 -56.4925 -56.4925 -56.4925 -56.4754 -56.4754 -56.4754 -56.4754
   -28.5699 -28.5699 -28.5699 -28.5699 -28.5292 -28.5292 -28.5292 -28.5292
   -27.5996 -27.5996 -27.5996 -27.5996 -27.5319 -27.5319 -27.5319 -27.5319
   -27.5111 -27.5111 -27.5111 -27.5111 -27.4313 -27.4313 -27.4313 -27.4313
     5.3706   5.3706   5.3706   5.3706   6.4273   6.4273   6.4273   6.4273
    10.7062  10.7062  10.7062  10.7062  11.2436  11.2436  11.2436  11.2436
    11.3854  11.3854  11.3854  11.3854  12.2857  12.2857  12.2857  12.2857
    13.3637  13.3637  13.3637  13.3637  14.0097  14.0097  14.0097  14.0097
    14.2964  14.2964  14.2964  14.2964  14.5284  14.5284  14.5284  14.5284
    14.7608  14.7608  14.7608  14.7608  15.4206  15.4206  15.4206  15.4206
    16.5908  16.5908  16.5909  16.5910  16.9873  16.9873

     occupation numbers 
     1.0000   1.0000   1.0000   1.0000   1.0000   1.0000   1.0000   1.0000
     1.0000   1.0000   1.0000   1.0000   1.0000   1.0000   1.0000   1.0000
     1.0000   1.0000   1.0000   1.0000   1.0000   1.0000   1.0000   1.0000
     1.0000   1.0000   1.0000   1.0000   1.0000   1.0000   1.0000   1.0000
     1.0000   1.0000   1.0000   1.0000   1.0000   1.0000   1.0000   1.0000
     1.0000   1.0000   1.0000   1.0000   1.0000   1.0000   1.0000   1.0000
     1.0000   1.0000   1.0000   1.0000   1.0000   1.0000   1.0000   1.0000
     1.0000   1.0000   1.0000   1.0000   1.0000   1.0000   1.0000   1.0000
     1.0001   1.0001   1.0001   1.0001   1.0088   1.0088   1.0088   1.0088
     1.0119   1.0119   1.0119   1.0119  -0.0052  -0.0052  -0.0052  -0.0052
    -0.0000  -0.0000  -0.0000  -0.0000  -0.0000  -0.0000

          k = 0.1250 0.1250 0.1250 (  9633 PWs)   bands (ev):

   -56.5071 -56.5071 -56.4818 -56.4818 -56.4757 -56.4757 -56.4713 -56.4713
   -28.5848 -28.5789 -28.5693 -28.5686 -28.5565 -28.5522 -28.4870 -28.4869
   -27.6258 -27.6242 -27.5905 -27.5851 -27.5467 -27.5398 -27.5397 -27.5368
   -27.5157 -27.5038 -27.4656 -27.4567 -27.4499 -27.4498 -27.4368 -27.4349
     3.0207   3.0207   6.5628   6.5694   7.1831   7.1904   8.2851   8.2892
     9.9225   9.9273  10.6118  10.6120  10.6513  10.6513  11.2999  11.3054
    11.9450  11.9461  12.3508  12.3620  12.7380  12.7400  12.8173  12.8263
    13.0637  13.0673  13.1666  13.1671  13.2451  13.2509  13.3441  13.3528
    13.4577  13.4658  13.7058  13.7102  14.0655  14.0729  15.3241  15.3284
    15.3590  15.3603  15.5782  15.5793  15.6419  15.6563  15.8161  15.8280
    16.3174  16.3369  16.6514  16.6599  16.9648  17.0000

     occupation numbers 
     1.0000   1.0000   1.0000   1.0000   1.0000   1.0000   1.0000   1.0000
     1.0000   1.0000   1.0000   1.0000   1.0000   1.0000   1.0000   1.0000
     1.0000   1.0000   1.0000   1.0000   1.0000   1.0000   1.0000   1.0000
     1.0000   1.0000   1.0000   1.0000   1.0000   1.0000   1.0000   1.0000
     1.0000   1.0000   1.0000   1.0000   1.0000   1.0000   1.0000   1.0000
     1.0000   1.0000   1.0000   1.0000   1.0000   1.0000   1.0000   1.0000
     1.0000   1.0000   1.0000   1.0000   1.0000   1.0000   1.0000   1.0000
     1.0000   1.0000   1.0000   1.0000   1.0000   1.0000   1.0000   1.0000
     1.0000   1.0000   1.0000   1.0000   1.0000   1.0000  -0.0192  -0.0184
    -0.0128  -0.0126  -0.0002  -0.0002  -0.0000  -0.0000  -0.0000  -0.0000
    -0.0000  -0.0000  -0.0000  -0.0000  -0.0000  -0.0000

          k = 0.1250 0.1250 0.2500 (  9648 PWs)   bands (ev):

   -56.5044 -56.5044 -56.4851 -56.4851 -56.4753 -56.4753 -56.4710 -56.4710
   -28.5855 -28.5799 -28.5704 -28.5695 -28.5480 -28.5445 -28.4948 -28.4944
   -27.6296 -27.6246 -27.5830 -27.5758 -27.5509 -27.5439 -27.5391 -27.5365
   -27.5133 -27.4944 -27.4752 -27.4613 -27.4567 -27.4502 -27.4341 -27.4321
     3.3360   3.3361   6.0617   6.0649   7.2196   7.2240   8.4039   8.4080
     9.6715   9.6736  10.4341  10.4380  10.6896  10.6935  11.4170  11.4210
    11.8422  11.8471  12.3005  12.3039  12.7382  12.7434  13.0089  13.0139
    13.0842  13.0910  13.1163  13.1240  13.2834  13.2880  13.4409  13.4503
    13.6265  13.6350  13.8407  13.8494  14.1538  14.1599  15.0848  15.1100
    15.2867  15.3019  15.4489  15.4626  15.5925  15.6097  15.8136  15.8326
    16.2050  16.2207  16.5463  16.5601  17.1208  17.1558

     occupation numbers 
     1.0000   1.0000   1.0000   1.0000   1.0000   1.0000   1.0000   1.0000
     1.0000   1.0000   1.0000   1.0000   1.0000   1.0000   1.0000   1.0000
     1.0000   1.0000   1.0000   1.0000   1.0000   1.0000   1.0000   1.0000
     1.0000   1.0000   1.0000   1.0000   1.0000   1.0000   1.0000   1.0000
     1.0000   1.0000   1.0000   1.0000   1.0000   1.0000   1.0000   1.0000
     1.0000   1.0000   1.0000   1.0000   1.0000   1.0000   1.0000   1.0000
     1.0000   1.0000   1.0000   1.0000   1.0000   1.0000   1.0000   1.0000
     1.0000   1.0000   1.0000   1.0000   1.0000   1.0000   1.0000   1.0000
     1.0000   1.0000   1.0000   1.0000   1.0000   1.0000   0.0866   0.0396
    -0.0271  -0.0239  -0.0032  -0.0025  -0.0001  -0.0001  -0.0000  -0.0000
    -0.0000  -0.0000  -0.0000  -0.0000  -0.0000  -0.0000

          k = 0.1250 0.1250 0.3750 (  9660 PWs)   bands (ev):

   -56.5003 -56.5003 -56.4899 -56.4899 -56.4741 -56.4741 -56.4715 -56.4715
   -28.5840 -28.5794 -28.5744 -28.5721 -28.5351 -28.5327 -28.5065 -28.5057
   -27.6308 -27.6263 -27.5736 -27.5677 -27.5592 -27.5456 -27.5376 -27.5276
   -27.5171 -27.4944 -27.4770 -27.4646 -27.4608 -27.4537 -27.4324 -27.4308
     3.8438   3.8440   5.2895   5.2906   7.5128   7.5150   8.3086   8.3130
     9.5581   9.5592  10.2043  10.2076  10.9209  10.9253  11.4072  11.4132
    11.7860  11.7894  12.2132  12.2169  12.7434  12.7491  12.9510  12.9586
    13.0602  13.0685  13.2297  13.2369  13.3278  13.3313  13.4332  13.4396
    13.6969  13.6998  13.9796  13.9870  14.3524  14.3724  14.8334  14.8661
    15.2488  15.2651  15.3212  15.3345  15.6132  15.6332  15.7710  15.7942
    16.1576  16.1670  16.3809  16.3953  17.3124  17.3359

     occupation numbers 
     1.0000   1.0000   1.0000   1.0000   1.0000   1.0000   1.0000   1.0000
     1.0000   1.0000   1.0000   1.0000   1.0000   1.0000   1.0000   1.0000
     1.0000   1.0000   1.0000   1.0000   1.0000   1.0000   1.0000   1.0000
     1.0000   1.0000   1.0000   1.0000   1.0000   1.0000   1.0000   1.0000
     1.0000   1.0000   1.0000   1.0000   1.0000   1.0000   1.0000   1.0000
     1.0000   1.0000   1.0000   1.0000   1.0000   1.0000   1.0000   1.0000
     1.0000   1.0000   1.0000   1.0000   1.0000   1.0000   1.0000   1.0000
     1.0000   1.0000   1.0000   1.0000   1.0000   1.0000   1.0000   1.0000
     1.0000   1.0000   1.0000   1.0000   1.0003   1.0005   0.9058   0.8225
    -0.0337  -0.0313  -0.0198  -0.0172  -0.0001  -0.0001  -0.0000  -0.0000
    -0.0000  -0.0000  -0.0000  -0.0000  -0.0000  -0.0000

          k = 0.1250 0.1250-0.5000 (  9650 PWs)   bands (ev):

   -56.4952 -56.4952 -56.4952 -56.4952 -56.4727 -56.4727 -56.4727 -56.4727
   -28.5808 -28.5808 -28.5751 -28.5751 -28.5212 -28.5212 -28.5184 -28.5184
   -27.6291 -27.6291 -27.5666 -27.5666 -27.5561 -27.5561 -27.5295 -27.5295
   -27.5084 -27.5084 -27.4699 -27.4699 -27.4585 -27.4585 -27.4312 -27.4312
     4.5132   4.5132   4.5138   4.5138   7.9197   7.9197   7.9260   7.9260
     9.8404   9.8404   9.8418   9.8418  11.1810  11.1810  11.1908  11.1908
    12.0281  12.0281  12.0318  12.0318  12.7796  12.7796  12.7924  12.7924
    13.1779  13.1779  13.1860  13.1861  13.3681  13.3681  13.3710  13.3710
    13.8510  13.8510  13.8570  13.8570  14.6315  14.6315  14.6636  14.6636
    15.2499  15.2499  15.2691  15.2691  15.6877  15.6877  15.7138  15.7138
    16.2276  16.2276  16.2378  16.2378  17.6171  17.6185

     occupation numbers 
     1.0000   1.0000   1.0000   1.0000   1.0000   1.0000   1.0000   1.0000
     1.0000   1.0000   1.0000   1.0000   1.0000   1.0000   1.0000   1.0000
     1.0000   1.0000   1.0000   1.0000   1.0000   1.0000   1.0000   1.0000
     1.0000   1.0000   1.0000   1.0000   1.0000   1.0000   1.0000   1.0000
     1.0000   1.0000   1.0000   1.0000   1.0000   1.0000   1.0000   1.0000
     1.0000   1.0000   1.0000   1.0000   1.0000   1.0000   1.0000   1.0000
     1.0000   1.0000   1.0000   1.0000   1.0000   1.0000   1.0000   1.0000
     1.0000   1.0000   1.0000   1.0000   1.0000   1.0000   1.0000   1.0000
     1.0000   1.0000   1.0000   1.0000   1.0278   1.0278   1.0334   1.0334
    -0.0336  -0.0336  -0.0305  -0.0305  -0.0000  -0.0000  -0.0000  -0.0000
    -0.0000  -0.0000  -0.0000  -0.0000  -0.0000  -0.0000

          k = 0.1250 0.2500 0.2500 (  9649 PWs)   bands (ev):

   -56.5020 -56.5020 -56.4866 -56.4866 -56.4759 -56.4759 -56.4714 -56.4714
   -28.5843 -28.5793 -28.5685 -28.5679 -28.5450 -28.5417 -28.5019 -28.5013
   -27.6270 -27.6238 -27.5790 -27.5706 -27.5515 -27.5471 -27.5404 -27.5386
   -27.5099 -27.4963 -27.4777 -27.4651 -27.4636 -27.4478 -27.4315 -27.4291
     3.6438   3.6439   6.0125   6.0169   6.9138   6.9201   8.2967   8.3005
     9.4083   9.4111  10.4288  10.4305  10.6906  10.6931  11.4601  11.4650
    11.9047  11.9074  12.3034  12.3053  12.6226  12.6291  12.9583  12.9647
    13.1197  13.1246  13.1956  13.2062  13.2853  13.2907  13.5821  13.5890
    13.7521  13.7597  13.9734  13.9826  14.2893  14.2963  15.0284  15.0456
    15.1627  15.1832  15.2890  15.3016  15.5030  15.5149  15.7242  15.7446
    16.1728  16.1838  16.5208  16.5333  17.1495  17.1901

     occupation numbers 
     1.0000   1.0000   1.0000   1.0000   1.0000   1.0000   1.0000   1.0000
     1.0000   1.0000   1.0000   1.0000   1.0000   1.0000   1.0000   1.0000
     1.0000   1.0000   1.0000   1.0000   1.0000   1.0000   1.0000   1.0000
     1.0000   1.0000   1.0000   1.0000   1.0000   1.0000   1.0000   1.0000
     1.0000   1.0000   1.0000   1.0000   1.0000   1.0000   1.0000   1.0000
     1.0000   1.0000   1.0000   1.0000   1.0000   1.0000   1.0000   1.0000
     1.0000   1.0000   1.0000   1.0000   1.0000   1.0000   1.0000   1.0000
     1.0000   1.0000   1.0000   1.0000   1.0000   1.0000   1.0000   1.0000
     1.0000   1.0000   1.0000   1.0000   1.0001   1.0001   0.2396   0.1861
    -0.0182  -0.0286  -0.0266  -0.0239  -0.0011  -0.0009  -0.0000  -0.0000
    -0.0000  -0.0000  -0.0000  -0.0000  -0.0000  -0.0000

          k = 0.1250 0.2500 0.3750 (  9647 PWs)   bands (ev):

   -56.4983 -56.4983 -56.4898 -56.4898 -56.4753 -56.4753 -56.4724 -56.4724
   -28.5813 -28.5772 -28.5707 -28.5690 -28.5365 -28.5343 -28.5123 -28.5115
   -27.6248 -27.6218 -27.5754 -27.5675 -27.5584 -27.5483 -27.5361 -27.5309
   -27.5146 -27.5038 -27.4795 -27.4727 -27.4591 -27.4475 -27.4298 -27.4276
     4.1372   4.1376   5.4899   5.4920   7.0384   7.0423   7.9710   7.9742
     9.4102   9.4126  10.1457  10.1481  11.0647  11.0679  11.5745  11.5805
    11.8047  11.8122  12.0667  12.0684  12.5169  12.5269  12.7899  12.7976
    13.2112  13.2165  13.2928  13.3053  13.3547  13.3604  13.6021  13.6113
    13.8657  13.8772  14.0995  14.1109  14.5054  14.5335  14.8407  14.8674
    15.0742  15.0839  15.1508  15.1643  15.5120  15.5247  15.6369  15.6597
    16.2065  16.2134  16.4476  16.4584  17.1800  17.2066

     occupation numbers 
     1.0000   1.0000   1.0000   1.0000   1.0000   1.0000   1.0000   1.0000
     1.0000   1.0000   1.0000   1.0000   1.0000   1.0000   1.0000   1.0000
     1.0000   1.0000   1.0000   1.0000   1.0000   1.0000   1.0000   1.0000
     1.0000   1.0000   1.0000   1.0000   1.0000   1.0000   1.0000   1.0000
     1.0000   1.0000   1.0000   1.0000   1.0000   1.0000   1.0000   1.0000
     1.0000   1.0000   1.0000   1.0000   1.0000   1.0000   1.0000   1.0000
     1.0000   1.0000   1.0000   1.0000   1.0000   1.0000   1.0000   1.0000
     1.0000   1.0000   1.0000   1.0000   1.0000   1.0000   1.0000   1.0000
     1.0000   1.0000   1.0000   1.0000   1.0062   1.0094   0.8893   0.8187
     0.1104   0.0886  -0.0094  -0.0192  -0.0009  -0.0007  -0.0000  -0.0000
    -0.0000  -0.0000  -0.0000  -0.0000  -0.0000  -0.0000

          k = 0.1250 0.2500-0.5000 (  9646 PWs)   bands (ev):

   -56.4940 -56.4940 -56.4940 -56.4940 -56.4739 -56.4739 -56.4739 -56.4739
   -28.5771 -28.5771 -28.5719 -28.5719 -28.5256 -28.5256 -28.5222 -28.5222
   -27.6223 -27.6223 -27.5713 -27.5713 -27.5546 -27.5546 -27.5275 -27.5275
   -27.5148 -27.5148 -27.4780 -27.4780 -27.4519 -27.4519 -27.4282 -27.4282
     4.7797   4.7797   4.7808   4.7808   7.4681   7.4681   7.4744   7.4744
     9.7442   9.7442   9.7467   9.7467  11.5286  11.5286  11.5363  11.5363
    11.7447  11.7447  11.7485  11.7485  12.6017  12.6017  12.6132  12.6132
    13.2947  13.2947  13.3011  13.3011  13.4729  13.4729  13.4844  13.4844
    14.0268  14.0268  14.0348  14.0348  14.6966  14.6966  14.7291  14.7291
    15.0706  15.0706  15.0870  15.0870  15.5600  15.5600  15.5836  15.5836
    16.3237  16.3237  16.3326  16.3326  17.3823  17.3860

     occupation numbers 
     1.0000   1.0000   1.0000   1.0000   1.0000   1.0000   1.0000   1.0000
     1.0000   1.0000   1.0000   1.0000   1.0000   1.0000   1.0000   1.0000
     1.0000   1.0000   1.0000   1.0000   1.0000   1.0000   1.0000   1.0000
     1.0000   1.0000   1.0000   1.0000   1.0000   1.0000   1.0000   1.0000
     1.0000   1.0000   1.0000   1.0000   1.0000   1.0000   1.0000   1.0000
     1.0000   1.0000   1.0000   1.0000   1.0000   1.0000   1.0000   1.0000
     1.0000   1.0000   1.0000   1.0000   1.0000   1.0000   1.0000   1.0000
     1.0000   1.0000   1.0000   1.0000   1.0000   1.0000   1.0000   1.0000
     1.0000   1.0000   1.0000   1.0000   1.0353   1.0353   1.0295   1.0295
     0.1191   0.1191   0.0821   0.0821  -0.0003  -0.0003  -0.0002  -0.0002
    -0.0000  -0.0000  -0.0000  -0.0000  -0.0000  -0.0000

          k = 0.1250 0.3750 0.3750 (  9632 PWs)   bands (ev):

   -56.4955 -56.4955 -56.4904 -56.4904 -56.4760 -56.4760 -56.4739 -56.4739
   -28.5768 -28.5736 -28.5684 -28.5675 -28.5354 -28.5336 -28.5206 -28.5196
   -27.6170 -27.6153 -27.5806 -27.5762 -27.5536 -27.5460 -27.5341 -27.5268
   -27.5179 -27.5093 -27.4889 -27.4838 -27.4494 -27.4409 -27.4297 -27.4267
     4.6010   4.6015   5.5950   5.5973   6.6172   6.6207   7.4184   7.4215
     9.5843   9.5868  10.2023  10.2056  10.9499  10.9520  11.5413  11.5438
    11.7645  11.7690  12.1107  12.1126  12.3555  12.3600  12.6197  12.6264
    13.1943  13.1999  13.3154  13.3206  13.5633  13.5721  13.7673  13.7833
    14.0218  14.0353  14.3026  14.3117  14.5654  14.5840  14.7946  14.8093
    14.8803  14.8853  14.9951  15.0250  15.4368  15.4375  15.5074  15.5192
    16.3062  16.3155  16.4812  16.4876  17.0681  17.0894

     occupation numbers 
     1.0000   1.0000   1.0000   1.0000   1.0000   1.0000   1.0000   1.0000
     1.0000   1.0000   1.0000   1.0000   1.0000   1.0000   1.0000   1.0000
     1.0000   1.0000   1.0000   1.0000   1.0000   1.0000   1.0000   1.0000
     1.0000   1.0000   1.0000   1.0000   1.0000   1.0000   1.0000   1.0000
     1.0000   1.0000   1.0000   1.0000   1.0000   1.0000   1.0000   1.0000
     1.0000   1.0000   1.0000   1.0000   1.0000   1.0000   1.0000   1.0000
     1.0000   1.0000   1.0000   1.0000   1.0000   1.0000   1.0000   1.0000
     1.0000   1.0000   1.0000   1.0000   1.0000   1.0000   1.0000   1.0000
     1.0000   1.0000   1.0001   1.0001   1.0144   1.0179   0.9754   0.9528
     0.7797   0.7638   0.3556   0.2506  -0.0039  -0.0039  -0.0010  -0.0008
    -0.0000  -0.0000  -0.0000  -0.0000  -0.0000  -0.0000

          k = 0.1250 0.3750-0.5000 (  9656 PWs)   bands (ev):

   -56.4926 -56.4926 -56.4926 -56.4926 -56.4754 -56.4754 -56.4754 -56.4754
   -28.5722 -28.5722 -28.5687 -28.5687 -28.5301 -28.5301 -28.5274 -28.5274
   -27.6117 -27.6117 -27.5835 -27.5835 -27.5480 -27.5480 -27.5277 -27.5277
   -27.5159 -27.5159 -27.4909 -27.4909 -27.4418 -27.4418 -27.4284 -27.4284
     5.1721   5.1721   5.1737   5.1737   6.8544   6.8544   6.8589   6.8589
     9.9261   9.9261   9.9293   9.9293  11.2689  11.2689  11.2709  11.2709
    11.8662  11.8662  11.8738  11.8738  12.4219  12.4219  12.4296  12.4296
    13.2944  13.2944  13.2982  13.2982  13.6838  13.6838  13.6980  13.6980
    14.2896  14.2896  14.2962  14.2962  14.6367  14.6367  14.6492  14.6492
    14.9052  14.9052  14.9242  14.9242  15.4344  15.4344  15.4502  15.4502
    16.4499  16.4499  16.4575  16.4575  17.0973  17.1008

     occupation numbers 
     1.0000   1.0000   1.0000   1.0000   1.0000   1.0000   1.0000   1.0000
     1.0000   1.0000   1.0000   1.0000   1.0000   1.0000   1.0000   1.0000
     1.0000   1.0000   1.0000   1.0000   1.0000   1.0000   1.0000   1.0000
     1.0000   1.0000   1.0000   1.0000   1.0000   1.0000   1.0000   1.0000
     1.0000   1.0000   1.0000   1.0000   1.0000   1.0000   1.0000   1.0000
     1.0000   1.0000   1.0000   1.0000   1.0000   1.0000   1.0000   1.0000
     1.0000   1.0000   1.0000   1.0000   1.0000   1.0000   1.0000   1.0000
     1.0000   1.0000   1.0000   1.0000   1.0000   1.0000   1.0000   1.0000
     1.0001   1.0001   1.0001   1.0001   1.0288   1.0288   1.0312   1.0312
     0.6966   0.6966   0.6273   0.6273  -0.0041  -0.0041  -0.0031  -0.0031
    -0.0000  -0.0000  -0.0000  -0.0000  -0.0000  -0.0000

          k = 0.1250-0.5000-0.5000 (  9632 PWs)   bands (ev):

   -56.4919 -56.4919 -56.4919 -56.4919 -56.4760 -56.4760 -56.4760 -56.4760
   -28.5686 -28.5686 -28.5685 -28.5685 -28.5311 -28.5311 -28.5308 -28.5308
   -27.6008 -27.6008 -27.5954 -27.5954 -27.5438 -27.5438 -27.5298 -27.5298
   -27.5128 -27.5128 -27.4984 -27.4984 -27.4356 -27.4356 -27.4310 -27.4310
     5.4477   5.4477   5.4488   5.4488   6.4880   6.4880   6.4899   6.4899
    10.0929  10.0929  10.0965  10.0965  11.0439  11.0439  11.0455  11.0455
    11.9604  11.9604  11.9629  11.9629  12.3368  12.3368  12.3393  12.3393
    13.2765  13.2765  13.2773  13.2773  13.8491  13.8491  13.8625  13.8625
    14.3485  14.3485  14.3540  14.3540  14.6341  14.6341  14.6506  14.6506
    14.8043  14.8043  14.8063  14.8063  15.3887  15.3887  15.3890  15.3890
    16.5241  16.5241  16.5257  16.5257  16.9735  16.9750

     occupation numbers 
     1.0000   1.0000   1.0000   1.0000   1.0000   1.0000   1.0000   1.0000
     1.0000   1.0000   1.0000   1.0000   1.0000   1.0000   1.0000   1.0000
     1.0000   1.0000   1.0000   1.0000   1.0000   1.0000   1.0000   1.0000
     1.0000   1.0000   1.0000   1.0000   1.0000   1.0000   1.0000   1.0000
     1.0000   1.0000   1.0000   1.0000   1.0000   1.0000   1.0000   1.0000
     1.0000   1.0000   1.0000   1.0000   1.0000   1.0000   1.0000   1.0000
     1.0000   1.0000   1.0000   1.0000   1.0000   1.0000   1.0000   1.0000
     1.0000   1.0000   1.0000   1.0000   1.0000   1.0000   1.0000   1.0000
     1.0003   1.0003   1.0003   1.0003   1.0283   1.0283   1.0314   1.0314
     0.9610   0.9610   0.9578   0.9578  -0.0085  -0.0085  -0.0085  -0.0085
    -0.0000  -0.0000  -0.0000  -0.0000  -0.0000  -0.0000

          k = 0.2500 0.2500 0.2500 (  9651 PWs)   bands (ev):

   -56.4997 -56.4997 -56.4871 -56.4871 -56.4769 -56.4769 -56.4722 -56.4722
   -28.5821 -28.5776 -28.5658 -28.5656 -28.5444 -28.5413 -28.5085 -28.5075
   -27.6239 -27.6202 -27.5781 -27.5663 -27.5541 -27.5512 -27.5407 -27.5388
   -27.5073 -27.5044 -27.4719 -27.4699 -27.4589 -27.4544 -27.4301 -27.4276
     3.9436   3.9437   6.0533   6.0601   6.7942   6.8045   8.0509   8.0517
     9.0663   9.0691  10.0627  10.0663  11.1548  11.1591  11.1990  11.1994
    11.9211  11.9225  12.3570  12.3585  12.8120  12.8186  12.8836  12.8844
    13.1347  13.1432  13.1433  13.1558  13.1873  13.1921  13.7603  13.7688
    13.7770  13.7891  14.0666  14.0741  14.4517  14.4689  14.9895  15.0056
    15.1329  15.1361  15.2690  15.2697  15.3093  15.3151  15.6177  15.6368
    16.1863  16.1944  16.4852  16.4965  17.1287  17.1585

     occupation numbers 
     1.0000   1.0000   1.0000   1.0000   1.0000   1.0000   1.0000   1.0000
     1.0000   1.0000   1.0000   1.0000   1.0000   1.0000   1.0000   1.0000
     1.0000   1.0000   1.0000   1.0000   1.0000   1.0000   1.0000   1.0000
     1.0000   1.0000   1.0000   1.0000   1.0000   1.0000   1.0000   1.0000
     1.0000   1.0000   1.0000   1.0000   1.0000   1.0000   1.0000   1.0000
     1.0000   1.0000   1.0000   1.0000   1.0000   1.0000   1.0000   1.0000
     1.0000   1.0000   1.0000   1.0000   1.0000   1.0000   1.0000   1.0000
     1.0000   1.0000   1.0000   1.0000   1.0000   1.0000   1.0000   1.0000
     1.0000   1.0000   1.0000   1.0000   1.0025   1.0034   0.3767   0.3176
     0.0083   0.0048  -0.0306  -0.0304  -0.0223  -0.0211  -0.0001  -0.0000
    -0.0000  -0.0000  -0.0000  -0.0000  -0.0000  -0.0000

          k = 0.2500 0.2500 0.3750 (  9650 PWs)   bands (ev):

   -56.4964 -56.4964 -56.4891 -56.4891 -56.4767 -56.4767 -56.4736 -56.4736
   -28.5781 -28.5744 -28.5671 -28.5658 -28.5389 -28.5366 -28.5180 -28.5168
   -27.6197 -27.6166 -27.5746 -27.5664 -27.5611 -27.5562 -27.5374 -27.5283
   -27.5180 -27.5054 -27.4759 -27.4661 -27.4611 -27.4524 -27.4299 -27.4272
     4.4218   4.4222   5.6830   5.6860   6.9117   6.9176   7.7709   7.7736
     8.9807   8.9845   9.7548   9.7587  11.0338  11.0368  11.5976  11.6004
    11.6780  11.6813  12.2592  12.2639  12.7433  12.7530  12.8791  12.8863
    13.1118  13.1239  13.2144  13.2257  13.2959  13.2999  13.6243  13.6320
    13.9407  13.9507  14.2646  14.2759  14.6179  14.6503  14.8478  14.8671
    15.0238  15.0341  15.1848  15.2110  15.3299  15.3449  15.5293  15.5461
    16.2259  16.2326  16.4158  16.4240  17.1232  17.1383

     occupation numbers 
     1.0000   1.0000   1.0000   1.0000   1.0000   1.0000   1.0000   1.0000
     1.0000   1.0000   1.0000   1.0000   1.0000   1.0000   1.0000   1.0000
     1.0000   1.0000   1.0000   1.0000   1.0000   1.0000   1.0000   1.0000
     1.0000   1.0000   1.0000   1.0000   1.0000   1.0000   1.0000   1.0000
     1.0000   1.0000   1.0000   1.0000   1.0000   1.0000   1.0000   1.0000
     1.0000   1.0000   1.0000   1.0000   1.0000   1.0000   1.0000   1.0000
     1.0000   1.0000   1.0000   1.0000   1.0000   1.0000   1.0000   1.0000
     1.0000   1.0000   1.0000   1.0000   1.0000   1.0000   1.0000   1.0000
     1.0000   1.0000   1.0000   1.0000   1.0249   1.0314   0.8720   0.8197
     0.2546   0.2212  -0.0292  -0.0349  -0.0181  -0.0152  -0.0006  -0.0004
    -0.0000  -0.0000  -0.0000  -0.0000  -0.0000  -0.0000

          k = 0.2500 0.2500-0.5000 (  9666 PWs)   bands (ev):

   -56.4926 -56.4926 -56.4926 -56.4926 -56.4753 -56.4753 -56.4753 -56.4753
   -28.5735 -28.5735 -28.5686 -28.5686 -28.5301 -28.5301 -28.5263 -28.5263
   -27.6163 -27.6163 -27.5703 -27.5703 -27.5612 -27.5612 -27.5294 -27.5294
   -27.5146 -27.5146 -27.4731 -27.4731 -27.4545 -27.4545 -27.4285 -27.4285
     5.0360   5.0360   5.0372   5.0372   7.3188   7.3188   7.3249   7.3249
     9.3112   9.3112   9.3153   9.3153  11.2773  11.2773  11.2797  11.2797
    11.9776  11.9776  11.9857  11.9857  12.8054  12.8054  12.8156  12.8156
    13.1757  13.1757  13.1884  13.1884  13.4412  13.4412  13.4484  13.4484
    14.1709  14.1709  14.1805  14.1805  14.7533  14.7533  14.7806  14.7807
    15.0591  15.0591  15.0780  15.0780  15.4356  15.4356  15.4518  15.4518
    16.3151  16.3151  16.3247  16.3247  17.2597  17.2609

     occupation numbers 
     1.0000   1.0000   1.0000   1.0000   1.0000   1.0000   1.0000   1.0000
     1.0000   1.0000   1.0000   1.0000   1.0000   1.0000   1.0000   1.0000
     1.0000   1.0000   1.0000   1.0000   1.0000   1.0000   1.0000   1.0000
     1.0000   1.0000   1.0000   1.0000   1.0000   1.0000   1.0000   1.0000
     1.0000   1.0000   1.0000   1.0000   1.0000   1.0000   1.0000   1.0000
     1.0000   1.0000   1.0000   1.0000   1.0000   1.0000   1.0000   1.0000
     1.0000   1.0000   1.0000   1.0000   1.0000   1.0000   1.0000   1.0000
     1.0000   1.0000   1.0000   1.0000   1.0000   1.0000   1.0000   1.0000
     1.0000   1.0000   1.0000   1.0000   1.0173   1.0173   0.9930   0.9930
     0.1484   0.1484   0.1016   0.1016  -0.0040  -0.0040  -0.0030  -0.0030
    -0.0000  -0.0000  -0.0000  -0.0000  -0.0000  -0.0000

          k = 0.2500 0.3750 0.3750 (  9650 PWs)   bands (ev):

   -56.4937 -56.4937 -56.4891 -56.4891 -56.4777 -56.4777 -56.4753 -56.4753
   -28.5733 -28.5703 -28.5646 -28.5638 -28.5391 -28.5373 -28.5259 -28.5245
   -27.6125 -27.6097 -27.5779 -27.5730 -27.5620 -27.5576 -27.5386 -27.5275
   -27.5184 -27.5026 -27.4803 -27.4709 -27.4544 -27.4492 -27.4316 -27.4286
     4.8690   4.8696   5.7958   5.7998   6.6817   6.6885   7.3940   7.3972
     8.9589   8.9634   9.5732   9.5786  10.6888  10.6926  11.2077  11.2094
    12.0031  12.0059  12.4222  12.4263  12.6339  12.6394  12.8220  12.8278
    13.1307  13.1390  13.1843  13.1928  13.3851  13.3946  13.5864  13.5983
    14.1451  14.1537  14.4999  14.5170  14.6873  14.7108  14.8410  14.8600
    14.9371  14.9411  15.1345  15.1669  15.2784  15.2902  15.4346  15.4480
    16.2813  16.2888  16.4083  16.4128  16.9774  16.9876

     occupation numbers 
     1.0000   1.0000   1.0000   1.0000   1.0000   1.0000   1.0000   1.0000
     1.0000   1.0000   1.0000   1.0000   1.0000   1.0000   1.0000   1.0000
     1.0000   1.0000   1.0000   1.0000   1.0000   1.0000   1.0000   1.0000
     1.0000   1.0000   1.0000   1.0000   1.0000   1.0000   1.0000   1.0000
     1.0000   1.0000   1.0000   1.0000   1.0000   1.0000   1.0000   1.0000
     1.0000   1.0000   1.0000   1.0000   1.0000   1.0000   1.0000   1.0000
     1.0000   1.0000   1.0000   1.0000   1.0000   1.0000   1.0000   1.0000
     1.0000   1.0000   1.0000   1.0000   1.0000   1.0000   1.0000   1.0000
     1.0000   1.0000   1.0057   1.0074   1.0354   1.0340   0.8885   0.8397
     0.5785   0.5629   0.0066  -0.0208  -0.0288  -0.0264  -0.0041  -0.0032
    -0.0000  -0.0000  -0.0000  -0.0000  -0.0000  -0.0000

          k = 0.2500 0.3750-0.5000 (  9644 PWs)   bands (ev):

   -56.4909 -56.4909 -56.4909 -56.4909 -56.4770 -56.4770 -56.4770 -56.4770
   -28.5684 -28.5684 -28.5650 -28.5650 -28.5347 -28.5347 -28.5318 -28.5318
   -27.6069 -27.6069 -27.5800 -27.5800 -27.5592 -27.5592 -27.5348 -27.5348
   -27.5079 -27.5079 -27.4785 -27.4785 -27.4483 -27.4483 -27.4314 -27.4314
     5.4114   5.4114   5.4132   5.4132   6.9212   6.9212   6.9265   6.9265
     9.2727   9.2727   9.2778   9.2778  10.7886  10.7886  10.7912  10.7912
    12.2824  12.2824  12.2910  12.2910  12.6882  12.6882  12.6956  12.6956
    13.1743  13.1743  13.1820  13.1820  13.4788  13.4788  13.4918  13.4918
    14.4094  14.4094  14.4182  14.4182  14.7957  14.7957  14.8132  14.8132
    14.9921  14.9921  15.0141  15.0141  15.3520  15.3521  15.3625  15.3625
    16.3700  16.3701  16.3771  16.3772  16.9891  16.9931

     occupation numbers 
     1.0000   1.0000   1.0000   1.0000   1.0000   1.0000   1.0000   1.0000
     1.0000   1.0000   1.0000   1.0000   1.0000   1.0000   1.0000   1.0000
     1.0000   1.0000   1.0000   1.0000   1.0000   1.0000   1.0000   1.0000
     1.0000   1.0000   1.0000   1.0000   1.0000   1.0000   1.0000   1.0000
     1.0000   1.0000   1.0000   1.0000   1.0000   1.0000   1.0000   1.0000
     1.0000   1.0000   1.0000   1.0000   1.0000   1.0000   1.0000   1.0000
     1.0000   1.0000   1.0000   1.0000   1.0000   1.0000   1.0000   1.0000
     1.0000   1.0000   1.0000   1.0000   1.0000   1.0000   1.0000   1.0000
     1.0011   1.0011   1.0013   1.0013   0.9738   0.9738   0.9460   0.9460
     0.3668   0.3668   0.2876   0.2876  -0.0139  -0.0139  -0.0122  -0.0122
    -0.0000  -0.0000  -0.0000  -0.0000  -0.0000  -0.0000

          k = 0.2500-0.5000-0.5000 (  9644 PWs)   bands (ev):

   -56.4900 -56.4900 -56.4900 -56.4900 -56.4779 -56.4779 -56.4779 -56.4779
   -28.5647 -28.5647 -28.5644 -28.5644 -28.5359 -28.5359 -28.5355 -28.5355
   -27.5982 -27.5982 -27.5896 -27.5896 -27.5571 -27.5571 -27.5374 -27.5374
   -27.5034 -27.5034 -27.4835 -27.4835 -27.4428 -27.4428 -27.4349 -27.4349
     5.6724   5.6724   5.6746   5.6746   6.6204   6.6204   6.6246   6.6246
     9.3818   9.3818   9.3872   9.3872  10.5096  10.5096  10.5128  10.5128
    12.4796  12.4796  12.4828  12.4828  12.5655  12.5655  12.5676  12.5676
    13.1178  13.1178  13.1181  13.1181  13.5575  13.5575  13.5703  13.5703
    14.5123  14.5123  14.5210  14.5210  14.8392  14.8392  14.8539  14.8539
    14.9408  14.9408  14.9418  14.9418  15.3140  15.3140  15.3169  15.3170
    16.4188  16.4188  16.4195  16.4195  16.8660  16.8688

     occupation numbers 
     1.0000   1.0000   1.0000   1.0000   1.0000   1.0000   1.0000   1.0000
     1.0000   1.0000   1.0000   1.0000   1.0000   1.0000   1.0000   1.0000
     1.0000   1.0000   1.0000   1.0000   1.0000   1.0000   1.0000   1.0000
     1.0000   1.0000   1.0000   1.0000   1.0000   1.0000   1.0000   1.0000
     1.0000   1.0000   1.0000   1.0000   1.0000   1.0000   1.0000   1.0000
     1.0000   1.0000   1.0000   1.0000   1.0000   1.0000   1.0000   1.0000
     1.0000   1.0000   1.0000   1.0000   1.0000   1.0000   1.0000   1.0000
     1.0000   1.0000   1.0000   1.0000   1.0000   1.0000   1.0000   1.0000
     1.0069   1.0069   1.0079   1.0079   0.8927   0.8927   0.8563   0.8563
     0.5643   0.5643   0.5602   0.5602  -0.0213  -0.0213  -0.0207  -0.0207
    -0.0000  -0.0000  -0.0000  -0.0000  -0.0000  -0.0000

          k = 0.3750 0.3750 0.3750 (  9682 PWs)   bands (ev):

   -56.4911 -56.4911 -56.4879 -56.4879 -56.4794 -56.4794 -56.4774 -56.4774
   -28.5681 -28.5655 -28.5604 -28.5601 -28.5423 -28.5407 -28.5331 -28.5314
   -27.6052 -27.6024 -27.5770 -27.5709 -27.5700 -27.5679 -27.5419 -27.5358
   -27.5080 -27.4966 -27.4747 -27.4607 -27.4579 -27.4557 -27.4355 -27.4330
     5.2839   5.2848   5.9992   6.0054   6.6307   6.6406   7.1884   7.1918
     8.7560   8.7618   9.2627   9.2700  10.1957  10.2007  10.6467  10.6490
    12.3249  12.3280  12.5935  12.5978  12.7715  12.7749  12.8696  12.8714
    13.1119  13.1222  13.1713  13.1765  13.2734  13.2738  13.3979  13.4027
    14.3647  14.3674  14.7262  14.7469  14.7871  14.7954  14.9263  14.9611
    15.0707  15.0771  15.1008  15.1063  15.2575  15.2879  15.3116  15.3331
    16.2891  16.2967  16.3628  16.3645  16.8143  16.8186

     occupation numbers 
     1.0000   1.0000   1.0000   1.0000   1.0000   1.0000   1.0000   1.0000
     1.0000   1.0000   1.0000   1.0000   1.0000   1.0000   1.0000   1.0000
     1.0000   1.0000   1.0000   1.0000   1.0000   1.0000   1.0000   1.0000
     1.0000   1.0000   1.0000   1.0000   1.0000   1.0000   1.0000   1.0000
     1.0000   1.0000   1.0000   1.0000   1.0000   1.0000   1.0000   1.0000
     1.0000   1.0000   1.0000   1.0000   1.0000   1.0000   1.0000   1.0000
     1.0000   1.0000   1.0000   1.0000   1.0000   1.0000   1.0000   1.0000
     1.0000   1.0000   1.0000   1.0000   1.0000   1.0000   1.0000   1.0000
     1.0004   1.0004   1.0304   1.0213   0.9854   0.9743   0.6192   0.4854
     0.1188   0.1037   0.0553   0.0458  -0.0325  -0.0268  -0.0218  -0.0174
    -0.0000  -0.0000  -0.0000  -0.0000  -0.0000  -0.0000

          k = 0.3750 0.3750-0.5000 (  9662 PWs)   bands (ev):

[...]
    11.8740  11.8740  11.8773  11.8773  12.3365  12.3365  12.3443  12.3443
    13.3038  13.3038  13.3093  13.3093  13.9519  13.9519  13.9585  13.9585
    14.0813  14.0813  14.0893  14.0893  14.6249  14.6249  14.6569  14.6569
    14.8254  14.8254  14.8657  14.8657  15.4502  15.4502  15.4694  15.4694
    16.4477  16.4477  16.4600  16.4600  17.1918  17.1922

     occupation numbers 
     1.0000   1.0000   1.0000   1.0000   1.0000   1.0000   1.0000   1.0000
     1.0000   1.0000   1.0000   1.0000   1.0000   1.0000   1.0000   1.0000
     1.0000   1.0000   1.0000   1.0000   1.0000   1.0000   1.0000   1.0000
     1.0000   1.0000   1.0000   1.0000   1.0000   1.0000   1.0000   1.0000
     1.0000   1.0000   1.0000   1.0000   1.0000   1.0000   1.0000   1.0000
     1.0000   1.0000   1.0000   1.0000   1.0000   1.0000   1.0000   1.0000
     1.0000   1.0000   1.0000   1.0000   1.0000   1.0000   1.0000   1.0000
     1.0000   1.0000   1.0000   1.0000   1.0000   1.0000   1.0000   1.0000
     1.0000   1.0000   1.0000   1.0000   1.0264   1.0264   1.0325   1.0325
     0.9228   0.9228   0.8238   0.8238  -0.0031  -0.0031  -0.0022  -0.0022
    -0.0000  -0.0000  -0.0000  -0.0000  -0.0000  -0.0000

          k =-0.1250 0.3750 0.2500 (  9647 PWs)   bands (ev):

   -56.4983 -56.4983 -56.4898 -56.4898 -56.4753 -56.4753 -56.4724 -56.4724
   -28.5812 -28.5772 -28.5706 -28.5691 -28.5367 -28.5342 -28.5124 -28.5113
   -27.6248 -27.6219 -27.5743 -27.5686 -27.5571 -27.5494 -27.5362 -27.5310
   -27.5141 -27.5044 -27.4790 -27.4729 -27.4592 -27.4473 -27.4299 -27.4277
     4.1371   4.1374   5.4895   5.4910   7.0405   7.0433   7.9709   7.9752
     9.4173   9.4199  10.2018  10.2031  10.9151  10.9166  11.5457  11.5493
    11.7473  11.7494  12.1904  12.1941  12.6600  12.6645  12.8622  12.8677
    13.0855  13.0901  13.2603  13.2721  13.4157  13.4189  13.6481  13.6594
    13.7978  13.8067  14.0801  14.0891  14.4909  14.5178  14.8224  14.8503
    15.0884  15.1076  15.1676  15.1852  15.4879  15.5000  15.6275  15.6459
    16.1996  16.2079  16.4202  16.4317  17.2576  17.2873

     occupation numbers 
     1.0000   1.0000   1.0000   1.0000   1.0000   1.0000   1.0000   1.0000
     1.0000   1.0000   1.0000   1.0000   1.0000   1.0000   1.0000   1.0000
     1.0000   1.0000   1.0000   1.0000   1.0000   1.0000   1.0000   1.0000
     1.0000   1.0000   1.0000   1.0000   1.0000   1.0000   1.0000   1.0000
     1.0000   1.0000   1.0000   1.0000   1.0000   1.0000   1.0000   1.0000
     1.0000   1.0000   1.0000   1.0000   1.0000   1.0000   1.0000   1.0000
     1.0000   1.0000   1.0000   1.0000   1.0000   1.0000   1.0000   1.0000
     1.0000   1.0000   1.0000   1.0000   1.0000   1.0000   1.0000   1.0000
     1.0000   1.0000   1.0000   1.0000   1.0049   1.0075   0.9287   0.8655
     0.0791   0.0436  -0.0212  -0.0293  -0.0015  -0.0012  -0.0001  -0.0000
    -0.0000  -0.0000  -0.0000  -0.0000  -0.0000  -0.0000

          k =-0.1250-0.5000 0.2500 (  9646 PWs)   bands (ev):

   -56.4940 -56.4940 -56.4940 -56.4940 -56.4739 -56.4739 -56.4739 -56.4739
   -28.5771 -28.5771 -28.5719 -28.5719 -28.5257 -28.5257 -28.5222 -28.5222
   -27.6225 -27.6225 -27.5704 -27.5704 -27.5555 -27.5555 -27.5272 -27.5272
   -27.5152 -27.5152 -27.4779 -27.4779 -27.4517 -27.4517 -27.4283 -27.4283
     4.7794   4.7794   4.7803   4.7803   7.4704   7.4704   7.4749   7.4749
     9.7732   9.7732   9.7743   9.7743  11.2725  11.2725  11.2776  11.2776
    11.9379  11.9379  11.9430  11.9430  12.7557  12.7557  12.7658  12.7658
    13.1602  13.1602  13.1689  13.1689  13.5618  13.5618  13.5701  13.5701
    13.9657  13.9657  13.9750  13.9750  14.6825  14.6825  14.7160  14.7160
    15.0823  15.0824  15.1074  15.1074  15.5351  15.5351  15.5570  15.5570
    16.2928  16.2928  16.3034  16.3034  17.4725  17.4819

     occupation numbers 
     1.0000   1.0000   1.0000   1.0000   1.0000   1.0000   1.0000   1.0000
     1.0000   1.0000   1.0000   1.0000   1.0000   1.0000   1.0000   1.0000
     1.0000   1.0000   1.0000   1.0000   1.0000   1.0000   1.0000   1.0000
     1.0000   1.0000   1.0000   1.0000   1.0000   1.0000   1.0000   1.0000
     1.0000   1.0000   1.0000   1.0000   1.0000   1.0000   1.0000   1.0000
     1.0000   1.0000   1.0000   1.0000   1.0000   1.0000   1.0000   1.0000
     1.0000   1.0000   1.0000   1.0000   1.0000   1.0000   1.0000   1.0000
     1.0000   1.0000   1.0000   1.0000   1.0000   1.0000   1.0000   1.0000
     1.0000   1.0000   1.0000   1.0000   1.0352   1.0352   1.0330   1.0330
     0.0919   0.0919   0.0440   0.0440  -0.0006  -0.0006  -0.0003  -0.0003
    -0.0000  -0.0000  -0.0000  -0.0000  -0.0000  -0.0000

          k =-0.1250-0.5000 0.3750 (  9656 PWs)   bands (ev):

   -56.4926 -56.4926 -56.4926 -56.4926 -56.4754 -56.4754 -56.4754 -56.4754
   -28.5723 -28.5723 -28.5687 -28.5687 -28.5301 -28.5301 -28.5273 -28.5273
   -27.6119 -27.6119 -27.5830 -27.5830 -27.5484 -27.5484 -27.5272 -27.5272
   -27.5165 -27.5165 -27.4907 -27.4907 -27.4417 -27.4417 -27.4285 -27.4285
     5.1719   5.1719   5.1729   5.1729   6.8564   6.8564   6.8592   6.8592
     9.9475   9.9475   9.9501   9.9501  11.1555  11.1555  11.1587  11.1587
    11.9557  11.9557  11.9611  11.9611  12.4587  12.4587  12.4680  12.4680
    13.2342  13.2342  13.2401  13.2401  13.7822  13.7822  13.7953  13.7953
    14.1942  14.1942  14.2027  14.2027  14.6807  14.6807  14.7075  14.7075
    14.8703  14.8703  14.9091  14.9091  15.4209  15.4209  15.4372  15.4372
    16.4164  16.4165  16.4277  16.4277  17.1525  17.1532

     occupation numbers 
     1.0000   1.0000   1.0000   1.0000   1.0000   1.0000   1.0000   1.0000
     1.0000   1.0000   1.0000   1.0000   1.0000   1.0000   1.0000   1.0000
     1.0000   1.0000   1.0000   1.0000   1.0000   1.0000   1.0000   1.0000
     1.0000   1.0000   1.0000   1.0000   1.0000   1.0000   1.0000   1.0000
     1.0000   1.0000   1.0000   1.0000   1.0000   1.0000   1.0000   1.0000
     1.0000   1.0000   1.0000   1.0000   1.0000   1.0000   1.0000   1.0000
     1.0000   1.0000   1.0000   1.0000   1.0000   1.0000   1.0000   1.0000
     1.0000   1.0000   1.0000   1.0000   1.0000   1.0000   1.0000   1.0000
     1.0000   1.0000   1.0000   1.0000   1.0352   1.0352   1.0344   1.0344
     0.8104   0.8104   0.6828   0.6828  -0.0052  -0.0052  -0.0039  -0.0039
    -0.0000  -0.0000  -0.0000  -0.0000  -0.0000  -0.0000

          k =-0.2500-0.5000 0.3750 (  9644 PWs)   bands (ev):

   -56.4909 -56.4909 -56.4909 -56.4909 -56.4770 -56.4770 -56.4770 -56.4770
   -28.5684 -28.5684 -28.5650 -28.5650 -28.5348 -28.5348 -28.5318 -28.5318
   -27.6070 -27.6070 -27.5798 -27.5798 -27.5593 -27.5593 -27.5348 -27.5348
   -27.5080 -27.5080 -27.4785 -27.4785 -27.4483 -27.4483 -27.4315 -27.4315
     5.4113   5.4113   5.4129   5.4129   6.9220   6.9220   6.9267   6.9267
     9.2752   9.2752   9.2799   9.2799  10.7788  10.7788  10.7815  10.7815
    12.2815  12.2815  12.2898  12.2898  12.7241  12.7241  12.7341  12.7341
    13.1120  13.1120  13.1210  13.1210  13.5302  13.5302  13.5420  13.5420
    14.3840  14.3840  14.3912  14.3912  14.8016  14.8016  14.8200  14.8200
    14.9984  14.9984  15.0300  15.0300  15.3378  15.3378  15.3519  15.3519
    16.3591  16.3591  16.3689  16.3690  17.0067  17.0073

     occupation numbers 
     1.0000   1.0000   1.0000   1.0000   1.0000   1.0000   1.0000   1.0000
     1.0000   1.0000   1.0000   1.0000   1.0000   1.0000   1.0000   1.0000
     1.0000   1.0000   1.0000   1.0000   1.0000   1.0000   1.0000   1.0000
     1.0000   1.0000   1.0000   1.0000   1.0000   1.0000   1.0000   1.0000
     1.0000   1.0000   1.0000   1.0000   1.0000   1.0000   1.0000   1.0000
     1.0000   1.0000   1.0000   1.0000   1.0000   1.0000   1.0000   1.0000
     1.0000   1.0000   1.0000   1.0000   1.0000   1.0000   1.0000   1.0000
     1.0000   1.0000   1.0000   1.0000   1.0000   1.0000   1.0000   1.0000
     1.0006   1.0006   1.0007   1.0007   0.9651   0.9651   0.9334   0.9334
     0.3437   0.3437   0.2343   0.2343  -0.0165  -0.0165  -0.0140  -0.0140
    -0.0000  -0.0000  -0.0000  -0.0000  -0.0000  -0.0000

     the Fermi energy is    14.9574 ev

!    total energy              =   -1180.35057463 Ry

     total all-electron energy =    -10727.811411 Ry
     estimated scf accuracy    <       0.00000077 Ry
     smearing contrib. (-TS)   =      -0.00024319 Ry
     internal energy E=F+TS    =   -1180.35033144 Ry

     The total energy is F=E-TS. E is the sum of the following terms:
     one-electron contribution =    -336.81061721 Ry
     hartree contribution      =     207.05614547 Ry
     xc contribution           =    -114.36346101 Ry
     ewald contribution        =    -496.51183961 Ry
     one-center paw contrib.   =    -439.72055908 Ry
      -> PAW hartree energy AE =     126.72415237 Ry
      -> PAW hartree energy PS =    -125.75683273 Ry
      -> PAW xc energy AE      =     -96.24052914 Ry
      -> PAW xc energy PS      =      20.93325079 Ry
      -> total E_H with PAW    =     208.02346511 Ry
      -> total E_XC with PAW   =    -189.67073936 Ry

     convergence has been achieved in   6 iterations

     Forces acting on atoms (cartesian axes, Ry/au):

     atom    1 type  1   force =    -0.00275487   -0.00275487    0.00275487
     atom    2 type  1   force =    -0.00275487    0.00275487   -0.00275487
     atom    3 type  1   force =     0.00275487   -0.00275487   -0.00275487
     atom    4 type  1   force =     0.00275487    0.00275487    0.00275487
     atom    5 type  2   force =    -0.00425551   -0.00425551    0.00425551
     atom    6 type  2   force =    -0.00425551    0.00425551   -0.00425551
     atom    7 type  2   force =     0.00425551   -0.00425551   -0.00425551
     atom    8 type  2   force =     0.00425551    0.00425551    0.00425551
     The non-local contrib.  to forces
     atom    1 type  1   force =     0.05130512    0.05130512   -0.05130512
     atom    2 type  1   force =     0.05130512   -0.05130512    0.05130512
     atom    3 type  1   force =    -0.05130512    0.05130512    0.05130512
     atom    4 type  1   force =    -0.05130512   -0.05130512   -0.05130512
     atom    5 type  2   force =    -0.00802697   -0.00802697    0.00802697
     atom    6 type  2   force =    -0.00802697    0.00802697   -0.00802697
     atom    7 type  2   force =     0.00802697   -0.00802697   -0.00802697
     atom    8 type  2   force =     0.00802697    0.00802697    0.00802697
     The ionic contribution  to forces
     atom    1 type  1   force =    -0.85044630   -0.85044630    0.85044630
     atom    2 type  1   force =    -0.85044630    0.85044630   -0.85044630
     atom    3 type  1   force =     0.85044630   -0.85044630   -0.85044630
     atom    4 type  1   force =     0.85044630    0.85044630    0.85044630
     atom    5 type  2   force =    -0.24524978   -0.24524978    0.24524978
     atom    6 type  2   force =    -0.24524978    0.24524978   -0.24524978
     atom    7 type  2   force =     0.24524978   -0.24524978   -0.24524978
     atom    8 type  2   force =     0.24524978    0.24524978    0.24524978
     The local contribution  to forces
     atom    1 type  1   force =     0.79760838    0.79760838   -0.79760838
     atom    2 type  1   force =     0.79760838   -0.79760838    0.79760838
     atom    3 type  1   force =    -0.79760838    0.79760838    0.79760838
     atom    4 type  1   force =    -0.79760838   -0.79760838   -0.79760838
     atom    5 type  2   force =     0.24820434    0.24820434   -0.24820434
     atom    6 type  2   force =     0.24820434   -0.24820434    0.24820434
     atom    7 type  2   force =    -0.24820434    0.24820434    0.24820434
     atom    8 type  2   force =    -0.24820434   -0.24820434   -0.24820434
     The core correction contribution to forces
     atom    1 type  1   force =    -0.00103282   -0.00103282    0.00103282
     atom    2 type  1   force =    -0.00103282    0.00103282   -0.00103282
     atom    3 type  1   force =     0.00103282   -0.00103282   -0.00103282
     atom    4 type  1   force =     0.00103282    0.00103282    0.00103282
     atom    5 type  2   force =     0.00079043    0.00079043   -0.00079043
     atom    6 type  2   force =     0.00079043   -0.00079043    0.00079043
     atom    7 type  2   force =    -0.00079043    0.00079043    0.00079043
     atom    8 type  2   force =    -0.00079043   -0.00079043   -0.00079043
     The Hubbard contrib.    to forces
     atom    1 type  1   force =     0.00000000    0.00000000    0.00000000
     atom    2 type  1   force =     0.00000000    0.00000000    0.00000000
     atom    3 type  1   force =     0.00000000    0.00000000    0.00000000
     atom    4 type  1   force =     0.00000000    0.00000000    0.00000000
     atom    5 type  2   force =     0.00000000    0.00000000    0.00000000
     atom    6 type  2   force =     0.00000000    0.00000000    0.00000000
     atom    7 type  2   force =     0.00000000    0.00000000    0.00000000
     atom    8 type  2   force =     0.00000000    0.00000000    0.00000000
     The SCF correction term to forces
     atom    1 type  1   force =    -0.00018925   -0.00018925    0.00018925
     atom    2 type  1   force =    -0.00018925    0.00018925   -0.00018925
     atom    3 type  1   force =     0.00018925   -0.00018925   -0.00018925
     atom    4 type  1   force =     0.00018925    0.00018925    0.00018925
     atom    5 type  2   force =     0.00002646    0.00002646   -0.00002646
     atom    6 type  2   force =     0.00002646   -0.00002646    0.00002646
     atom    7 type  2   force =    -0.00002646    0.00002646    0.00002646
     atom    8 type  2   force =    -0.00002646   -0.00002646   -0.00002646

     Total force =     0.017561     Total SCF correction =     0.000662


     Computing stress (Cartesian axis) and pressure

          total   stress  (Ry/bohr**3)                   (kbar)     P=      -41.21
  -0.00028013   0.00000000   0.00000000          -41.21        0.00        0.00
   0.00000000  -0.00028013   0.00000000            0.00      -41.21        0.00
   0.00000000   0.00000000  -0.00028013            0.00        0.00      -41.21

     kinetic stress (kbar)  35759.23      0.00      0.00
                                0.00  35759.23      0.00
                                0.00      0.00  35759.23

     local   stress (kbar) -10013.45     -0.00     -0.00
                               -0.00 -10013.45     -0.00
                               -0.00     -0.00 -10013.45

     nonloc. stress (kbar)   2428.69      0.00      0.00
                                0.00   2428.69      0.00
                                0.00      0.00   2428.69

     hartree stress (kbar)  15168.28     -0.00      0.00
                               -0.00  15168.28      0.00
                                0.00      0.00  15168.28

     exc-cor stress (kbar)  -1706.70      0.00     -0.00
                                0.00  -1706.70     -0.00
                               -0.00     -0.00  -1706.70

     corecor stress (kbar)  -5304.36     -0.00     -0.00
                               -0.00  -5304.36     -0.00
                               -0.00     -0.00  -5304.36

     ewald   stress (kbar) -36372.90      0.00      0.00
                                0.00 -36372.90      0.00
                                0.00      0.00 -36372.90

     hubbard stress (kbar)      0.00      0.00      0.00
                                0.00      0.00      0.00
                                0.00      0.00      0.00

     DFT-D   stress (kbar)      0.00      0.00      0.00
                                0.00      0.00      0.00
                                0.00      0.00      0.00

     XDM     stress (kbar)      0.00      0.00      0.00
                                0.00      0.00      0.00
                                0.00      0.00      0.00

     dft-nl  stress (kbar)      0.00      0.00      0.00
                                0.00      0.00      0.00
                                0.00      0.00      0.00

     TS-vdW  stress (kbar)      0.00      0.00      0.00
                                0.00      0.00      0.00
                                0.00      0.00      0.00



     Writing output data file /zfs_data/vergnior/martin/Scratch/OAL/CrSi/convergence/smearing/8x8x8/0.016/tmp/CrSi.save/
 
     init_run     :     11.18s CPU     11.63s WALL (       1 calls)
     electrons    :    249.25s CPU    254.34s WALL (       1 calls)
     forces       :     10.67s CPU     10.80s WALL (       1 calls)
     stress       :     28.39s CPU     28.73s WALL (       1 calls)

     Called by init_run:
     wfcinit      :      9.64s CPU      9.88s WALL (       1 calls)
     wfcinit:atom :      0.07s CPU      0.07s WALL (      45 calls)
     wfcinit:wfcr :      9.26s CPU      9.49s WALL (      45 calls)
     potinit      :      0.26s CPU      0.34s WALL (       1 calls)
     hinit0       :      0.22s CPU      0.24s WALL (       1 calls)

     Called by electrons:
     c_bands      :    198.86s CPU    202.00s WALL (       7 calls)
     sum_band     :     45.10s CPU     46.44s WALL (       7 calls)
     v_of_rho     :      0.25s CPU      0.26s WALL (       7 calls)
     v_h          :      0.02s CPU      0.02s WALL (       7 calls)
     v_xc         :      0.30s CPU      0.31s WALL (       9 calls)
     newd         :      4.37s CPU      5.00s WALL (       7 calls)
     PAW_pot      :      1.21s CPU      1.23s WALL (       7 calls)
     mix_rho      :      0.14s CPU      0.14s WALL (       7 calls)

     Called by c_bands:
     init_us_2    :      1.03s CPU      1.05s WALL (     765 calls)
     cegterg      :    183.56s CPU    186.56s WALL (     315 calls)

     Called by sum_band:
     sum_band:wei :      0.05s CPU      0.05s WALL (       7 calls)
     sum_band:loo :     41.56s CPU     42.11s WALL (       7 calls)
     sum_band:buf :      0.24s CPU      0.28s WALL (     315 calls)
     sum_band:ini :      0.44s CPU      0.45s WALL (     315 calls)
     sum_band:cal :      2.37s CPU      2.38s WALL (     315 calls)
     sum_band:bec :      4.89s CPU      4.90s WALL (     315 calls)
     addusdens    :      3.24s CPU      4.02s WALL (       7 calls)
     addusd:skk   :      0.00s CPU      0.01s WALL (      14 calls)
     addusd:dgemm :      1.26s CPU      2.02s WALL (      14 calls)
     addusd:qvan2 :      1.93s CPU      1.94s WALL (      14 calls)

     Called by *egterg:
     cdiaghg      :     14.05s CPU     14.12s WALL (    1651 calls)
     cegterg:over :     11.15s CPU     11.19s WALL (    1381 calls)
     cegterg:upda :      4.33s CPU      4.36s WALL (    1381 calls)
     cegterg:last :      8.10s CPU      8.13s WALL (     844 calls)
     h_psi        :    133.21s CPU    136.16s WALL (    1741 calls)
     s_psi        :     16.33s CPU     16.40s WALL (    1741 calls)
     g_psi        :      0.28s CPU      0.29s WALL (    1381 calls)

     Called by h_psi:
     h_psi:calbec :      8.23s CPU      8.29s WALL (    1741 calls)
     vloc_psi     :    109.54s CPU    112.30s WALL (    1741 calls)
     add_vuspsi   :     14.70s CPU     14.81s WALL (    1741 calls)

     General routines
     calbec       :     12.31s CPU     12.40s WALL (    2281 calls)
     fft          :      0.32s CPU      0.33s WALL (     172 calls)
     ffts         :      0.03s CPU      0.09s WALL (      56 calls)
     fftw         :     86.62s CPU     88.58s WALL (  422180 calls)
     interpolate  :      0.08s CPU      0.14s WALL (      28 calls)
 
     Parallel routines
     fft_scatt_xy :      8.91s CPU      9.12s WALL (  422408 calls)
     fft_scatt_yz :     33.91s CPU     34.69s WALL (  422408 calls)

     PAW routines
     PAW_pot      :      1.21s CPU      1.23s WALL (       7 calls)
     PAW_symme    :      0.02s CPU      0.02s WALL (      14 calls)
 
     PWSCF        :   5m 3.51s CPU   5m11.46s WALL

 
   This run was terminated on:  12:50:34   1Aug2021            

=------------------------------------------------------------------------------=
   JOB DONE.
=------------------------------------------------------------------------------=
