
     Program PWSCF v.6.7MaX starts on 18May2022 at 15:54: 6 

     This program is part of the open-source Quantum ESPRESSO suite
     for quantum simulation of materials; please cite
         "P. Giannozzi et al., J. Phys.:Condens. Matter 21 395502 (2009);
         "P. Giannozzi et al., J. Phys.:Condens. Matter 29 465901 (2017);
          URL http://www.quantum-espresso.org", 
     in publications or presentations arising from this work. More details at
     http://www.quantum-espresso.org/quote

     Parallel version (MPI), running on    48 processors

     MPI processes distributed on     1 nodes
     R & G space division:  proc/nbgrp/npool/nimage =      48
     Waiting for input...
     Reading input from standard input

     Current dimensions of program PWSCF are:
     Max number of different atomic species (ntypx) = 10
     Max number of k-points (npk) =  40000
     Max angular momentum in pseudopotentials (lmaxx) =  3
     file O.pbe-nl-kjpaw_psl.1.0.0.UPF: wavefunction(s)  2S 2P renormalized
     file Cl.pbe-nl-kjpaw_psl.1.0.0.UPF: wavefunction(s)  3S renormalized
     file Nb.pbe-spn-kjpaw_psl.1.0.0.UPF: wavefunction(s)  4S 4P 4D renormalized

     Subspace diagonalization in iterative solution of the eigenvalue problem:
     a serial algorithm will be used

     Message from routine setup:
     using ibrav=0 with symmetry is DISCOURAGED, use correct ibrav instead
 
     Parallelization info
     --------------------
     sticks:   dense  smooth     PW     G-vecs:    dense   smooth      PW
     Min         113      45     15                 2831      717     143
     Max         114      46     16                 2832      718     145
     Sum        5431    2167    747               135907    34429    6903
 


     bravais-lattice index     =            0
     lattice parameter (alat)  =      12.6717  a.u.
     unit-cell volume          =     547.9313 (a.u.)^3
     number of atoms/cell      =            4
     number of atomic types    =            3
     number of electrons       =        33.00
     number of Kohn-Sham states=           21
     kinetic-energy cutoff     =      60.0000  Ry
     charge density cutoff     =     600.0000  Ry
     scf convergence threshold =      1.0E-10
     mixing beta               =       0.7000
     number of iterations used =            8  plain     mixing
     Exchange-correlation= SLA  PW   PBX  PBC
                           (   1   4   3   4   0   0   0)

     celldm(1)=  12.671676  celldm(2)=   0.000000  celldm(3)=   0.000000
     celldm(4)=   0.000000  celldm(5)=   0.000000  celldm(6)=   0.000000

     crystal axes: (cart. coord. in units of alat)
               a(1) = (  -0.250426   0.291161   0.923316 )  
               a(2) = (   0.250426  -0.291161   0.923316 )  
               a(3) = (   0.250426   0.291161  -0.923316 )  

     reciprocal axes: (cart. coord. in units 2 pi/alat)
               b(1) = (  0.000000  1.717261  0.541527 )  
               b(2) = (  1.996594  0.000000  0.541527 )  
               b(3) = (  1.996594  1.717261  0.000000 )  


     PseudoPot. # 1 for O  read from file:
     /zfs_data/gutierre/Scratch/Cl2NbO/convergence/cutoff/10x10x10/60/pseudo/O.pbe-nl-kjpaw_psl.1.0.0.UPF
     MD5 check sum: df3ddea38124b4e5de5e1084591730e4
     Pseudo is Projector augmented-wave + core cor, Zval =  6.0
     Generated using 'atomic' code by A. Dal Corso  v.6.7MaX
     Shape of augmentation charge: PSQ
     Using radial grid of 1095 points,  4 beta functions with: 
                l(1) =   0
                l(2) =   0
                l(3) =   1
                l(4) =   1
     Q(r) pseudized with 0 coefficients 


     PseudoPot. # 2 for Cl read from file:
     /zfs_data/gutierre/Scratch/Cl2NbO/convergence/cutoff/10x10x10/60/pseudo/Cl.pbe-nl-kjpaw_psl.1.0.0.UPF
     MD5 check sum: 8cf6bde52c08f6236e0f72a8870677af
     Pseudo is Projector augmented-wave + core cor, Zval =  7.0
     Generated using 'atomic' code by A. Dal Corso  v.6.7MaX
     Shape of augmentation charge: PSQ
     Using radial grid of 1157 points,  4 beta functions with: 
                l(1) =   0
                l(2) =   0
                l(3) =   1
                l(4) =   1
     Q(r) pseudized with 0 coefficients 


     PseudoPot. # 3 for Nb read from file:
     /zfs_data/gutierre/Scratch/Cl2NbO/convergence/cutoff/10x10x10/60/pseudo/Nb.pbe-spn-kjpaw_psl.1.0.0.UPF
     MD5 check sum: 1ec1a3aa7bf3cbf7f7e0d720422bce7a
     Pseudo is Projector augmented-wave + core cor, Zval = 13.0
     Generated using 'atomic' code by A. Dal Corso  v.6.7MaX
     Shape of augmentation charge: PSQ
     Using radial grid of 1227 points,  6 beta functions with: 
                l(1) =   0
                l(2) =   0
                l(3) =   1
                l(4) =   1
                l(5) =   2
                l(6) =   2
     Q(r) pseudized with 0 coefficients 


     atomic species   valence    mass     pseudopotential
        O              6.00    15.99940     O ( 1.00)
        Cl             7.00    35.45150     Cl( 1.00)
        Nb            13.00    92.90637     Nb( 1.00)

      8 Sym. Ops., with inversion, found


                                    s                        frac. trans.

      isym =  1     identity                                     

 cryst.   s( 1) = (     1          0          0      )
                  (     0          1          0      )
                  (     0          0          1      )

 cart.    s( 1) = (  1.0000000  0.0000000  0.0000000 )
                  (  0.0000000  1.0000000  0.0000000 )
                  (  0.0000000  0.0000000  1.0000000 )


      isym =  2     180 deg rotation - cart. axis [0,0,1]        

 cryst.   s( 2) = (     0          1          0      )
                  (     1          0          0      )
                  (    -1         -1         -1      )

 cart.    s( 2) = ( -1.0000000  0.0000000  0.0000000 )
                  (  0.0000000 -1.0000000  0.0000000 )
                  (  0.0000000  0.0000000  1.0000000 )


      isym =  3     180 deg rotation - cart. axis [0,1,0]        

 cryst.   s( 3) = (     0          0          1      )
                  (    -1         -1         -1      )
                  (     1          0          0      )

 cart.    s( 3) = ( -1.0000000  0.0000000  0.0000000 )
                  (  0.0000000  1.0000000  0.0000000 )
                  (  0.0000000  0.0000000 -1.0000000 )


      isym =  4     180 deg rotation - cart. axis [1,0,0]        

 cryst.   s( 4) = (    -1         -1         -1      )
                  (     0          0          1      )
                  (     0          1          0      )

 cart.    s( 4) = (  1.0000000  0.0000000  0.0000000 )
                  (  0.0000000 -1.0000000  0.0000000 )
                  (  0.0000000  0.0000000 -1.0000000 )


      isym =  5     inversion                                    

 cryst.   s( 5) = (    -1          0          0      )
                  (     0         -1          0      )
                  (     0          0         -1      )

 cart.    s( 5) = ( -1.0000000  0.0000000  0.0000000 )
                  (  0.0000000 -1.0000000  0.0000000 )
                  (  0.0000000  0.0000000 -1.0000000 )


      isym =  6     inv. 180 deg rotation - cart. axis [0,0,1]   

 cryst.   s( 6) = (     0         -1          0      )
                  (    -1          0          0      )
                  (     1          1          1      )

 cart.    s( 6) = (  1.0000000  0.0000000  0.0000000 )
                  (  0.0000000  1.0000000  0.0000000 )
                  (  0.0000000  0.0000000 -1.0000000 )


      isym =  7     inv. 180 deg rotation - cart. axis [0,1,0]   

 cryst.   s( 7) = (     0          0         -1      )
                  (     1          1          1      )
                  (    -1          0          0      )

 cart.    s( 7) = (  1.0000000  0.0000000  0.0000000 )
                  (  0.0000000 -1.0000000  0.0000000 )
                  (  0.0000000  0.0000000  1.0000000 )


      isym =  8     inv. 180 deg rotation - cart. axis [1,0,0]   

 cryst.   s( 8) = (     1          1          1      )
                  (     0          0         -1      )
                  (     0         -1          0      )

 cart.    s( 8) = ( -1.0000000  0.0000000  0.0000000 )
                  (  0.0000000  1.0000000  0.0000000 )
                  (  0.0000000  0.0000000  1.0000000 )


   Cartesian axes

     site n.     atom                  positions (alat units)
         1           O   tau(   1) = (   0.0000000   0.2911613   0.0000000  )
         2           Cl  tau(   2) = (  -0.0000000   0.2911613   0.6365338  )
         3           Cl  tau(   3) = (   0.2504264  -0.0000000   0.2867819  )
         4           Nb  tau(   4) = (   0.0000000   0.0000000   0.0000000  )

   Crystallographic axes

     site n.     atom                  positions (cryst. coord.)
         1           O   tau(   1) = (  0.5000000  0.0000000  0.5000000  )
         2           Cl  tau(   2) = (  0.8447000  0.3447000  0.5000000  )
         3           Cl  tau(   3) = (  0.1553000  0.6553000  0.5000000  )
         4           Nb  tau(   4) = (  0.0000000  0.0000000  0.0000000  )

     number of k points=   171  Methfessel-Paxton smearing, width (Ry)=  0.0120
                       cart. coord. in units 2pi/alat
        k(    1) = (   0.0000000   0.0000000   0.0000000), wk =   0.0020000
        k(    2) = (   0.1996594   0.1717261   0.0000000), wk =   0.0080000
        k(    3) = (   0.3993189   0.3434523   0.0000000), wk =   0.0080000
        k(    4) = (   0.5989783   0.5151784   0.0000000), wk =   0.0080000
        k(    5) = (   0.7986377   0.6869045   0.0000000), wk =   0.0080000
        k(    6) = (  -0.9982971  -0.8586307   0.0000000), wk =   0.0040000
        k(    7) = (   0.1996594   0.0000000   0.0541527), wk =   0.0080000
        k(    8) = (   0.3993189   0.1717261   0.0541527), wk =   0.0160000
        k(    9) = (   0.5989783   0.3434523   0.0541527), wk =   0.0160000
        k(   10) = (   0.7986377   0.5151784   0.0541527), wk =   0.0160000
        k(   11) = (   0.9982971   0.6869045   0.0541527), wk =   0.0160000
        k(   12) = (  -0.7986377  -0.8586307   0.0541527), wk =   0.0160000
        k(   13) = (  -0.5989783  -0.6869045   0.0541527), wk =   0.0160000
        k(   14) = (  -0.3993189  -0.5151784   0.0541527), wk =   0.0160000
        k(   15) = (  -0.1996594  -0.3434523   0.0541527), wk =   0.0160000
        k(   16) = (   0.0000000  -0.1717261   0.0541527), wk =   0.0080000
        k(   17) = (   0.3993189   0.0000000   0.1083053), wk =   0.0080000
        k(   18) = (   0.5989783   0.1717261   0.1083053), wk =   0.0160000
        k(   19) = (   0.7986377   0.3434523   0.1083053), wk =   0.0160000
        k(   20) = (   0.9982971   0.5151784   0.1083053), wk =   0.0160000
        k(   21) = (   1.1979566   0.6869045   0.1083053), wk =   0.0160000
        k(   22) = (  -0.5989783  -0.8586307   0.1083053), wk =   0.0160000
        k(   23) = (  -0.3993189  -0.6869045   0.1083053), wk =   0.0160000
        k(   24) = (  -0.1996594  -0.5151784   0.1083053), wk =   0.0160000
        k(   25) = (   0.0000000  -0.3434523   0.1083053), wk =   0.0080000
        k(   26) = (   0.1996594  -0.1717261   0.1083053), wk =   0.0160000
        k(   27) = (   0.5989783   0.0000000   0.1624580), wk =   0.0080000
        k(   28) = (   0.7986377   0.1717261   0.1624580), wk =   0.0160000
        k(   29) = (   0.9982971   0.3434523   0.1624580), wk =   0.0160000
        k(   30) = (   1.1979566   0.5151784   0.1624580), wk =   0.0160000
        k(   31) = (   1.3976160   0.6869045   0.1624580), wk =   0.0160000
        k(   32) = (  -0.3993189  -0.8586307   0.1624580), wk =   0.0160000
        k(   33) = (  -0.1996594  -0.6869045   0.1624580), wk =   0.0160000
        k(   34) = (  -0.0000000  -0.5151784   0.1624580), wk =   0.0080000
        k(   35) = (   0.1996594  -0.3434523   0.1624580), wk =   0.0160000
        k(   36) = (   0.3993189  -0.1717261   0.1624580), wk =   0.0160000
        k(   37) = (   0.7986377   0.0000000   0.2166107), wk =   0.0080000
        k(   38) = (   0.9982971   0.1717261   0.2166107), wk =   0.0160000
        k(   39) = (   1.1979566   0.3434523   0.2166107), wk =   0.0160000
        k(   40) = (   1.3976160   0.5151784   0.2166107), wk =   0.0160000
        k(   41) = (   1.5972754   0.6869045   0.2166107), wk =   0.0160000
        k(   42) = (  -0.1996594  -0.8586307   0.2166107), wk =   0.0160000
        k(   43) = (   0.0000000  -0.6869045   0.2166107), wk =   0.0080000
        k(   44) = (   0.1996594  -0.5151784   0.2166107), wk =   0.0160000
        k(   45) = (   0.3993189  -0.3434523   0.2166107), wk =   0.0160000
        k(   46) = (   0.5989783  -0.1717261   0.2166107), wk =   0.0160000
        k(   47) = (  -0.9982971   0.0000000  -0.2707633), wk =   0.0040000
        k(   48) = (  -0.7986377   0.1717261  -0.2707633), wk =   0.0160000
        k(   49) = (  -0.5989783   0.3434523  -0.2707633), wk =   0.0160000
        k(   50) = (  -0.3993189   0.5151784  -0.2707633), wk =   0.0160000
        k(   51) = (  -0.1996594   0.6869045  -0.2707633), wk =   0.0160000
        k(   52) = (  -1.9965943  -0.8586307  -0.2707633), wk =   0.0040000
        k(   53) = (   0.3993189   0.3434523   0.1083053), wk =   0.0160000
        k(   54) = (   0.5989783   0.5151784   0.1083053), wk =   0.0160000
        k(   55) = (   0.7986377   0.6869045   0.1083053), wk =   0.0160000
        k(   56) = (   0.9982971   0.8586307   0.1083053), wk =   0.0080000
        k(   57) = (   0.0000000   0.0000000   0.1083053), wk =   0.0040000
        k(   58) = (   0.5989783   0.3434523   0.1624580), wk =   0.0160000
        k(   59) = (   0.7986377   0.5151784   0.1624580), wk =   0.0160000
        k(   60) = (   0.9982971   0.6869045   0.1624580), wk =   0.0160000
        k(   61) = (   1.1979566   0.8586307   0.1624580), wk =   0.0160000
        k(   62) = (  -0.5989783  -0.6869045   0.1624580), wk =   0.0160000
        k(   63) = (  -0.3993189  -0.5151784   0.1624580), wk =   0.0160000
        k(   64) = (   0.0000000  -0.1717261   0.1624580), wk =   0.0080000
        k(   65) = (   0.1996594   0.0000000   0.1624580), wk =   0.0080000
        k(   66) = (   0.7986377   0.3434523   0.2166107), wk =   0.0160000
        k(   67) = (   0.9982971   0.5151784   0.2166107), wk =   0.0160000
        k(   68) = (   1.1979566   0.6869045   0.2166107), wk =   0.0160000
        k(   69) = (   1.3976160   0.8586307   0.2166107), wk =   0.0160000
        k(   70) = (  -0.3993189  -0.6869045   0.2166107), wk =   0.0160000
        k(   71) = (  -0.0000000  -0.3434523   0.2166107), wk =   0.0080000
        k(   72) = (   0.1996594  -0.1717261   0.2166107), wk =   0.0160000
        k(   73) = (   0.3993189   0.0000000   0.2166107), wk =   0.0080000
        k(   74) = (   0.9982971   0.3434523   0.2707633), wk =   0.0080000
        k(   75) = (   1.1979566   0.5151784   0.2707633), wk =   0.0160000
        k(   76) = (   1.3976160   0.6869045   0.2707633), wk =   0.0160000
        k(   77) = (   1.5972754   0.8586307   0.2707633), wk =   0.0080000
        k(   78) = (   0.0000000  -0.5151784   0.2707633), wk =   0.0080000
        k(   79) = (   0.1996594  -0.3434523   0.2707633), wk =   0.0160000
        k(   80) = (   0.3993189  -0.1717261   0.2707633), wk =   0.0160000
        k(   81) = (   0.5989783   0.0000000   0.2707633), wk =   0.0080000
        k(   82) = (  -0.5989783   0.5151784  -0.2166107), wk =   0.0160000
        k(   83) = (  -1.9965943  -0.6869045  -0.2166107), wk =   0.0080000
        k(   84) = (  -1.7969349  -0.5151784  -0.2166107), wk =   0.0160000
        k(   85) = (  -1.5972754  -0.3434523  -0.2166107), wk =   0.0160000
        k(   86) = (  -1.3976160  -0.1717261  -0.2166107), wk =   0.0160000
        k(   87) = (  -1.1979566   0.0000000  -0.2166107), wk =   0.0080000
        k(   88) = (   0.0000000   0.8586307  -0.1624580), wk =   0.0080000
        k(   89) = (  -1.7969349  -0.6869045  -0.1624580), wk =   0.0160000
        k(   90) = (  -1.5972754  -0.5151784  -0.1624580), wk =   0.0160000
        k(   91) = (  -1.3976160  -0.3434523  -0.1624580), wk =   0.0160000
        k(   92) = (  -1.1979566  -0.1717261  -0.1624580), wk =   0.0160000
        k(   93) = (  -0.9982971   0.0000000  -0.1624580), wk =   0.0080000
        k(   94) = (  -0.0000000   0.6869045  -0.1083053), wk =   0.0080000
        k(   95) = (   0.1996594   0.8586307  -0.1083053), wk =   0.0160000
        k(   96) = (  -1.5972754  -0.6869045  -0.1083053), wk =   0.0160000
        k(   97) = (  -1.3976160  -0.5151784  -0.1083053), wk =   0.0160000
        k(   98) = (  -1.1979566  -0.3434523  -0.1083053), wk =   0.0160000
        k(   99) = (  -0.9982971  -0.1717261  -0.1083053), wk =   0.0160000
        k(  100) = (  -0.7986377   0.0000000  -0.1083053), wk =   0.0080000
        k(  101) = (   0.0000000   0.5151784  -0.0541527), wk =   0.0080000
        k(  102) = (   0.1996594   0.6869045  -0.0541527), wk =   0.0160000
        k(  103) = (   0.3993189   0.8586307  -0.0541527), wk =   0.0160000
        k(  104) = (  -1.3976160  -0.6869045  -0.0541527), wk =   0.0160000
        k(  105) = (  -1.1979566  -0.5151784  -0.0541527), wk =   0.0160000
        k(  106) = (  -0.9982971  -0.3434523  -0.0541527), wk =   0.0160000
        k(  107) = (  -0.7986377  -0.1717261  -0.0541527), wk =   0.0160000
        k(  108) = (  -0.5989783   0.0000000  -0.0541527), wk =   0.0080000
        k(  109) = (   0.0000000   0.3434523   0.0000000), wk =   0.0040000
        k(  110) = (   0.1996594   0.5151784   0.0000000), wk =   0.0080000
        k(  111) = (   0.3993189   0.6869045   0.0000000), wk =   0.0080000
        k(  112) = (   0.5989783   0.8586307   0.0000000), wk =   0.0080000
        k(  113) = (  -1.1979566  -0.6869045   0.0000000), wk =   0.0080000
        k(  114) = (  -0.9982971  -0.5151784   0.0000000), wk =   0.0080000
        k(  115) = (  -0.7986377  -0.3434523   0.0000000), wk =   0.0080000
        k(  116) = (  -0.5989783  -0.1717261   0.0000000), wk =   0.0080000
        k(  117) = (  -0.3993189   0.0000000   0.0000000), wk =   0.0040000
        k(  118) = (   0.7986377   0.6869045   0.2166107), wk =   0.0160000
        k(  119) = (   0.9982971   0.8586307   0.2166107), wk =   0.0080000
        k(  120) = (   0.0000000   0.0000000   0.2166107), wk =   0.0040000
        k(  121) = (   0.9982971   0.6869045   0.2707633), wk =   0.0080000
        k(  122) = (   1.1979566   0.8586307   0.2707633), wk =   0.0080000
        k(  123) = (  -0.0000000  -0.1717261   0.2707633), wk =   0.0080000
        k(  124) = (   0.1996594   0.0000000   0.2707633), wk =   0.0080000
        k(  125) = (   0.0000000  -0.3434523   0.3249160), wk =   0.0080000
        k(  126) = (   0.1996594  -0.1717261   0.3249160), wk =   0.0160000
        k(  127) = (   0.3993189   0.0000000   0.3249160), wk =   0.0080000
        k(  128) = (  -1.9965943  -0.5151784  -0.1624580), wk =   0.0080000
        k(  129) = (  -1.7969349  -0.3434523  -0.1624580), wk =   0.0160000
        k(  130) = (  -1.5972754  -0.1717261  -0.1624580), wk =   0.0160000
        k(  131) = (  -1.3976160   0.0000000  -0.1624580), wk =   0.0080000
        k(  132) = (   0.0000000   1.0303568  -0.1083053), wk =   0.0080000
        k(  133) = (  -1.7969349  -0.5151784  -0.1083053), wk =   0.0160000
        k(  134) = (  -1.5972754  -0.3434523  -0.1083053), wk =   0.0160000
        k(  135) = (  -1.3976160  -0.1717261  -0.1083053), wk =   0.0160000
        k(  136) = (  -1.1979566   0.0000000  -0.1083053), wk =   0.0080000
        k(  137) = (  -0.0000000   0.8586307  -0.0541527), wk =   0.0080000
        k(  138) = (   0.1996594   1.0303568  -0.0541527), wk =   0.0160000
        k(  139) = (  -1.5972754  -0.5151784  -0.0541527), wk =   0.0160000
        k(  140) = (  -1.3976160  -0.3434523  -0.0541527), wk =   0.0160000
        k(  141) = (  -1.1979566  -0.1717261  -0.0541527), wk =   0.0160000
        k(  142) = (  -0.9982971   0.0000000  -0.0541527), wk =   0.0080000
        k(  143) = (   0.0000000   0.6869045   0.0000000), wk =   0.0040000
        k(  144) = (   0.1996594   0.8586307   0.0000000), wk =   0.0080000
        k(  145) = (   0.3993189   1.0303568   0.0000000), wk =   0.0080000
        k(  146) = (  -1.3976160  -0.5151784   0.0000000), wk =   0.0080000
        k(  147) = (  -1.1979566  -0.3434523   0.0000000), wk =   0.0080000
        k(  148) = (  -0.9982971  -0.1717261   0.0000000), wk =   0.0080000
        k(  149) = (  -0.7986377   0.0000000   0.0000000), wk =   0.0040000
        k(  150) = (  -0.0000000   0.0000000   0.3249160), wk =   0.0040000
        k(  151) = (   0.0000000  -0.1717261   0.3790686), wk =   0.0080000
        k(  152) = (   0.1996594   0.0000000   0.3790686), wk =   0.0080000
        k(  153) = (  -1.9965943  -0.3434523  -0.1083053), wk =   0.0080000
        k(  154) = (  -1.7969349  -0.1717261  -0.1083053), wk =   0.0160000
        k(  155) = (  -1.5972754   0.0000000  -0.1083053), wk =   0.0080000
        k(  156) = (   0.0000000   1.2020829  -0.0541527), wk =   0.0080000
        k(  157) = (  -1.7969349  -0.3434523  -0.0541527), wk =   0.0160000
        k(  158) = (  -1.5972754  -0.1717261  -0.0541527), wk =   0.0160000
        k(  159) = (  -1.3976160   0.0000000  -0.0541527), wk =   0.0080000
        k(  160) = (  -0.0000000   1.0303568  -0.0000000), wk =   0.0040000
        k(  161) = (   0.1996594   1.2020829  -0.0000000), wk =   0.0080000
        k(  162) = (  -1.5972754  -0.3434523  -0.0000000), wk =   0.0080000
        k(  163) = (  -1.3976160  -0.1717261  -0.0000000), wk =   0.0080000
        k(  164) = (  -1.1979566   0.0000000  -0.0000000), wk =   0.0040000
        k(  165) = (   0.0000000   0.0000000   0.4332213), wk =   0.0040000
        k(  166) = (  -1.9965943  -0.1717261  -0.0541527), wk =   0.0080000
        k(  167) = (  -1.7969349   0.0000000  -0.0541527), wk =   0.0080000
        k(  168) = (   0.0000000   1.3738091   0.0000000), wk =   0.0040000
        k(  169) = (  -1.7969349  -0.1717261   0.0000000), wk =   0.0080000
        k(  170) = (  -1.5972754   0.0000000   0.0000000), wk =   0.0040000
        k(  171) = (  -1.9965943  -1.7172613  -0.5415266), wk =   0.0020000

                       cryst. coord.
        k(    1) = (   0.0000000   0.0000000   0.0000000), wk =   0.0020000
        k(    2) = (  -0.0000000   0.0000000   0.1000000), wk =   0.0080000
        k(    3) = (  -0.0000000   0.0000000   0.2000000), wk =   0.0080000
        k(    4) = (   0.0000000   0.0000000   0.3000000), wk =   0.0080000
        k(    5) = (  -0.0000000   0.0000000   0.4000000), wk =   0.0080000
        k(    6) = (   0.0000000   0.0000000  -0.5000000), wk =   0.0040000
        k(    7) = (  -0.0000000   0.1000000   0.0000000), wk =   0.0080000
        k(    8) = (  -0.0000000   0.1000000   0.1000000), wk =   0.0160000
        k(    9) = (  -0.0000000   0.1000000   0.2000000), wk =   0.0160000
        k(   10) = (  -0.0000000   0.1000000   0.3000000), wk =   0.0160000
        k(   11) = (  -0.0000000   0.1000000   0.4000000), wk =   0.0160000
        k(   12) = (   0.0000000   0.1000000  -0.5000000), wk =   0.0160000
        k(   13) = (   0.0000000   0.1000000  -0.4000000), wk =   0.0160000
        k(   14) = (   0.0000000   0.1000000  -0.3000000), wk =   0.0160000
        k(   15) = (   0.0000000   0.1000000  -0.2000000), wk =   0.0160000
        k(   16) = (   0.0000000   0.1000000  -0.1000000), wk =   0.0080000
        k(   17) = (  -0.0000000   0.2000000   0.0000000), wk =   0.0080000
        k(   18) = (  -0.0000000   0.2000000   0.1000000), wk =   0.0160000
        k(   19) = (  -0.0000000   0.2000000   0.2000000), wk =   0.0160000
        k(   20) = (   0.0000000   0.2000000   0.3000000), wk =   0.0160000
        k(   21) = (  -0.0000000   0.2000000   0.4000000), wk =   0.0160000
        k(   22) = (   0.0000000   0.2000000  -0.5000000), wk =   0.0160000
        k(   23) = (   0.0000000   0.2000000  -0.4000000), wk =   0.0160000
        k(   24) = (   0.0000000   0.2000000  -0.3000000), wk =   0.0160000
        k(   25) = (   0.0000000   0.2000000  -0.2000000), wk =   0.0080000
        k(   26) = (   0.0000000   0.2000000  -0.1000000), wk =   0.0160000
        k(   27) = (   0.0000000   0.3000000   0.0000000), wk =   0.0080000
        k(   28) = (  -0.0000000   0.3000000   0.1000000), wk =   0.0160000
        k(   29) = (   0.0000000   0.3000000   0.2000000), wk =   0.0160000
        k(   30) = (   0.0000000   0.3000000   0.3000000), wk =   0.0160000
        k(   31) = (  -0.0000000   0.3000000   0.4000000), wk =   0.0160000
        k(   32) = (   0.0000000   0.3000000  -0.5000000), wk =   0.0160000
        k(   33) = (   0.0000000   0.3000000  -0.4000000), wk =   0.0160000
        k(   34) = (   0.0000000   0.3000000  -0.3000000), wk =   0.0080000
        k(   35) = (   0.0000000   0.3000000  -0.2000000), wk =   0.0160000
        k(   36) = (   0.0000000   0.3000000  -0.1000000), wk =   0.0160000
        k(   37) = (  -0.0000000   0.4000000   0.0000000), wk =   0.0080000
        k(   38) = (  -0.0000000   0.4000000   0.1000000), wk =   0.0160000
        k(   39) = (  -0.0000000   0.4000000   0.2000000), wk =   0.0160000
        k(   40) = (  -0.0000000   0.4000000   0.3000000), wk =   0.0160000
        k(   41) = (  -0.0000000   0.4000000   0.4000000), wk =   0.0160000
        k(   42) = (   0.0000000   0.4000000  -0.5000000), wk =   0.0160000
        k(   43) = (   0.0000000   0.4000000  -0.4000000), wk =   0.0080000
        k(   44) = (   0.0000000   0.4000000  -0.3000000), wk =   0.0160000
        k(   45) = (   0.0000000   0.4000000  -0.2000000), wk =   0.0160000
        k(   46) = (  -0.0000000   0.4000000  -0.1000000), wk =   0.0160000
        k(   47) = (   0.0000000  -0.5000000   0.0000000), wk =   0.0040000
        k(   48) = (   0.0000000  -0.5000000   0.1000000), wk =   0.0160000
        k(   49) = (   0.0000000  -0.5000000   0.2000000), wk =   0.0160000
        k(   50) = (   0.0000000  -0.5000000   0.3000000), wk =   0.0160000
        k(   51) = (   0.0000000  -0.5000000   0.4000000), wk =   0.0160000
        k(   52) = (   0.0000000  -0.5000000  -0.5000000), wk =   0.0040000
        k(   53) = (   0.1000000   0.1000000   0.1000000), wk =   0.0160000
        k(   54) = (   0.1000000   0.1000000   0.2000000), wk =   0.0160000
        k(   55) = (   0.1000000   0.1000000   0.3000000), wk =   0.0160000
        k(   56) = (   0.1000000   0.1000000   0.4000000), wk =   0.0080000
        k(   57) = (   0.1000000   0.1000000  -0.1000000), wk =   0.0040000
        k(   58) = (   0.1000000   0.2000000   0.1000000), wk =   0.0160000
        k(   59) = (   0.1000000   0.2000000   0.2000000), wk =   0.0160000
        k(   60) = (   0.1000000   0.2000000   0.3000000), wk =   0.0160000
        k(   61) = (   0.1000000   0.2000000   0.4000000), wk =   0.0160000
        k(   62) = (   0.1000000   0.2000000  -0.5000000), wk =   0.0160000
        k(   63) = (   0.1000000   0.2000000  -0.4000000), wk =   0.0160000
        k(   64) = (   0.1000000   0.2000000  -0.2000000), wk =   0.0080000
        k(   65) = (   0.1000000   0.2000000  -0.1000000), wk =   0.0080000
        k(   66) = (   0.1000000   0.3000000   0.1000000), wk =   0.0160000
        k(   67) = (   0.1000000   0.3000000   0.2000000), wk =   0.0160000
        k(   68) = (   0.1000000   0.3000000   0.3000000), wk =   0.0160000
        k(   69) = (   0.1000000   0.3000000   0.4000000), wk =   0.0160000
        k(   70) = (   0.1000000   0.3000000  -0.5000000), wk =   0.0160000
        k(   71) = (   0.1000000   0.3000000  -0.3000000), wk =   0.0080000
        k(   72) = (   0.1000000   0.3000000  -0.2000000), wk =   0.0160000
        k(   73) = (   0.1000000   0.3000000  -0.1000000), wk =   0.0080000
        k(   74) = (   0.1000000   0.4000000   0.1000000), wk =   0.0080000
        k(   75) = (   0.1000000   0.4000000   0.2000000), wk =   0.0160000
        k(   76) = (   0.1000000   0.4000000   0.3000000), wk =   0.0160000
        k(   77) = (   0.1000000   0.4000000   0.4000000), wk =   0.0080000
        k(   78) = (   0.1000000   0.4000000  -0.4000000), wk =   0.0080000
        k(   79) = (   0.1000000   0.4000000  -0.3000000), wk =   0.0160000
        k(   80) = (   0.1000000   0.4000000  -0.2000000), wk =   0.0160000
        k(   81) = (   0.1000000   0.4000000  -0.1000000), wk =   0.0080000
        k(   82) = (   0.1000000  -0.5000000   0.2000000), wk =   0.0160000
        k(   83) = (   0.1000000  -0.5000000  -0.5000000), wk =   0.0080000
        k(   84) = (   0.1000000  -0.5000000  -0.4000000), wk =   0.0160000
        k(   85) = (   0.1000000  -0.5000000  -0.3000000), wk =   0.0160000
        k(   86) = (   0.1000000  -0.5000000  -0.2000000), wk =   0.0160000
        k(   87) = (   0.1000000  -0.5000000  -0.1000000), wk =   0.0080000
        k(   88) = (   0.1000000  -0.4000000   0.4000000), wk =   0.0080000
        k(   89) = (   0.1000000  -0.4000000  -0.5000000), wk =   0.0160000
        k(   90) = (   0.1000000  -0.4000000  -0.4000000), wk =   0.0160000
        k(   91) = (   0.1000000  -0.4000000  -0.3000000), wk =   0.0160000
        k(   92) = (   0.1000000  -0.4000000  -0.2000000), wk =   0.0160000
        k(   93) = (   0.1000000  -0.4000000  -0.1000000), wk =   0.0080000
        k(   94) = (   0.1000000  -0.3000000   0.3000000), wk =   0.0080000
        k(   95) = (   0.1000000  -0.3000000   0.4000000), wk =   0.0160000
        k(   96) = (   0.1000000  -0.3000000  -0.5000000), wk =   0.0160000
        k(   97) = (   0.1000000  -0.3000000  -0.4000000), wk =   0.0160000
        k(   98) = (   0.1000000  -0.3000000  -0.3000000), wk =   0.0160000
        k(   99) = (   0.1000000  -0.3000000  -0.2000000), wk =   0.0160000
        k(  100) = (   0.1000000  -0.3000000  -0.1000000), wk =   0.0080000
        k(  101) = (   0.1000000  -0.2000000   0.2000000), wk =   0.0080000
        k(  102) = (   0.1000000  -0.2000000   0.3000000), wk =   0.0160000
        k(  103) = (   0.1000000  -0.2000000   0.4000000), wk =   0.0160000
        k(  104) = (   0.1000000  -0.2000000  -0.5000000), wk =   0.0160000
        k(  105) = (   0.1000000  -0.2000000  -0.4000000), wk =   0.0160000
        k(  106) = (   0.1000000  -0.2000000  -0.3000000), wk =   0.0160000
        k(  107) = (   0.1000000  -0.2000000  -0.2000000), wk =   0.0160000
        k(  108) = (   0.1000000  -0.2000000  -0.1000000), wk =   0.0080000
        k(  109) = (   0.1000000  -0.1000000   0.1000000), wk =   0.0040000
        k(  110) = (   0.1000000  -0.1000000   0.2000000), wk =   0.0080000
        k(  111) = (   0.1000000  -0.1000000   0.3000000), wk =   0.0080000
        k(  112) = (   0.1000000  -0.1000000   0.4000000), wk =   0.0080000
        k(  113) = (   0.1000000  -0.1000000  -0.5000000), wk =   0.0080000
        k(  114) = (   0.1000000  -0.1000000  -0.4000000), wk =   0.0080000
        k(  115) = (   0.1000000  -0.1000000  -0.3000000), wk =   0.0080000
        k(  116) = (   0.1000000  -0.1000000  -0.2000000), wk =   0.0080000
        k(  117) = (   0.1000000  -0.1000000  -0.1000000), wk =   0.0040000
        k(  118) = (   0.2000000   0.2000000   0.2000000), wk =   0.0160000
        k(  119) = (   0.2000000   0.2000000   0.3000000), wk =   0.0080000
        k(  120) = (   0.2000000   0.2000000  -0.2000000), wk =   0.0040000
        k(  121) = (   0.2000000   0.3000000   0.2000000), wk =   0.0080000
        k(  122) = (   0.2000000   0.3000000   0.3000000), wk =   0.0080000
        k(  123) = (   0.2000000   0.3000000  -0.3000000), wk =   0.0080000
        k(  124) = (   0.2000000   0.3000000  -0.2000000), wk =   0.0080000
        k(  125) = (   0.2000000   0.4000000  -0.4000000), wk =   0.0080000
        k(  126) = (   0.2000000   0.4000000  -0.3000000), wk =   0.0160000
        k(  127) = (   0.2000000   0.4000000  -0.2000000), wk =   0.0080000
        k(  128) = (   0.2000000  -0.5000000  -0.5000000), wk =   0.0080000
        k(  129) = (   0.2000000  -0.5000000  -0.4000000), wk =   0.0160000
        k(  130) = (   0.2000000  -0.5000000  -0.3000000), wk =   0.0160000
        k(  131) = (   0.2000000  -0.5000000  -0.2000000), wk =   0.0080000
        k(  132) = (   0.2000000  -0.4000000   0.4000000), wk =   0.0080000
        k(  133) = (   0.2000000  -0.4000000  -0.5000000), wk =   0.0160000
        k(  134) = (   0.2000000  -0.4000000  -0.4000000), wk =   0.0160000
        k(  135) = (   0.2000000  -0.4000000  -0.3000000), wk =   0.0160000
        k(  136) = (   0.2000000  -0.4000000  -0.2000000), wk =   0.0080000
        k(  137) = (   0.2000000  -0.3000000   0.3000000), wk =   0.0080000
        k(  138) = (   0.2000000  -0.3000000   0.4000000), wk =   0.0160000
        k(  139) = (   0.2000000  -0.3000000  -0.5000000), wk =   0.0160000
        k(  140) = (   0.2000000  -0.3000000  -0.4000000), wk =   0.0160000
        k(  141) = (   0.2000000  -0.3000000  -0.3000000), wk =   0.0160000
        k(  142) = (   0.2000000  -0.3000000  -0.2000000), wk =   0.0080000
        k(  143) = (   0.2000000  -0.2000000   0.2000000), wk =   0.0040000
        k(  144) = (   0.2000000  -0.2000000   0.3000000), wk =   0.0080000
        k(  145) = (   0.2000000  -0.2000000   0.4000000), wk =   0.0080000
        k(  146) = (   0.2000000  -0.2000000  -0.5000000), wk =   0.0080000
        k(  147) = (   0.2000000  -0.2000000  -0.4000000), wk =   0.0080000
        k(  148) = (   0.2000000  -0.2000000  -0.3000000), wk =   0.0080000
        k(  149) = (   0.2000000  -0.2000000  -0.2000000), wk =   0.0040000
        k(  150) = (   0.3000000   0.3000000  -0.3000000), wk =   0.0040000
        k(  151) = (   0.3000000   0.4000000  -0.4000000), wk =   0.0080000
        k(  152) = (   0.3000000   0.4000000  -0.3000000), wk =   0.0080000
        k(  153) = (   0.3000000  -0.5000000  -0.5000000), wk =   0.0080000
        k(  154) = (   0.3000000  -0.5000000  -0.4000000), wk =   0.0160000
        k(  155) = (   0.3000000  -0.5000000  -0.3000000), wk =   0.0080000
        k(  156) = (   0.3000000  -0.4000000   0.4000000), wk =   0.0080000
        k(  157) = (   0.3000000  -0.4000000  -0.5000000), wk =   0.0160000
        k(  158) = (   0.3000000  -0.4000000  -0.4000000), wk =   0.0160000
        k(  159) = (   0.3000000  -0.4000000  -0.3000000), wk =   0.0080000
        k(  160) = (   0.3000000  -0.3000000   0.3000000), wk =   0.0040000
        k(  161) = (   0.3000000  -0.3000000   0.4000000), wk =   0.0080000
        k(  162) = (   0.3000000  -0.3000000  -0.5000000), wk =   0.0080000
        k(  163) = (   0.3000000  -0.3000000  -0.4000000), wk =   0.0080000
        k(  164) = (   0.3000000  -0.3000000  -0.3000000), wk =   0.0040000
        k(  165) = (   0.4000000   0.4000000  -0.4000000), wk =   0.0040000
        k(  166) = (   0.4000000  -0.5000000  -0.5000000), wk =   0.0080000
        k(  167) = (   0.4000000  -0.5000000  -0.4000000), wk =   0.0080000
        k(  168) = (   0.4000000  -0.4000000   0.4000000), wk =   0.0040000
        k(  169) = (   0.4000000  -0.4000000  -0.5000000), wk =   0.0080000
        k(  170) = (   0.4000000  -0.4000000  -0.4000000), wk =   0.0040000
        k(  171) = (  -0.5000000  -0.5000000  -0.5000000), wk =   0.0020000

     Dense  grid:   135907 G-vectors     FFT dimensions: ( 100, 100, 100)

     Smooth grid:    34429 G-vectors     FFT dimensions: (  64,  64,  64)

     Dynamical RAM for                 wfc:       0.03 MB

     Dynamical RAM for     wfc (w. buffer):       4.91 MB

     Dynamical RAM for           str. fact:       0.13 MB

     Dynamical RAM for           local pot:       0.00 MB

     Dynamical RAM for          nlocal pot:       0.06 MB

     Dynamical RAM for                qrad:       5.90 MB

     Dynamical RAM for          rho,v,vnew:       0.82 MB

     Dynamical RAM for               rhoin:       0.27 MB

     Dynamical RAM for            rho*nmix:       0.69 MB

     Dynamical RAM for           G-vectors:       0.17 MB

     Dynamical RAM for          h,s,v(r/c):       0.08 MB

     Dynamical RAM for          <psi|beta>:       0.01 MB

     Dynamical RAM for                 psi:       0.06 MB

     Dynamical RAM for                hpsi:       0.06 MB

     Dynamical RAM for                spsi:       0.06 MB

     Dynamical RAM for      wfcinit/wfcrot:       0.08 MB

     Dynamical RAM for           addusdens:       8.12 MB

     Dynamical RAM for          addusforce:       8.24 MB

     Dynamical RAM for         addusstress:       8.69 MB

     Estimated static dynamical RAM per process >      14.25 MB

     Estimated max dynamical RAM per process >      22.94 MB

     Estimated total dynamical RAM >       1.08 GB

     Initial potential from superposition of free atoms

     starting charge   32.99867, renormalised to   33.00000
     Starting wfcs are   25 randomized atomic wfcs
     Checking if some PAW data can be deallocated... 
       PAW data deallocated on   36 nodes for type:  1
       PAW data deallocated on   24 nodes for type:  2
       PAW data deallocated on   36 nodes for type:  3

     total cpu time spent up to now is        2.3 secs

     Self-consistent Calculation

     iteration #  1     ecut=    60.00 Ry     beta= 0.70
     Davidson diagonalization with overlap
     ethr =  1.00E-02,  avg # of iterations =  2.2

     total cpu time spent up to now is        6.5 secs

     total energy              =    -534.52743026 Ry
     estimated scf accuracy    <       0.75977754 Ry

     iteration #  2     ecut=    60.00 Ry     beta= 0.70
     Davidson diagonalization with overlap
     ethr =  2.30E-03,  avg # of iterations =  3.6

     total cpu time spent up to now is       11.5 secs

     total energy              =    -533.59039507 Ry
     estimated scf accuracy    <       8.53560535 Ry

     iteration #  3     ecut=    60.00 Ry     beta= 0.70
     Davidson diagonalization with overlap
     ethr =  2.30E-03,  avg # of iterations =  3.4

     total cpu time spent up to now is       16.1 secs

     total energy              =    -534.97226970 Ry
     estimated scf accuracy    <       0.12683636 Ry

     iteration #  4     ecut=    60.00 Ry     beta= 0.70
     Davidson diagonalization with overlap
     ethr =  3.84E-04,  avg # of iterations =  1.3

     total cpu time spent up to now is       19.8 secs

     total energy              =    -534.96470601 Ry
     estimated scf accuracy    <       0.06124545 Ry

     iteration #  5     ecut=    60.00 Ry     beta= 0.70
     Davidson diagonalization with overlap
     ethr =  1.86E-04,  avg # of iterations =  1.5

     total cpu time spent up to now is       23.4 secs

     total energy              =    -534.96142725 Ry
     estimated scf accuracy    <       0.02337882 Ry

     iteration #  6     ecut=    60.00 Ry     beta= 0.70
     Davidson diagonalization with overlap
     ethr =  7.08E-05,  avg # of iterations =  1.9

     total cpu time spent up to now is       27.3 secs

     total energy              =    -534.96381379 Ry
     estimated scf accuracy    <       0.00081168 Ry

     iteration #  7     ecut=    60.00 Ry     beta= 0.70
     Davidson diagonalization with overlap
     ethr =  2.46E-06,  avg # of iterations =  3.2

     total cpu time spent up to now is       32.1 secs

     total energy              =    -534.96405233 Ry
     estimated scf accuracy    <       0.00014842 Ry

     iteration #  8     ecut=    60.00 Ry     beta= 0.70
     Davidson diagonalization with overlap
     ethr =  4.50E-07,  avg # of iterations =  1.5

     total cpu time spent up to now is       35.8 secs

     total energy              =    -534.96404761 Ry
     estimated scf accuracy    <       0.00003643 Ry

     iteration #  9     ecut=    60.00 Ry     beta= 0.70
     Davidson diagonalization with overlap
     ethr =  1.10E-07,  avg # of iterations =  2.0

     total cpu time spent up to now is       39.8 secs

     total energy              =    -534.96405580 Ry
     estimated scf accuracy    <       0.00000116 Ry

     iteration # 10     ecut=    60.00 Ry     beta= 0.70
     Davidson diagonalization with overlap
     ethr =  3.51E-09,  avg # of iterations =  2.9

     total cpu time spent up to now is       44.3 secs

     total energy              =    -534.96405611 Ry
     estimated scf accuracy    <       0.00000001 Ry

     iteration # 11     ecut=    60.00 Ry     beta= 0.70
     Davidson diagonalization with overlap
     ethr =  4.27E-11,  avg # of iterations =  4.9

     total cpu time spent up to now is       50.4 secs

     total energy              =    -534.96405613 Ry
     estimated scf accuracy    <       0.00000002 Ry

     iteration # 12     ecut=    60.00 Ry     beta= 0.70
     Davidson diagonalization with overlap
     ethr =  4.27E-11,  avg # of iterations =  2.4

     total cpu time spent up to now is       54.5 secs

     total energy              =    -534.96405613 Ry
     estimated scf accuracy    <          4.1E-10 Ry

     iteration # 13     ecut=    60.00 Ry     beta= 0.70
     Davidson diagonalization with overlap
     ethr =  1.23E-12,  avg # of iterations =  2.5

     total cpu time spent up to now is       58.8 secs

     End of self-consistent calculation

          k = 0.0000 0.0000 0.0000 (  4275 PWs)   bands (ev):

   -49.8662 -26.1476 -25.7916 -25.7109 -12.4406  -9.4963  -8.8063   0.6420
     2.4920   2.7200   2.8783   2.9570   3.4307   3.9411   4.1894   4.2877
     5.5286   7.1796   7.3243   8.6747   9.3632

     occupation numbers 
     1.0000   1.0000   1.0000   1.0000   1.0000   1.0000   1.0000   1.0000
     1.0000   1.0000   1.0000   1.0000   1.0000   1.0000   1.0000   1.0000
     1.0000  -0.0000  -0.0000  -0.0000  -0.0000

          k = 0.1997 0.1717 0.0000 (  4281 PWs)   bands (ev):

   -49.8646 -26.1639 -25.7873 -25.7311 -12.3141  -9.4258  -8.8111   0.7785
     2.2263   2.3510   2.5854   3.1340   3.2699   3.7441   3.8833   4.0610
     5.8273   7.3905   7.4809   8.7341   9.8431

     occupation numbers 
     1.0000   1.0000   1.0000   1.0000   1.0000   1.0000   1.0000   1.0000
     1.0000   1.0000   1.0000   1.0000   1.0000   1.0000   1.0000   1.0000
     1.0000  -0.0000  -0.0000  -0.0000  -0.0000

          k = 0.3993 0.3435 0.0000 (  4311 PWs)   bands (ev):

   -49.8603 -26.2059 -25.7836 -25.7761 -11.9702  -9.2340  -8.8255   1.1447
     1.6411   1.8235   2.0560   2.3864   2.7103   3.1673   3.8723   4.0004
     6.4500   7.8532   7.9286   8.9959  10.7739

     occupation numbers 
     1.0000   1.0000   1.0000   1.0000   1.0000   1.0000   1.0000   1.0000
     1.0000   1.0000   1.0000   1.0000   1.0000   1.0000   1.0000   1.0000
     1.0336  -0.0000  -0.0000  -0.0000  -0.0000

          k = 0.5990 0.5152 0.0000 (  4298 PWs)   bands (ev):

   -49.8547 -26.2561 -25.8473 -25.7622 -11.5141  -8.9803  -8.8468   0.5271
     1.4159   1.6642   1.7288   1.8199   1.8802   2.6939   3.7395   4.0091
     7.2497   8.4199   8.5714   9.3700  11.3317

     occupation numbers 
     1.0000   1.0000   1.0000   1.0000   1.0000   1.0000   1.0000   1.0000
     1.0000   1.0000   1.0000   1.0000   1.0000   1.0000   1.0000   1.0000
    -0.0000  -0.0000  -0.0000  -0.0000  -0.0000

          k = 0.7986 0.6869 0.0000 (  4298 PWs)   bands (ev):

   -49.8502 -26.2955 -25.8981 -25.7510 -11.1129  -8.8668  -8.7580  -0.3125
     0.8196   1.1725   1.6813   1.7855   2.2224   2.3358   3.4487   3.9495
     8.0790   8.9304   9.1367   9.6597  11.3775

     occupation numbers 
     1.0000   1.0000   1.0000   1.0000   1.0000   1.0000   1.0000   1.0000
     1.0000   1.0000   1.0000   1.0000   1.0000   1.0000   1.0000   1.0000
    -0.0000  -0.0000  -0.0000  -0.0000  -0.0000

          k =-0.9983-0.8586 0.0000 (  4304 PWs)   bands (ev):

   -49.8485 -26.3102 -25.9173 -25.7467 -10.9501  -8.8752  -8.6681  -0.6317
     0.5803   0.9708   1.7541   1.8545   1.9623   2.6018   3.2786   3.8764
     8.4852   9.1505   9.3408   9.7857  11.4089

     occupation numbers 
     1.0000   1.0000   1.0000   1.0000   1.0000   1.0000   1.0000   1.0000
     1.0000   1.0000   1.0000   1.0000   1.0000   1.0000   1.0000   1.0000
    -0.0000  -0.0000  -0.0000  -0.0000  -0.0000

          k = 0.1997 0.0000 0.0542 (  4271 PWs)   bands (ev):

   -49.8648 -26.1459 -25.7880 -25.7317 -12.4294  -9.4383  -8.8148   0.7660
     2.3426   2.6818   2.9201   3.0014   3.2282   3.8735   3.9724   4.1356
     5.8156   7.1216   7.2858   8.7232   9.6254

     occupation numbers 
     1.0000   1.0000   1.0000   1.0000   1.0000   1.0000   1.0000   1.0000
     1.0000   1.0000   1.0000   1.0000   1.0000   1.0000   1.0000   1.0000
     1.0000  -0.0003  -0.0000  -0.0000  -0.0000

          k = 0.3993 0.1717 0.0542 (  4302 PWs)   bands (ev):

   -49.8611 -26.1596 -25.7852 -25.7778 -12.2852  -9.2737  -8.8272   1.0791
     2.0483   2.2941   2.5389   2.6175   3.1366   3.2169   3.8526   4.0529
     6.4178   7.2382   7.3658   8.9823  10.2797

     occupation numbers 
     1.0000   1.0000   1.0000   1.0000   1.0000   1.0000   1.0000   1.0000
     1.0000   1.0000   1.0000   1.0000   1.0000   1.0000   1.0000   1.0000
     1.0257  -0.0000  -0.0000  -0.0000  -0.0000

          k = 0.5990 0.3435 0.0542 (  4314 PWs)   bands (ev):

   -49.8558 -26.2003 -25.8495 -25.7643 -11.9354  -9.0334  -8.8462   1.4012
     1.5912   1.7925   1.9297   2.0015   2.2207   2.8039   3.8407   4.1039
     7.1766   7.7057   7.8182   9.4101  10.9651

     occupation numbers 
     1.0000   1.0000   1.0000   1.0000   1.0000   1.0000   1.0000   1.0000
     1.0000   1.0000   1.0000   1.0000   1.0000   1.0000   1.0000   1.0000
    -0.0001  -0.0000  -0.0000  -0.0000  -0.0000

          k = 0.7986 0.5152 0.0542 (  4305 PWs)   bands (ev):

   -49.8511 -26.2513 -25.9000 -25.7527 -11.4871  -8.8736  -8.7955   0.5484
     1.1229   1.1350   1.7025   1.8746   2.3340   2.3620   3.5923   4.0709
     7.9848   8.3417   8.5091   9.7224  11.2426

     occupation numbers 
     1.0000   1.0000   1.0000   1.0000   1.0000   1.0000   1.0000   1.0000
     1.0000   1.0000   1.0000   1.0000   1.0000   1.0000   1.0000   1.0000
    -0.0000  -0.0000  -0.0000  -0.0000  -0.0000

          k = 0.9983 0.6869 0.0542 (  4307 PWs)   bands (ev):

   -49.8488 -26.2936 -25.9181 -25.7474 -11.1030  -8.8831  -8.6768  -0.3047
     0.6795   0.9484   1.6079   1.9522   2.1076   2.6193   3.3263   3.9200
     8.4779   8.8844   9.1079   9.7759  11.3264

     occupation numbers 
     1.0000   1.0000   1.0000   1.0000   1.0000   1.0000   1.0000   1.0000
     1.0000   1.0000   1.0000   1.0000   1.0000   1.0000   1.0000   1.0000
    -0.0000  -0.0000  -0.0000  -0.0000  -0.0000

          k =-0.7986-0.8586 0.0542 (  4315 PWs)   bands (ev):

   -49.8500 -26.3122 -25.8974 -25.7504 -10.9597  -8.8790  -8.7276  -0.6386
     0.6999   1.1612   1.4952   1.8296   2.2988   2.4372   3.3828   3.8452
     8.1153   9.1863   9.3735   9.5926  11.3385

     occupation numbers 
     1.0000   1.0000   1.0000   1.0000   1.0000   1.0000   1.0000   1.0000
     1.0000   1.0000   1.0000   1.0000   1.0000   1.0000   1.0000   1.0000
    -0.0000  -0.0000  -0.0000  -0.0000  -0.0000

          k =-0.5990-0.6869 0.0542 (  4296 PWs)   bands (ev):

   -49.8538 -26.3005 -25.8455 -25.7605 -11.1386  -8.9254  -8.8591  -0.3324
     1.1478   1.4045   1.7371   1.7611   1.9260   2.7257   3.6352   3.8394
     7.3097   9.0329   9.1631   9.3210  11.4474

     occupation numbers 
     1.0000   1.0000   1.0000   1.0000   1.0000   1.0000   1.0000   1.0000
     1.0000   1.0000   1.0000   1.0000   1.0000   1.0000   1.0000   1.0000
    -0.0000  -0.0000  -0.0000  -0.0000  -0.0000

          k =-0.3993-0.5152 0.0542 (  4304 PWs)   bands (ev):

   -49.8592 -26.2621 -25.7815 -25.7740 -11.5474  -9.1732  -8.8367   0.4990
     1.2762   1.4218   1.9105   2.0538   2.6104   3.1591   3.7663   3.8734
     6.5103   8.5890   8.6244   9.0042  11.1505

     occupation numbers 
     1.0000   1.0000   1.0000   1.0000   1.0000   1.0000   1.0000   1.0000
     1.0000   1.0000   1.0000   1.0000   1.0000   1.0000   1.0000   1.0000
     1.0225  -0.0000  -0.0000  -0.0000  -0.0000

          k =-0.1997-0.3435 0.0542 (  4299 PWs)   bands (ev):

   -49.8638 -26.2105 -25.7856 -25.7296 -11.9983  -9.3788  -8.8191   0.8498
     1.6104   1.6803   2.3604   2.7940   3.3760   3.5439   3.8028   3.9121
     5.8725   8.0203   8.0351   8.7593  10.2994

     occupation numbers 
     1.0000   1.0000   1.0000   1.0000   1.0000   1.0000   1.0000   1.0000
     1.0000   1.0000   1.0000   1.0000   1.0000   1.0000   1.0000   1.0000
     1.0000  -0.0000  -0.0000  -0.0000  -0.0000

          k = 0.0000-0.1717 0.0542 (  4276 PWs)   bands (ev):

   -49.8659 -26.1656 -25.7909 -25.7104 -12.3251  -9.4767  -8.8118   0.6762
     2.1945   2.5066   2.5764   3.2938   3.3174   3.8287   3.9975   4.2075
     5.5482   7.4618   7.5252   8.6938   9.5958

     occupation numbers 
     1.0000   1.0000   1.0000   1.0000   1.0000   1.0000   1.0000   1.0000
     1.0000   1.0000   1.0000   1.0000   1.0000   1.0000   1.0000   1.0000
     1.0000  -0.0000  -0.0000  -0.0000  -0.0000

          k = 0.3993 0.0000 0.1083 (  4292 PWs)   bands (ev):

   -49.8613 -26.1417 -25.7858 -25.7784 -12.4002  -9.2822  -8.8353   1.0648
     2.0623   2.4196   2.6482   2.9793   3.1881   3.5186   3.8272   3.9876
     6.4278   6.9836   7.1622   8.9455  10.0097

     occupation numbers 
     1.0000   1.0000   1.0000   1.0000   1.0000   1.0000   1.0000   1.0000
     1.0000   1.0000   1.0000   1.0000   1.0000   1.0000   1.0000   1.0000
     1.0285  -0.0102  -0.0001  -0.0000  -0.0000

          k = 0.5990 0.1717 0.1083 (  4306 PWs)   bands (ev):

   -49.8566 -26.1542 -25.8512 -25.7660 -12.2495  -9.0721  -8.8493   1.3257
     1.6857   1.8964   2.2343   2.6546   2.9542   3.1340   3.8210   3.9997
     7.0144   7.1851   7.2776   9.3938  10.3898

     occupation numbers 
     1.0000   1.0000   1.0000   1.0000   1.0000   1.0000   1.0000   1.0000
     1.0000   1.0000   1.0000   1.0000   1.0000   1.0000   1.0000   1.0000
    -0.0055  -0.0000  -0.0000  -0.0000  -0.0000

          k = 0.7986 0.3435 0.1083 (  4315 PWs)   bands (ev):

   -49.8522 -26.1957 -25.9022 -25.7547 -11.9072  -8.9049  -8.8171   1.0298
     1.4281   1.6272   1.7877   1.9613   2.4982   2.7795   3.7564   4.0993
     7.4707   7.7116   8.0864   9.7425  10.8227

     occupation numbers 
     1.0000   1.0000   1.0000   1.0000   1.0000   1.0000   1.0000   1.0000
     1.0000   1.0000   1.0000   1.0000   1.0000   1.0000   1.0000   1.0000
    -0.0000  -0.0000  -0.0000  -0.0000  -0.0000

          k = 0.9983 0.5152 0.1083 (  4308 PWs)   bands (ev):

   -49.8497 -26.2495 -25.9199 -25.7490 -11.4766  -8.9036  -8.6995   0.5506
     0.8676   1.0063   1.4831   1.9729   2.4604   2.7012   3.4660   4.0101
     8.2000   8.4807   8.4914   9.7645  11.0789

     occupation numbers 
     1.0000   1.0000   1.0000   1.0000   1.0000   1.0000   1.0000   1.0000
     1.0000   1.0000   1.0000   1.0000   1.0000   1.0000   1.0000   1.0000
    -0.0000  -0.0000  -0.0000  -0.0000  -0.0000

          k = 1.1980 0.6869 0.1083 (  4295 PWs)   bands (ev):

   -49.8502 -26.2955 -25.8981 -25.7510 -11.1127  -8.9042  -8.7173  -0.3126
     0.7847   1.1026   1.3863   1.9059   2.4478   2.5742   3.4200   3.8259
     8.1312   8.9213   9.1391   9.5329  11.2153

     occupation numbers 
     1.0000   1.0000   1.0000   1.0000   1.0000   1.0000   1.0000   1.0000
     1.0000   1.0000   1.0000   1.0000   1.0000   1.0000   1.0000   1.0000
    -0.0000  -0.0000  -0.0000  -0.0000  -0.0000

          k =-0.5990-0.8586 0.1083 (  4304 PWs)   bands (ev):

   -49.8535 -26.3174 -25.8449 -25.7599 -10.9846  -8.8898  -8.8781  -0.6567
     1.0060   1.2861   1.6881   1.7086   2.1125   2.8022   3.6114   3.6941
     7.3516   9.1431   9.3390   9.4457  11.4336

     occupation numbers 
     1.0000   1.0000   1.0000   1.0000   1.0000   1.0000   1.0000   1.0000
     1.0000   1.0000   1.0000   1.0000   1.0000   1.0000   1.0000   1.0000
    -0.0000  -0.0000  -0.0000  -0.0000  -0.0000

          k =-0.3993-0.6869 0.1083 (  4300 PWs)   bands (ev):

   -49.8583 -26.3068 -25.7799 -25.7723 -11.1699  -9.1063  -8.8656  -0.3563
     1.1127   1.4235   1.6211   1.9881   2.5799   3.1220   3.5875   3.8333
     6.5685   8.8805   9.2111   9.2950  11.3571

     occupation numbers 
     1.0000   1.0000   1.0000   1.0000   1.0000   1.0000   1.0000   1.0000
     1.0000   1.0000   1.0000   1.0000   1.0000   1.0000   1.0000   1.0000
     0.9286  -0.0000  -0.0000  -0.0000  -0.0000

          k =-0.1997-0.5152 0.1083 (  4305 PWs)   bands (ev):

   -49.8628 -26.2670 -25.7835 -25.7277 -11.5741  -9.3093  -8.8430   0.4749
     0.9582   1.2753   2.3023   2.4406   3.1112   3.5163   3.6414   3.9284
     5.9278   8.6796   8.7708   8.8296  10.7210

     occupation numbers 
     1.0000   1.0000   1.0000   1.0000   1.0000   1.0000   1.0000   1.0000
     1.0000   1.0000   1.0000   1.0000   1.0000   1.0000   1.0000   1.0000
     1.0000  -0.0000  -0.0000  -0.0000  -0.0000

          k = 0.0000-0.3435 0.1083 (  4290 PWs)   bands (ev):

   -49.8652 -26.2122 -25.7893 -25.7089 -12.0089  -9.4223  -8.8296   0.7640
     1.5922   1.6509   2.5461   3.0258   3.2856   3.5854   3.9167   4.0830
     5.5889   8.0547   8.1215   8.7442  10.0735

     occupation numbers 
     1.0000   1.0000   1.0000   1.0000   1.0000   1.0000   1.0000   1.0000
     1.0000   1.0000   1.0000   1.0000   1.0000   1.0000   1.0000   1.0000
     1.0000  -0.0000  -0.0000  -0.0000  -0.0000

          k = 0.1997-0.1717 0.1083 (  4280 PWs)   bands (ev):

   -49.8646 -26.1639 -25.7873 -25.7311 -12.3139  -9.4126  -8.8274   0.8199
     2.2364   2.3519   2.5877   3.1144   3.2442   3.6644   3.9132   4.0600
     5.8422   7.3869   7.4944   8.7318   9.8952

     occupation numbers 
     1.0000   1.0000   1.0000   1.0000   1.0000   1.0000   1.0000   1.0000
     1.0000   1.0000   1.0000   1.0000   1.0000   1.0000   1.0000   1.0000
     1.0000  -0.0000  -0.0000  -0.0000  -0.0000

          k = 0.5990 0.0000 0.1625 (  4302 PWs)   bands (ev):

   -49.8569 -26.1365 -25.8519 -25.7666 -12.3642  -9.0873  -8.8495   1.2696
     1.6059   1.9600   2.3379   3.0567   3.3859   3.4662   3.7141   3.7913
     6.8438   6.9435   7.2280   9.3313  10.0514

     occupation numbers 
     1.0000   1.0000   1.0000   1.0000   1.0000   1.0000   1.0000   1.0000
     1.0000   1.0000   1.0000   1.0000   1.0000   1.0000   1.0000   1.0000
    -0.0307  -0.0195  -0.0000  -0.0000  -0.0000

          k = 0.7986 0.1717 0.1625 (  4306 PWs)   bands (ev):

   -49.8529 -26.1499 -25.9041 -25.7563 -12.2206  -8.9445  -8.8190   0.9612
     1.4240   1.8727   2.0035   2.7878   2.9268   3.3127   3.8005   3.9436
     6.9436   7.0048   8.0482   9.6958  10.2405

     occupation numbers 
     1.0000   1.0000   1.0000   1.0000   1.0000   1.0000   1.0000   1.0000
     1.0000   1.0000   1.0000   1.0000   1.0000   1.0000   1.0000   1.0000
    -0.0195  -0.0067  -0.0000  -0.0000  -0.0000

          k = 0.9983 0.3435 0.1625 (  4313 PWs)   bands (ev):

   -49.8507 -26.1940 -25.9223 -25.7510 -11.8963  -8.9286  -8.7272   0.7627
     1.3464   1.4701   1.7613   1.9711   2.7351   3.0232   3.6668   4.0346
     7.4562   7.6662   8.4655   9.7427  10.6595

     occupation numbers 
     1.0000   1.0000   1.0000   1.0000   1.0000   1.0000   1.0000   1.0000
     1.0000   1.0000   1.0000   1.0000   1.0000   1.0000   1.0000   1.0000
    -0.0000  -0.0000  -0.0000  -0.0000  -0.0000

          k = 1.1980 0.5152 0.1625 (  4305 PWs)   bands (ev):

   -49.8511 -26.2513 -25.9000 -25.7527 -11.4868  -8.9354  -8.7283   0.5463
     0.9991   1.1068   1.3257   2.0328   2.6056   2.7251   3.5581   3.9053
     8.1175   8.2745   8.5149   9.5055  10.9908

     occupation numbers 
     1.0000   1.0000   1.0000   1.0000   1.0000   1.0000   1.0000   1.0000
     1.0000   1.0000   1.0000   1.0000   1.0000   1.0000   1.0000   1.0000
    -0.0000  -0.0000  -0.0000  -0.0000  -0.0000

          k = 1.3976 0.6869 0.1625 (  4305 PWs)   bands (ev):

   -49.8539 -26.3006 -25.8455 -25.7606 -11.1383  -8.9347  -8.8483  -0.3329
     1.0731   1.2935   1.6180   1.7111   2.2982   2.8706   3.6284   3.7112
     7.3652   8.9683   9.1975   9.2274  11.3394

     occupation numbers 
     1.0000   1.0000   1.0000   1.0000   1.0000   1.0000   1.0000   1.0000
     1.0000   1.0000   1.0000   1.0000   1.0000   1.0000   1.0000   1.0000
    -0.0000  -0.0000  -0.0000  -0.0000  -0.0000

          k =-0.3993-0.8586 0.1625 (  4299 PWs)   bands (ev):

   -49.8580 -26.3237 -25.7792 -25.7717 -11.0149  -9.0549  -8.9042  -0.6790
     1.0219   1.3711   1.6971   1.8858   2.5930   3.0569   3.5015   3.8517
     6.6046   8.8606   9.4555   9.5094  11.4207

     occupation numbers 
     1.0000   1.0000   1.0000   1.0000   1.0000   1.0000   1.0000   1.0000
     1.0000   1.0000   1.0000   1.0000   1.0000   1.0000   1.0000   1.0000
     0.8092  -0.0000  -0.0000  -0.0000  -0.0000

          k =-0.1997-0.6869 0.1625 (  4313 PWs)   bands (ev):

   -49.8620 -26.3119 -25.7818 -25.7262 -11.1949  -9.2369  -8.8818  -0.3754
     0.8568   1.2562   2.0326   2.3346   2.8930   3.4653   3.5382   3.9547
     5.9744   8.8014   9.3086   9.3687  11.0086

     occupation numbers 
     1.0000   1.0000   1.0000   1.0000   1.0000   1.0000   1.0000   1.0000
     1.0000   1.0000   1.0000   1.0000   1.0000   1.0000   1.0000   1.0000
     1.0000  -0.0000  -0.0000  -0.0000  -0.0000

          k =-0.0000-0.5152 0.1625 (  4316 PWs)   bands (ev):

   -49.8643 -26.2688 -25.7872 -25.7071 -11.5841  -9.3470  -8.8611   0.4632
     0.8637   1.2685   2.5964   2.7023   2.7643   3.5330   3.9607   3.9947
     5.6358   8.7304   8.8037   8.8646  10.5315

     occupation numbers 
     1.0000   1.0000   1.0000   1.0000   1.0000   1.0000   1.0000   1.0000
     1.0000   1.0000   1.0000   1.0000   1.0000   1.0000   1.0000   1.0000
     1.0000  -0.0000  -0.0000  -0.0000  -0.0000

          k = 0.1997-0.3435 0.1625 (  4301 PWs)   bands (ev):

   -49.8639 -26.2105 -25.7856 -25.7296 -11.9979  -9.3541  -8.8490   0.9162
     1.6037   1.7348   2.3499   2.7900   3.1602   3.5581   3.7244   4.0415
     5.8913   8.0286   8.0356   8.7606  10.3926

     occupation numbers 
     1.0000   1.0000   1.0000   1.0000   1.0000   1.0000   1.0000   1.0000
     1.0000   1.0000   1.0000   1.0000   1.0000   1.0000   1.0000   1.0000
     1.0000  -0.0000  -0.0000  -0.0000  -0.0000

          k = 0.3993-0.1717 0.1625 (  4297 PWs)   bands (ev):

   -49.8610 -26.1596 -25.7852 -25.7778 -12.2849  -9.2565  -8.8466   1.1080
     2.0633   2.2424   2.4990   2.6215   3.1104   3.2890   3.8520   4.0521
     6.4537   7.2178   7.3847   8.9085  10.2869

     occupation numbers 
     1.0000   1.0000   1.0000   1.0000   1.0000   1.0000   1.0000   1.0000
     1.0000   1.0000   1.0000   1.0000   1.0000   1.0000   1.0000   1.0000
     1.0342  -0.0000  -0.0000  -0.0000  -0.0000

          k = 0.7986 0.0000 0.2166 (  4307 PWs)   bands (ev):

   -49.8532 -26.1322 -25.9048 -25.7570 -12.3351  -8.9713  -8.8067   0.9131
     1.3393   2.0098   2.0553   3.1692   3.4375   3.5109   3.7078   3.8134
     6.6915   6.7528   8.0464   9.5878   9.9451

     occupation numbers 
     1.0000   1.0000   1.0000   1.0000   1.0000   1.0000   1.0000   1.0000
     1.0000   1.0000   1.0000   1.0000   1.0000   1.0000   1.0000   1.0000
     0.3874   0.1246  -0.0000  -0.0000  -0.0000

          k = 0.9983 0.1717 0.2166 (  4306 PWs)   bands (ev):

   -49.8515 -26.1482 -25.9241 -25.7527 -12.2096  -8.9487  -8.7492   0.7073
     1.3404   1.8391   1.9519   2.8569   2.9832   3.4799   3.8521   3.8574
     6.8873   6.9325   8.4481   9.6568  10.1900

     occupation numbers 
     1.0000   1.0000   1.0000   1.0000   1.0000   1.0000   1.0000   1.0000
     1.0000   1.0000   1.0000   1.0000   1.0000   1.0000   1.0000   1.0000
    -0.0339  -0.0226  -0.0000  -0.0000  -0.0000

          k = 1.1980 0.3435 0.2166 (  4298 PWs)   bands (ev):

   -49.8520 -26.1957 -25.9022 -25.7547 -11.9070  -8.9630  -8.7538   0.9293
     1.2799   1.4788   1.7725   2.1218   2.7494   2.9914   3.7357   3.9972
     7.4955   7.7114   8.1092   9.5196  10.6215

     occupation numbers 
     1.0000   1.0000   1.0000   1.0000   1.0000   1.0000   1.0000   1.0000
     1.0000   1.0000   1.0000   1.0000   1.0000   1.0000   1.0000   1.0000
    -0.0000  -0.0000  -0.0000  -0.0000  -0.0000

          k = 1.3976 0.5152 0.2166 (  4295 PWs)   bands (ev):

   -49.8546 -26.2561 -25.8473 -25.7622 -11.5137  -8.9887  -8.8359   0.5230
     1.3097   1.3431   1.5742   1.8564   2.4271   2.9266   3.6738   3.8988
     7.3436   8.3876   8.5884   9.1641  11.1408

     occupation numbers 
     1.0000   1.0000   1.0000   1.0000   1.0000   1.0000   1.0000   1.0000
     1.0000   1.0000   1.0000   1.0000   1.0000   1.0000   1.0000   1.0000
    -0.0000  -0.0000  -0.0000  -0.0000  -0.0000

          k = 1.5973 0.6869 0.2166 (  4304 PWs)   bands (ev):

   -49.8583 -26.3068 -25.7799 -25.7723 -11.1695  -9.0636  -8.9110  -0.3571
     1.0960   1.4544   1.6712   1.9562   2.5830   3.0799   3.4914   3.9310
     6.6062   8.8293   9.2377   9.2691  11.3589

     occupation numbers 
     1.0000   1.0000   1.0000   1.0000   1.0000   1.0000   1.0000   1.0000
     1.0000   1.0000   1.0000   1.0000   1.0000   1.0000   1.0000   1.0000
     0.8030  -0.0000  -0.0000  -0.0000  -0.0000

          k =-0.1997-0.8586 0.2166 (  4308 PWs)   bands (ev):

   -49.8617 -26.3288 -25.7812 -25.7256 -11.0390  -9.1916  -8.9167  -0.6970
     0.7768   1.4009   1.8549   2.2594   2.8219   3.4291   3.5072   3.9725
     5.9968   8.8182   9.5356   9.5945  11.1290

     occupation numbers 
     1.0000   1.0000   1.0000   1.0000   1.0000   1.0000   1.0000   1.0000
     1.0000   1.0000   1.0000   1.0000   1.0000   1.0000   1.0000   1.0000
     1.0000  -0.0000  -0.0000  -0.0000  -0.0000

          k = 0.0000-0.6869 0.2166 (  4309 PWs)   bands (ev):

   -49.8634 -26.3138 -25.7854 -25.7056 -11.2042  -9.2749  -8.9005  -0.3829
     0.7541   1.2610   2.3266   2.4679   2.6420   3.4638   3.9407   3.9741
     5.6739   8.8570   9.3065   9.4399  10.8451

     occupation numbers 
     1.0000   1.0000   1.0000   1.0000   1.0000   1.0000   1.0000   1.0000
     1.0000   1.0000   1.0000   1.0000   1.0000   1.0000   1.0000   1.0000
     1.0000  -0.0000  -0.0000  -0.0000  -0.0000

          k = 0.1997-0.5152 0.2166 (  4302 PWs)   bands (ev):

   -49.8628 -26.2669 -25.7835 -25.7277 -11.5737  -9.2773  -8.8804   0.4711
     0.9953   1.4064   2.1845   2.4764   2.9431   3.5246   3.5690   4.0351
     5.9467   8.7137   8.7571   8.8174  10.8182

     occupation numbers 
     1.0000   1.0000   1.0000   1.0000   1.0000   1.0000   1.0000   1.0000
     1.0000   1.0000   1.0000   1.0000   1.0000   1.0000   1.0000   1.0000
     1.0000  -0.0000  -0.0000  -0.0000  -0.0000

          k = 0.3993-0.3435 0.2166 (  4291 PWs)   bands (ev):

   -49.8601 -26.2059 -25.7835 -25.7761 -11.9697  -9.2012  -8.8621   1.1785
     1.6145   1.9058   2.0251   2.3373   2.6373   3.2670   3.7229   4.1081
     6.5098   7.8362   7.9527   8.8862  10.7880

     occupation numbers 
     1.0000   1.0000   1.0000   1.0000   1.0000   1.0000   1.0000   1.0000
     1.0000   1.0000   1.0000   1.0000   1.0000   1.0000   1.0000   1.0000
     1.0228  -0.0000  -0.0000  -0.0000  -0.0000

          k = 0.5990-0.1717 0.2166 (  4303 PWs)   bands (ev):

   -49.8566 -26.1542 -25.8512 -25.7660 -12.2493  -9.0753  -8.8445   1.2570
     1.5457   1.9272   2.3087   2.6851   3.0216   3.2129   3.8039   4.0163
     7.0164   7.1814   7.2931   9.2549  10.3019

     occupation numbers 
     1.0000   1.0000   1.0000   1.0000   1.0000   1.0000   1.0000   1.0000
     1.0000   1.0000   1.0000   1.0000   1.0000   1.0000   1.0000   1.0000
    -0.0052  -0.0000  -0.0000  -0.0000  -0.0000

          k =-0.9983 0.0000-0.2708 (  4322 PWs)   bands (ev):

   -49.8519 -26.1306 -25.9249 -25.7533 -12.3241  -8.9563  -8.7576   0.6854
     1.3282   1.9184   2.0342   3.3104   3.3392   3.4769   3.7586   3.9318
     6.5703   6.7226   8.4392   9.5317  10.0212

     occupation numbers 
     1.0000   1.0000   1.0000   1.0000   1.0000   1.0000   1.0000   1.0000
     1.0000   1.0000   1.0000   1.0000   1.0000   1.0000   1.0000   1.0000
     0.9236   0.2405  -0.0000  -0.0000  -0.0000

          k =-0.7986 0.1717-0.2708 (  4299 PWs)   bands (ev):

   -49.8529 -26.1499 -25.9041 -25.7563 -12.2205  -8.9772  -8.7831   0.9036
     1.2907   1.8733   2.1114   2.7975   3.0037   3.3964   3.7766   3.9614
     6.9276   6.9979   8.0736   9.5529  10.1547

     occupation numbers 
     1.0000   1.0000   1.0000   1.0000   1.0000   1.0000   1.0000   1.0000
     1.0000   1.0000   1.0000   1.0000   1.0000   1.0000   1.0000   1.0000
    -0.0240  -0.0077  -0.0000  -0.0000  -0.0000

          k =-0.5990 0.3435-0.2708 (  4306 PWs)   bands (ev):

   -49.8557 -26.2003 -25.8495 -25.7643 -11.9350  -9.0395  -8.8375   1.2758
     1.4562   1.6387   1.8477   2.1264   2.5754   3.0018   3.7806   4.0609
     7.2793   7.6536   7.8282   9.1916  10.7868

     occupation numbers 
     1.0000   1.0000   1.0000   1.0000   1.0000   1.0000   1.0000   1.0000
     1.0000   1.0000   1.0000   1.0000   1.0000   1.0000   1.0000   1.0000
    -0.0000  -0.0000  -0.0000  -0.0000  -0.0000

          k =-0.3993 0.5152-0.2708 (  4295 PWs)   bands (ev):

   -49.8591 -26.2621 -25.7815 -25.7740 -11.5468  -9.1289  -8.8851   0.4940
     1.2393   1.6194   1.7371   2.1381   2.5348   3.2061   3.5528   4.0405
     6.5707   8.5612   8.6684   8.8989  11.1604

     occupation numbers 
     1.0000   1.0000   1.0000   1.0000   1.0000   1.0000   1.0000   1.0000
     1.0000   1.0000   1.0000   1.0000   1.0000   1.0000   1.0000   1.0000
     0.9227  -0.0000  -0.0000  -0.0000  -0.0000

          k =-0.1997 0.6869-0.2708 (  4309 PWs)   bands (ev):

   -49.8620 -26.3118 -25.7818 -25.7262 -11.1946  -9.2093  -8.9130  -0.3760
     0.8530   1.4232   1.9060   2.3195   2.8354   3.4407   3.5276   4.0017
     5.9868   8.8135   9.2992   9.3710  11.0688

     occupation numbers 
     1.0000   1.0000   1.0000   1.0000   1.0000   1.0000   1.0000   1.0000
     1.0000   1.0000   1.0000   1.0000   1.0000   1.0000   1.0000   1.0000
     1.0000  -0.0000  -0.0000  -0.0000  -0.0000

          k =-1.9966-0.8586-0.2708 (  4316 PWs)   bands (ev):

   -49.8631 -26.3308 -25.7848 -25.7050 -11.0481  -9.2425  -8.9216  -0.7038
     0.6800   1.3369   2.1356   2.3854   2.6590   3.4371   3.9218   3.9712
     5.6884   8.8765   9.5364   9.6601  10.9563

     occupation numbers 
     1.0000   1.0000   1.0000   1.0000   1.0000   1.0000   1.0000   1.0000
     1.0000   1.0000   1.0000   1.0000   1.0000   1.0000   1.0000   1.0000
     1.0000  -0.0000  -0.0000  -0.0000  -0.0000

          k = 0.3993 0.3435 0.1083 (  4298 PWs)   bands (ev):

   -49.8602 -26.2059 -25.7835 -25.7761 -11.9701  -9.2255  -8.8350   1.1519
     1.6342   1.8480   2.0478   2.3906   2.6565   3.2105   3.8184   4.0428
     6.4661   7.8465   7.9378   8.9634  10.7810

     occupation numbers 
     1.0000   1.0000   1.0000   1.0000   1.0000   1.0000   1.0000   1.0000
     1.0000   1.0000   1.0000   1.0000   1.0000   1.0000   1.0000   1.0000
     1.0354  -0.0000  -0.0000  -0.0000  -0.0000

          k = 0.5990 0.5152 0.1083 (  4295 PWs)   bands (ev):

   -49.8546 -26.2561 -25.8473 -25.7622 -11.5141  -8.9816  -8.8451   0.5265
     1.3970   1.6034   1.6918   1.7679   2.0406   2.7351   3.7304   3.9936
     7.2629   8.4099   8.5750   9.3447  11.3093

     occupation numbers 
     1.0000   1.0000   1.0000   1.0000   1.0000   1.0000   1.0000   1.0000
     1.0000   1.0000   1.0000   1.0000   1.0000   1.0000   1.0000   1.0000
    -0.0000  -0.0000  -0.0000  -0.0000  -0.0000

          k = 0.7986 0.6869 0.1083 (  4308 PWs)   bands (ev):

   -49.8502 -26.2955 -25.8981 -25.7510 -11.1129  -8.8720  -8.7525  -0.3125
     0.8193   1.1520   1.6951   1.7443   2.2491   2.3787   3.4405   3.9396
     8.0853   8.9245   9.1371   9.6480  11.3690

     occupation numbers 
     1.0000   1.0000   1.0000   1.0000   1.0000   1.0000   1.0000   1.0000
     1.0000   1.0000   1.0000   1.0000   1.0000   1.0000   1.0000   1.0000
    -0.0000  -0.0000  -0.0000  -0.0000  -0.0000

          k = 0.9983 0.8586 0.1083 (  4304 PWs)   bands (ev):

   -49.8485 -26.3102 -25.9173 -25.7467 -10.9501  -8.8752  -8.6681  -0.6317
     0.5882   0.9525   1.7709   1.8762   1.9386   2.6091   3.2476   3.8967
     8.4865   9.1514   9.3462   9.7670  11.3960

     occupation numbers 
     1.0000   1.0000   1.0000   1.0000   1.0000   1.0000   1.0000   1.0000
     1.0000   1.0000   1.0000   1.0000   1.0000   1.0000   1.0000   1.0000
    -0.0000  -0.0000  -0.0000  -0.0000  -0.0000

          k = 0.0000 0.0000 0.1083 (  4287 PWs)   bands (ev):

   -49.8663 -26.1476 -25.7916 -25.7110 -12.4404  -9.4817  -8.8251   0.6924
     2.5076   2.7033   2.8455   3.0084   3.4233   3.8593   4.1584   4.2633
     5.5407   7.1797   7.3440   8.7081   9.4230

     occupation numbers 
     1.0000   1.0000   1.0000   1.0000   1.0000   1.0000   1.0000   1.0000
     1.0000   1.0000   1.0000   1.0000   1.0000   1.0000   1.0000   1.0000
     1.0000  -0.0000  -0.0000  -0.0000  -0.0000

          k = 0.5990 0.3435 0.1625 (  4300 PWs)   bands (ev):

   -49.8557 -26.2003 -25.8495 -25.7643 -11.9352  -9.0358  -8.8428   1.3503
     1.5405   1.7104   1.8848   2.0537   2.3825   2.8857   3.8187   4.0885
     7.2139   7.6830   7.8234   9.3285  10.8987

     occupation numbers 
     1.0000   1.0000   1.0000   1.0000   1.0000   1.0000   1.0000   1.0000
     1.0000   1.0000   1.0000   1.0000   1.0000   1.0000   1.0000   1.0000
    -0.0000  -0.0000  -0.0000  -0.0000  -0.0000

          k = 0.7986 0.5152 0.1625 (  4311 PWs)   bands (ev):

   -49.8511 -26.2513 -25.9000 -25.7527 -11.4870  -8.8947  -8.7732   0.5477
     1.0944   1.1160   1.6054   1.8933   2.4098   2.4730   3.5793   4.0381
     8.0157   8.3229   8.5101   9.6706  11.1878

     occupation numbers 
     1.0000   1.0000   1.0000   1.0000   1.0000   1.0000   1.0000   1.0000
     1.0000   1.0000   1.0000   1.0000   1.0000   1.0000   1.0000   1.0000
    -0.0000  -0.0000  -0.0000  -0.0000  -0.0000

          k = 0.9983 0.6869 0.1625 (  4305 PWs)   bands (ev):

   -49.8488 -26.2936 -25.9180 -25.7474 -11.1030  -8.8830  -8.6769  -0.3047
     0.6954   0.9168   1.6601   1.8977   2.1216   2.6432   3.2813   3.9468
     8.4826   8.8830   9.1136   9.7500  11.3154

     occupation numbers 
     1.0000   1.0000   1.0000   1.0000   1.0000   1.0000   1.0000   1.0000
     1.0000   1.0000   1.0000   1.0000   1.0000   1.0000   1.0000   1.0000
    -0.0000  -0.0000  -0.0000  -0.0000  -0.0000

          k = 1.1980 0.8586 0.1625 (  4309 PWs)   bands (ev):

   -49.8499 -26.3122 -25.8974 -25.7504 -10.9597  -8.8790  -8.7276  -0.6386
     0.7055   1.1349   1.5588   1.7674   2.3078   2.4559   3.3692   3.8505
     8.1165   9.1715   9.3776   9.5982  11.3607

     occupation numbers 
     1.0000   1.0000   1.0000   1.0000   1.0000   1.0000   1.0000   1.0000
     1.0000   1.0000   1.0000   1.0000   1.0000   1.0000   1.0000   1.0000
    -0.0000  -0.0000  -0.0000  -0.0000  -0.0000

          k =-0.5990-0.6869 0.1625 (  4303 PWs)   bands (ev):

   -49.8538 -26.3006 -25.8455 -25.7606 -11.1385  -8.9279  -8.8563  -0.3325
     1.1200   1.4296   1.6274   1.7202   2.0805   2.7642   3.6313   3.8095
     7.3224   8.9881   9.1838   9.3183  11.4409

     occupation numbers 
     1.0000   1.0000   1.0000   1.0000   1.0000   1.0000   1.0000   1.0000
     1.0000   1.0000   1.0000   1.0000   1.0000   1.0000   1.0000   1.0000
    -0.0000  -0.0000  -0.0000  -0.0000  -0.0000

          k =-0.3993-0.5152 0.1625 (  4296 PWs)   bands (ev):

   -49.8591 -26.2621 -25.7815 -25.7740 -11.5472  -9.1579  -8.8535   0.4971
     1.2425   1.5130   1.8280   2.1281   2.5421   3.1957   3.6565   3.9647
     6.5328   8.5710   8.6513   8.9596  11.1574

     occupation numbers 
     1.0000   1.0000   1.0000   1.0000   1.0000   1.0000   1.0000   1.0000
     1.0000   1.0000   1.0000   1.0000   1.0000   1.0000   1.0000   1.0000
     0.9991  -0.0000  -0.0000  -0.0000  -0.0000

          k = 0.0000-0.1717 0.1625 (  4281 PWs)   bands (ev):

   -49.8660 -26.1656 -25.7910 -25.7104 -12.3247  -9.4480  -8.8479   0.7720
     2.2141   2.5359   2.5730   3.2182   3.3078   3.6596   4.0438   4.1590
     5.5617   7.4616   7.5466   8.7545   9.7162

     occupation numbers 
     1.0000   1.0000   1.0000   1.0000   1.0000   1.0000   1.0000   1.0000
     1.0000   1.0000   1.0000   1.0000   1.0000   1.0000   1.0000   1.0000
     1.0000  -0.0000  -0.0000  -0.0000  -0.0000

          k = 0.1997 0.0000 0.1625 (  4279 PWs)   bands (ev):

   -49.8649 -26.1460 -25.7880 -25.7317 -12.4290  -9.4119  -8.8473   0.8514
     2.3566   2.6399   2.8628   3.0941   3.1946   3.7452   4.0003   4.0833
     5.8493   7.1111   7.3209   8.7212   9.7136

     occupation numbers 
     1.0000   1.0000   1.0000   1.0000   1.0000   1.0000   1.0000   1.0000
     1.0000   1.0000   1.0000   1.0000   1.0000   1.0000   1.0000   1.0000
     1.0000  -0.0004  -0.0000  -0.0000  -0.0000

          k = 0.7986 0.3435 0.2166 (  4312 PWs)   bands (ev):

   -49.8521 -26.1957 -25.9022 -25.7547 -11.9071  -8.9370  -8.7827   0.9759
     1.3721   1.5563   1.7754   2.0186   2.6306   2.8752   3.7434   4.0593
     7.4838   7.7111   8.0925   9.6391  10.7381

     occupation numbers 
     1.0000   1.0000   1.0000   1.0000   1.0000   1.0000   1.0000   1.0000
     1.0000   1.0000   1.0000   1.0000   1.0000   1.0000   1.0000   1.0000
    -0.0000  -0.0000  -0.0000  -0.0000  -0.0000

          k = 0.9983 0.5152 0.2166 (  4301 PWs)   bands (ev):

   -49.8496 -26.2494 -25.9199 -25.7490 -11.4766  -8.9036  -8.6996   0.5501
     0.8629   0.9974   1.5528   1.8920   2.4474   2.7605   3.4306   4.0253
     8.2150   8.4774   8.4851   9.7410  11.0886

     occupation numbers 
     1.0000   1.0000   1.0000   1.0000   1.0000   1.0000   1.0000   1.0000
     1.0000   1.0000   1.0000   1.0000   1.0000   1.0000   1.0000   1.0000
    -0.0000  -0.0000  -0.0000  -0.0000  -0.0000

          k = 1.1980 0.6869 0.2166 (  4302 PWs)   bands (ev):

   -49.8502 -26.2955 -25.8981 -25.7510 -11.1128  -8.8957  -8.7268  -0.3126
     0.8025   1.0922   1.4889   1.8442   2.3917   2.5371   3.4129   3.8689
     8.1187   8.9117   9.1399   9.5716  11.2786

     occupation numbers 
     1.0000   1.0000   1.0000   1.0000   1.0000   1.0000   1.0000   1.0000
     1.0000   1.0000   1.0000   1.0000   1.0000   1.0000   1.0000   1.0000
    -0.0000  -0.0000  -0.0000  -0.0000  -0.0000

          k = 1.3976 0.8586 0.2166 (  4312 PWs)   bands (ev):

   -49.8536 -26.3174 -25.8449 -25.7599 -10.9846  -8.8898  -8.8782  -0.6567
     0.9968   1.3308   1.6393   1.6853   2.1554   2.7998   3.6307   3.6702
     7.3514   9.1035   9.3890   9.4390  11.4627

     occupation numbers 
     1.0000   1.0000   1.0000   1.0000   1.0000   1.0000   1.0000   1.0000
     1.0000   1.0000   1.0000   1.0000   1.0000   1.0000   1.0000   1.0000
    -0.0000  -0.0000  -0.0000  -0.0000  -0.0000

          k =-0.3993-0.6869 0.2166 (  4302 PWs)   bands (ev):

   -49.8583 -26.3068 -25.7799 -25.7723 -11.1697  -9.0896  -8.8835  -0.3567
     1.0920   1.4816   1.6080   1.9871   2.5663   3.1006   3.5497   3.8810
     6.5853   8.8565   9.2318   9.2744  11.3586

     occupation numbers 
     1.0000   1.0000   1.0000   1.0000   1.0000   1.0000   1.0000   1.0000
     1.0000   1.0000   1.0000   1.0000   1.0000   1.0000   1.0000   1.0000
     0.8791  -0.0000  -0.0000  -0.0000  -0.0000

          k =-0.0000-0.3435 0.2166 (  4297 PWs)   bands (ev):

   -49.8652 -26.2122 -25.7893 -25.7089 -12.0084  -9.3822  -8.8785   0.8792
     1.5923   1.7246   2.5826   2.9728   3.0213   3.4775   4.0183   4.0806
     5.5986   8.0542   8.1207   8.8155  10.2405

     occupation numbers 
     1.0000   1.0000   1.0000   1.0000   1.0000   1.0000   1.0000   1.0000
     1.0000   1.0000   1.0000   1.0000   1.0000   1.0000   1.0000   1.0000
     1.0000  -0.0000  -0.0000  -0.0000  -0.0000

          k = 0.1997-0.1717 0.2166 (  4286 PWs)   bands (ev):

   -49.8646 -26.1639 -25.7874 -25.7312 -12.3135  -9.3743  -8.8738   0.9405
     2.2441   2.3607   2.5905   3.0366   3.1918   3.5698   3.8900   4.0616
     5.8783   7.3806   7.5252   8.7428  10.0126

     occupation numbers 
     1.0000   1.0000   1.0000   1.0000   1.0000   1.0000   1.0000   1.0000
     1.0000   1.0000   1.0000   1.0000   1.0000   1.0000   1.0000   1.0000
     1.0000  -0.0000  -0.0000  -0.0000  -0.0000

          k = 0.3993 0.0000 0.2166 (  4294 PWs)   bands (ev):

   -49.8613 -26.1417 -25.7858 -25.7785 -12.3998  -9.2571  -8.8637   1.1132
     2.0793   2.2643   2.6833   2.9251   3.2870   3.5392   3.8690   3.9410
     6.4785   6.9516   7.1882   8.8446  10.0069

     occupation numbers 
     1.0000   1.0000   1.0000   1.0000   1.0000   1.0000   1.0000   1.0000
     1.0000   1.0000   1.0000   1.0000   1.0000   1.0000   1.0000   1.0000
     1.0350  -0.0174  -0.0000  -0.0000  -0.0000

          k = 0.9983 0.3435 0.2708 (  4310 PWs)   bands (ev):

   -49.8507 -26.1940 -25.9223 -25.7510 -11.8963  -8.9286  -8.7272   0.7521
     1.3491   1.5286   1.7544   1.9099   2.7299   3.0584   3.6519   4.0372
     7.4608   7.6669   8.4620   9.7230  10.6810

     occupation numbers 
     1.0000   1.0000   1.0000   1.0000   1.0000   1.0000   1.0000   1.0000
     1.0000   1.0000   1.0000   1.0000   1.0000   1.0000   1.0000   1.0000
    -0.0000  -0.0000  -0.0000  -0.0000  -0.0000

          k = 1.1980 0.5152 0.2708 (  4304 PWs)   bands (ev):

   -49.8511 -26.2513 -25.9000 -25.7527 -11.4869  -8.9178  -8.7480   0.5469
     1.0412   1.1080   1.4574   1.9624   2.5022   2.6217   3.5625   3.9784
     8.0673   8.2949   8.5124   9.5875  11.0940

     occupation numbers 
     1.0000   1.0000   1.0000   1.0000   1.0000   1.0000   1.0000   1.0000
     1.0000   1.0000   1.0000   1.0000   1.0000   1.0000   1.0000   1.0000
    -0.0000  -0.0000  -0.0000  -0.0000  -0.0000

          k = 1.3976 0.6869 0.2708 (  4306 PWs)   bands (ev):

   -49.8539 -26.3006 -25.8456 -25.7606 -11.1384  -8.9314  -8.8522  -0.3327
     1.0907   1.3778   1.6381   1.6652   2.2129   2.8197   3.6280   3.7607
     7.3435   8.9574   9.1974   9.2888  11.4047

     occupation numbers 
     1.0000   1.0000   1.0000   1.0000   1.0000   1.0000   1.0000   1.0000
     1.0000   1.0000   1.0000   1.0000   1.0000   1.0000   1.0000   1.0000
    -0.0000  -0.0000  -0.0000  -0.0000  -0.0000

          k = 1.5973 0.8586 0.2708 (  4302 PWs)   bands (ev):

   -49.8580 -26.3237 -25.7792 -25.7717 -11.0149  -9.0550  -8.9042  -0.6790
     1.0118   1.3910   1.6974   1.8766   2.5999   3.0306   3.5261   3.8460
     6.6048   8.8592   9.4640   9.5010  11.4201

     occupation numbers 
     1.0000   1.0000   1.0000   1.0000   1.0000   1.0000   1.0000   1.0000
     1.0000   1.0000   1.0000   1.0000   1.0000   1.0000   1.0000   1.0000
     0.8083  -0.0000  -0.0000  -0.0000  -0.0000

          k = 0.0000-0.5152 0.2708 (  4314 PWs)   bands (ev):

   -49.8643 -26.2688 -25.7872 -25.7071 -11.5836  -9.3019  -8.9142   0.4588
     0.9428   1.4157   2.4751   2.6285   2.7024   3.4076   3.9350   4.1105
     5.6443   8.7187   8.8484   8.8801  10.6866

     occupation numbers 
     1.0000   1.0000   1.0000   1.0000   1.0000   1.0000   1.0000   1.0000
     1.0000   1.0000   1.0000   1.0000   1.0000   1.0000   1.0000   1.0000
     1.0000  -0.0000  -0.0000  -0.0000  -0.0000

          k = 0.1997-0.3435 0.2708 (  4294 PWs)   bands (ev):

   -49.8638 -26.2105 -25.7857 -25.7296 -11.9974  -9.3066  -8.9049   1.0398
     1.6058   1.8214   2.2875   2.7812   2.9772   3.4710   3.6492   4.1623
     5.9219   8.0347   8.0369   8.7847  10.5270

     occupation numbers 
     1.0000   1.0000   1.0000   1.0000   1.0000   1.0000   1.0000   1.0000
     1.0000   1.0000   1.0000   1.0000   1.0000   1.0000   1.0000   1.0000
     1.0000  -0.0000  -0.0000  -0.0000  -0.0000

          k = 0.3993-0.1717 0.2708 (  4296 PWs)   bands (ev):

   -49.8610 -26.1596 -25.7852 -25.7778 -12.2845  -9.2247  -8.8821   1.1692
     1.9891   2.2267   2.4601   2.6315   3.1429   3.3300   3.8217   4.0655
     6.5149   7.1950   7.4041   8.8089  10.2755

     occupation numbers 
[...]

   -49.8659 -26.1656 -25.7910 -25.7104 -12.3235  -9.3161  -9.0036   1.1901
     2.2427   2.5480   2.6491   2.7559   3.2606   3.4984   3.9923   4.0047
     5.5882   7.4613   7.6279   8.9504  10.0715

     occupation numbers 
     1.0000   1.0000   1.0000   1.0000   1.0000   1.0000   1.0000   1.0000
     1.0000   1.0000   1.0000   1.0000   1.0000   1.0000   1.0000   1.0000
     1.0000  -0.0000  -0.0000  -0.0000  -0.0000

          k = 0.1997 0.0000 0.3791 (  4289 PWs)   bands (ev):

   -49.8649 -26.1460 -25.7881 -25.7318 -12.4280  -9.2929  -8.9860   1.2395
     2.1401   2.6337   2.7935   3.0650   3.3223   3.5791   3.8717   3.9046
     5.9272   7.0932   7.4172   8.7996   9.8958

     occupation numbers 
     1.0000   1.0000   1.0000   1.0000   1.0000   1.0000   1.0000   1.0000
     1.0000   1.0000   1.0000   1.0000   1.0000   1.0000   1.0000   1.0000
     1.0000  -0.0008  -0.0000  -0.0000  -0.0000

          k =-1.9966-0.3435-0.1083 (  4290 PWs)   bands (ev):

   -49.8652 -26.2122 -25.7893 -25.7089 -12.0072  -9.2368  -9.0438   1.2149
     1.6552   1.9021   2.3619   2.6807   3.0038   3.1689   3.8676   4.2740
     5.6193   8.0802   8.1196   8.9742  10.5906

     occupation numbers 
     1.0000   1.0000   1.0000   1.0000   1.0000   1.0000   1.0000   1.0000
     1.0000   1.0000   1.0000   1.0000   1.0000   1.0000   1.0000   1.0000
     1.0000  -0.0000  -0.0000  -0.0000  -0.0000

          k =-1.7969-0.1717-0.1083 (  4276 PWs)   bands (ev):

   -49.8645 -26.1639 -25.7874 -25.7312 -12.3124  -9.2406  -9.0255   1.3571
     1.9985   2.4560   2.5457   2.9321   3.0947   3.4862   3.7582   4.0293
     5.9440   7.3724   7.5829   8.8337  10.1949

     occupation numbers 
     1.0000   1.0000   1.0000   1.0000   1.0000   1.0000   1.0000   1.0000
     1.0000   1.0000   1.0000   1.0000   1.0000   1.0000   1.0000   1.0000
     1.0000  -0.0000  -0.0000  -0.0000  -0.0000

          k =-1.5973 0.0000-0.1083 (  4277 PWs)   bands (ev):

   -49.8612 -26.1417 -25.7858 -25.7785 -12.3991  -9.1804  -8.9474   1.3110
     1.7481   2.3127   2.6740   2.8575   3.5146   3.6455   3.7767   3.8637
     6.6012   6.9004   7.2261   8.6862   9.9354

     occupation numbers 
     1.0000   1.0000   1.0000   1.0000   1.0000   1.0000   1.0000   1.0000
     1.0000   1.0000   1.0000   1.0000   1.0000   1.0000   1.0000   1.0000
     0.8223  -0.0313  -0.0000  -0.0000  -0.0000

          k = 0.0000 1.2021-0.0542 (  4303 PWs)   bands (ev):

   -49.8642 -26.2688 -25.7872 -25.7070 -11.5828  -9.1695  -9.0594   0.4534
     1.2467   1.4282   2.3355   2.6891   2.7001   2.9339   3.8339   4.3484
     5.6541   8.7245   8.8597   8.9662  10.8906

     occupation numbers 
     1.0000   1.0000   1.0000   1.0000   1.0000   1.0000   1.0000   1.0000
     1.0000   1.0000   1.0000   1.0000   1.0000   1.0000   1.0000   1.0000
     1.0000  -0.0000  -0.0000  -0.0000  -0.0000

          k =-1.7969-0.3435-0.0542 (  4282 PWs)   bands (ev):

   -49.8637 -26.2105 -25.7857 -25.7296 -11.9965  -9.1636  -9.0613   1.3191
     1.7049   1.9021   2.0007   2.7130   2.9585   3.2681   3.5051   4.2883
     5.9703   8.0349   8.0381   8.8661  10.7070

     occupation numbers 
     1.0000   1.0000   1.0000   1.0000   1.0000   1.0000   1.0000   1.0000
     1.0000   1.0000   1.0000   1.0000   1.0000   1.0000   1.0000   1.0000
     1.0000  -0.0000  -0.0000  -0.0000  -0.0000

          k =-1.5973-0.1717-0.0542 (  4277 PWs)   bands (ev):

   -49.8609 -26.1596 -25.7852 -25.7778 -12.2839  -9.1505  -8.9621   1.3807
     1.6445   2.2769   2.4960   2.6138   3.2876   3.3319   3.6966   4.1011
     6.6210   7.1727   7.4163   8.6924  10.2101

     occupation numbers 
     1.0000   1.0000   1.0000   1.0000   1.0000   1.0000   1.0000   1.0000
     1.0000   1.0000   1.0000   1.0000   1.0000   1.0000   1.0000   1.0000
     0.7399  -0.0001  -0.0000  -0.0000  -0.0000

          k =-1.3976 0.0000-0.0542 (  4294 PWs)   bands (ev):

   -49.8568 -26.1365 -25.8519 -25.7666 -12.3636  -9.0965  -8.8351   1.1149
     1.2836   2.0545   2.5480   2.9644   3.6146   3.6342   3.7906   3.8743
     6.7345   6.9333   7.3804   8.8729   9.7910

     occupation numbers 
     1.0000   1.0000   1.0000   1.0000   1.0000   1.0000   1.0000   1.0000
     1.0000   1.0000   1.0000   1.0000   1.0000   1.0000   1.0000   1.0000
     0.1912  -0.0224  -0.0000  -0.0000  -0.0000

          k =-0.0000 1.0304-0.0000 (  4303 PWs)   bands (ev):

   -49.8634 -26.3138 -25.7854 -25.7055 -11.2036  -9.1880  -8.9972  -0.3843
     0.9825   1.1664   2.4668   2.5274   2.6852   2.7894   3.8672   4.2838
     5.6762   8.9287   9.3090   9.4386  10.9438

     occupation numbers 
     1.0000   1.0000   1.0000   1.0000   1.0000   1.0000   1.0000   1.0000
     1.0000   1.0000   1.0000   1.0000   1.0000   1.0000   1.0000   1.0000
     1.0000  -0.0000  -0.0000  -0.0000  -0.0000

          k = 0.1997 1.2021-0.0000 (  4301 PWs)   bands (ev):

   -49.8628 -26.2670 -25.7836 -25.7277 -11.5727  -9.1040  -9.0678   0.4633
     1.3864   1.3999   2.0365   2.4018   2.9640   3.1276   3.4050   4.3109
     5.9918   8.6418   8.7839   8.9243  11.0269

     occupation numbers 
     1.0000   1.0000   1.0000   1.0000   1.0000   1.0000   1.0000   1.0000
     1.0000   1.0000   1.0000   1.0000   1.0000   1.0000   1.0000   1.0000
     1.0000  -0.0000  -0.0000  -0.0000  -0.0000

          k =-1.5973-0.3435-0.0000 (  4294 PWs)   bands (ev):

   -49.8602 -26.2059 -25.7835 -25.7761 -11.9689  -9.1002  -8.9703   1.4135
     1.4333   1.8231   2.1029   2.1555   2.9350   3.1756   3.5220   4.2177
     6.6357   7.8396   7.9403   8.7422  10.7384

     occupation numbers 
     1.0000   1.0000   1.0000   1.0000   1.0000   1.0000   1.0000   1.0000
     1.0000   1.0000   1.0000   1.0000   1.0000   1.0000   1.0000   1.0000
     0.6718  -0.0000  -0.0000  -0.0000  -0.0000

          k =-1.3976-0.1717-0.0000 (  4299 PWs)   bands (ev):

   -49.8565 -26.1543 -25.8512 -25.7660 -12.2488  -9.0831  -8.8325   1.1284
     1.2949   1.9232   2.4735   2.7035   3.1975   3.4615   3.7404   4.0496
     6.9890   7.1874   7.3922   8.8786  10.0610

     occupation numbers 
     1.0000   1.0000   1.0000   1.0000   1.0000   1.0000   1.0000   1.0000
     1.0000   1.0000   1.0000   1.0000   1.0000   1.0000   1.0000   1.0000
    -0.0092  -0.0000  -0.0000  -0.0000  -0.0000

          k =-1.1980 0.0000-0.0000 (  4300 PWs)   bands (ev):

   -49.8532 -26.1322 -25.9048 -25.7570 -12.3349  -9.0251  -8.7454   0.8318
     1.0560   1.9924   2.3465   3.1165   3.4856   3.6396   3.7756   3.9452
     6.6686   6.6763   8.1262   9.3468   9.6678

     occupation numbers 
     1.0000   1.0000   1.0000   1.0000   1.0000   1.0000   1.0000   1.0000
     1.0000   1.0000   1.0000   1.0000   1.0000   1.0000   1.0000   1.0000
     0.5051   0.4654  -0.0000  -0.0000  -0.0000

          k = 0.0000 0.0000 0.4332 (  4281 PWs)   bands (ev):

   -49.8663 -26.1476 -25.7917 -25.7110 -12.4387  -9.2866  -9.0542   1.3252
     2.2666   2.6725   2.7599   3.3237   3.3267   3.3452   3.8266   4.0690
     5.5796   7.1804   7.5067   8.9913   9.8602

     occupation numbers 
     1.0000   1.0000   1.0000   1.0000   1.0000   1.0000   1.0000   1.0000
     1.0000   1.0000   1.0000   1.0000   1.0000   1.0000   1.0000   1.0000
     1.0000  -0.0000  -0.0000  -0.0000  -0.0000

          k =-1.9966-0.1717-0.0542 (  4273 PWs)   bands (ev):

   -49.8659 -26.1656 -25.7910 -25.7104 -12.3231  -9.2291  -9.0978   1.4082
     2.1633   2.5093   2.6318   2.6931   3.2373   3.4791   3.9580   3.9644
     5.5921   7.4612   7.6558   9.0108  10.1684

     occupation numbers 
     1.0000   1.0000   1.0000   1.0000   1.0000   1.0000   1.0000   1.0000
     1.0000   1.0000   1.0000   1.0000   1.0000   1.0000   1.0000   1.0000
     1.0000  -0.0000  -0.0000  -0.0000  -0.0000

          k =-1.7969 0.0000-0.0542 (  4282 PWs)   bands (ev):

   -49.8649 -26.1460 -25.7880 -25.7318 -12.4276  -9.2218  -9.0631   1.4860
     1.8952   2.6917   2.7802   3.0109   3.4219   3.5540   3.7697   3.8603
     5.9433   7.0899   7.4442   8.8438   9.9266

     occupation numbers 
     1.0000   1.0000   1.0000   1.0000   1.0000   1.0000   1.0000   1.0000
     1.0000   1.0000   1.0000   1.0000   1.0000   1.0000   1.0000   1.0000
     1.0000  -0.0008  -0.0000  -0.0000  -0.0000

          k = 0.0000 1.3738 0.0000 (  4283 PWs)   bands (ev):

   -49.8651 -26.2122 -25.7893 -25.7089 -12.0070  -9.1531  -9.1309   1.2872
     1.7141   1.9113   2.2364   2.7010   2.9988   3.1055   3.8407   4.2974
     5.6225   8.0879   8.1195   9.0012  10.6474

     occupation numbers 
     1.0000   1.0000   1.0000   1.0000   1.0000   1.0000   1.0000   1.0000
     1.0000   1.0000   1.0000   1.0000   1.0000   1.0000   1.0000   1.0000
     1.0000  -0.0000  -0.0000  -0.0000  -0.0000

          k =-1.7969-0.1717 0.0000 (  4273 PWs)   bands (ev):

   -49.8645 -26.1639 -25.7874 -25.7312 -12.3122  -9.1883  -9.0808   1.5159
     1.8494   2.4907   2.5211   2.9562   3.0585   3.4754   3.7328   4.0203
     5.9531   7.3714   7.5921   8.8564  10.2164

     occupation numbers 
     1.0000   1.0000   1.0000   1.0000   1.0000   1.0000   1.0000   1.0000
     1.0000   1.0000   1.0000   1.0000   1.0000   1.0000   1.0000   1.0000
     1.0000  -0.0000  -0.0000  -0.0000  -0.0000

          k =-1.5973 0.0000 0.0000 (  4280 PWs)   bands (ev):

   -49.8612 -26.1417 -25.7858 -25.7785 -12.3989  -9.1609  -8.9681   1.3967
     1.6309   2.3392   2.6659   2.8489   3.5905   3.6811   3.7086   3.8410
     6.6231   6.8931   7.2310   8.6673   9.9157

     occupation numbers 
     1.0000   1.0000   1.0000   1.0000   1.0000   1.0000   1.0000   1.0000
     1.0000   1.0000   1.0000   1.0000   1.0000   1.0000   1.0000   1.0000
     0.7304  -0.0328  -0.0000  -0.0000  -0.0000

          k =-1.9966-1.7173-0.5415 (  4270 PWs)   bands (ev):

   -49.8662 -26.1476 -25.7917 -25.7109 -12.4385  -9.2222  -9.1225   1.4822
     2.1147   2.6984   2.7544   3.3045   3.3096   3.3849   3.7628   4.0480
     5.5798   7.1805   7.5254   9.0249   9.9018

     occupation numbers 
     1.0000   1.0000   1.0000   1.0000   1.0000   1.0000   1.0000   1.0000
     1.0000   1.0000   1.0000   1.0000   1.0000   1.0000   1.0000   1.0000
     1.0000  -0.0000  -0.0000  -0.0000  -0.0000

     the Fermi energy is     6.6696 ev

!    total energy              =    -534.96405613 Ry

     total all-electron energy =     -9636.854299 Ry
     estimated scf accuracy    <          2.9E-11 Ry
     smearing contrib. (-TS)   =      -0.00010246 Ry
     internal energy E=F+TS    =    -534.96395367 Ry

     The total energy is F=E-TS. E is the sum of the following terms:
     one-electron contribution =     -93.92193355 Ry
     hartree contribution      =      61.19626180 Ry
     xc contribution           =     -39.53678997 Ry
     ewald contribution        =    -135.48921389 Ry
     one-center paw contrib.   =    -327.21227806 Ry
      -> PAW hartree energy AE =      29.08386961 Ry
      -> PAW hartree energy PS =     -29.05378448 Ry
      -> PAW xc energy AE      =     -17.03763847 Ry
      -> PAW xc energy PS      =       7.41337162 Ry
      -> total E_H with PAW    =      61.22634694 Ry
      -> total E_XC with PAW   =     -49.16105683 Ry

     convergence has been achieved in  13 iterations

     Forces acting on atoms (cartesian axes, Ry/au):

     atom    1 type  1   force =    -0.00000000   -0.00000000    0.00000000
     atom    2 type  2   force =     0.00000000    0.00000000    0.03558371
     atom    3 type  2   force =     0.00000000    0.00000000   -0.03558371
     atom    4 type  3   force =    -0.00000000   -0.00000000    0.00000000
     The non-local contrib.  to forces
     atom    1 type  1   force =     0.00000000    0.00000000    0.00000000
     atom    2 type  2   force =     0.00000000    0.00000000    0.08873195
     atom    3 type  2   force =     0.00000000    0.00000000   -0.08873195
     atom    4 type  3   force =     0.00000000    0.00000000    0.00000000
     The ionic contribution  to forces
     atom    1 type  1   force =    -0.00000000   -0.00000000    0.00000000
     atom    2 type  2   force =     0.00000001    0.00000000  -10.07462875
     atom    3 type  2   force =    -0.00000001   -0.00000000   10.07462875
     atom    4 type  3   force =    -0.00000000   -0.00000000    0.00000000
     The local contribution  to forces
     atom    1 type  1   force =     0.00000000    0.00000000   -0.00000000
     atom    2 type  2   force =     0.00000002   -0.00000003   10.02034335
     atom    3 type  2   force =    -0.00000002    0.00000003  -10.02034335
     atom    4 type  3   force =    -0.00000000   -0.00000000   -0.00000000
     The core correction contribution to forces
     atom    1 type  1   force =    -0.00000000    0.00000000   -0.00000000
     atom    2 type  2   force =    -0.00000000    0.00000000    0.00113505
     atom    3 type  2   force =     0.00000000   -0.00000000   -0.00113505
     atom    4 type  3   force =    -0.00000000   -0.00000000   -0.00000000
     The Hubbard contrib.    to forces
     atom    1 type  1   force =     0.00000000    0.00000000    0.00000000
     atom    2 type  2   force =     0.00000000    0.00000000    0.00000000
     atom    3 type  2   force =     0.00000000    0.00000000    0.00000000
     atom    4 type  3   force =     0.00000000    0.00000000    0.00000000
     The SCF correction term to forces
     atom    1 type  1   force =     0.00000000    0.00000000   -0.00000000
     atom    2 type  2   force =    -0.00000000    0.00000000    0.00000211
     atom    3 type  2   force =     0.00000000   -0.00000000   -0.00000211
     atom    4 type  3   force =    -0.00000000   -0.00000000   -0.00000000

     Total force =     0.050323     Total SCF correction =     0.000003


     Computing stress (Cartesian axis) and pressure

          total   stress  (Ry/bohr**3)                   (kbar)     P=      -41.74
  -0.00029927   0.00000000   0.00000000          -44.02        0.00        0.00
  -0.00000000  -0.00027709   0.00000000           -0.00      -40.76        0.00
  -0.00000000  -0.00000000  -0.00027480           -0.00       -0.00      -40.42

     kinetic stress (kbar)  14778.78      0.00      0.00
                                0.00  14772.70      0.00
                                0.00      0.00  14794.09

     local   stress (kbar) -18926.37     -0.00      0.00
                               -0.00 -24134.13      0.00
                                0.00      0.00   4072.44

     nonloc. stress (kbar)   8003.70      0.00     -0.00
                                0.00   7927.73      0.00
                               -0.00      0.00   8001.88

     hartree stress (kbar)   8385.04      0.00     -0.00
                                0.00  10085.04     -0.00
                               -0.00     -0.00  -2040.50

     exc-cor stress (kbar)  -1130.68      0.00     -0.00
                                0.00  -1122.00     -0.00
                               -0.00     -0.00  -1130.26

     corecor stress (kbar)  -2029.37      0.00      0.00
                                0.00  -2028.66      0.00
                                0.00      0.00  -2029.38

     ewald   stress (kbar)  -9125.13     -0.00     -0.00
                               -0.00  -5541.44     -0.00
                               -0.00     -0.00 -21708.70

     hubbard stress (kbar)      0.00      0.00      0.00
                                0.00      0.00      0.00
                                0.00      0.00      0.00

     DFT-D   stress (kbar)      0.00      0.00      0.00
                                0.00      0.00      0.00
                                0.00      0.00      0.00

     XDM     stress (kbar)      0.00      0.00      0.00
                                0.00      0.00      0.00
                                0.00      0.00      0.00

     dft-nl  stress (kbar)      0.00      0.00      0.00
                                0.00      0.00      0.00
                                0.00      0.00      0.00

     TS-vdW  stress (kbar)      0.00      0.00      0.00
                                0.00      0.00      0.00
                                0.00      0.00      0.00



     Writing output data file /zfs_data/gutierre/Scratch/Cl2NbO/convergence/cutoff/10x10x10/60/tmp/Cl2NbO.save/
 
     init_run     :      1.96s CPU      2.07s WALL (       1 calls)
     electrons    :     54.45s CPU     56.49s WALL (       1 calls)
     forces       :      0.35s CPU      0.35s WALL (       1 calls)
     stress       :      0.81s CPU      0.81s WALL (       1 calls)

     Called by init_run:
     wfcinit      :      1.52s CPU      1.60s WALL (       1 calls)
     wfcinit:atom :      0.01s CPU      0.01s WALL (     171 calls)
     wfcinit:wfcr :      1.47s CPU      1.55s WALL (     171 calls)
     potinit      :      0.17s CPU      0.18s WALL (       1 calls)
     hinit0       :      0.19s CPU      0.20s WALL (       1 calls)

     Called by electrons:
     c_bands      :     43.76s CPU     45.41s WALL (      13 calls)
     sum_band     :      9.21s CPU      9.54s WALL (      13 calls)
     v_of_rho     :      0.40s CPU      0.42s WALL (      14 calls)
     v_h          :      0.04s CPU      0.04s WALL (      14 calls)
     v_xc         :      0.41s CPU      0.44s WALL (      16 calls)
     newd         :      0.35s CPU      0.36s WALL (      14 calls)
     PAW_pot      :      0.73s CPU      0.74s WALL (      14 calls)
     mix_rho      :      0.05s CPU      0.05s WALL (      13 calls)

     Called by c_bands:
     init_us_2    :      0.41s CPU      0.43s WALL (    4959 calls)
     cegterg      :     42.61s CPU     44.19s WALL (    2223 calls)

     Called by sum_band:
     sum_band:wei :      0.08s CPU      0.09s WALL (      13 calls)
     sum_band:loo :      8.73s CPU      9.03s WALL (      13 calls)
     sum_band:buf :      0.03s CPU      0.04s WALL (    2223 calls)
     sum_band:ini :      0.17s CPU      0.18s WALL (    2223 calls)
     sum_band:cal :      0.22s CPU      0.23s WALL (    2223 calls)
     sum_band:bec :      0.05s CPU      0.05s WALL (    2223 calls)
     addusdens    :      0.34s CPU      0.36s WALL (      13 calls)
     addusd:skk   :      0.00s CPU      0.00s WALL (      39 calls)
     addusd:dgemm :      0.09s CPU      0.10s WALL (      39 calls)
     addusd:qvan2 :      0.24s CPU      0.24s WALL (      39 calls)

     Called by *egterg:
     cdiaghg      :      4.28s CPU      4.52s WALL (    7915 calls)
     cegterg:over :      0.59s CPU      0.62s WALL (    5692 calls)
     cegterg:upda :      0.16s CPU      0.17s WALL (    5692 calls)
     cegterg:last :      0.26s CPU      0.27s WALL (    4339 calls)
     h_psi        :     37.64s CPU     39.00s WALL (    8086 calls)
     s_psi        :      0.24s CPU      0.25s WALL (    8086 calls)
     g_psi        :      0.05s CPU      0.05s WALL (    5692 calls)

     Called by h_psi:
     h_psi:calbec :      0.66s CPU      0.69s WALL (    8086 calls)
     vloc_psi     :     36.51s CPU     37.83s WALL (    8086 calls)
     add_vuspsi   :      0.33s CPU      0.34s WALL (    8086 calls)

     General routines
     calbec       :      0.91s CPU      0.94s WALL (   11164 calls)
     fft          :      0.27s CPU      0.28s WALL (     205 calls)
     ffts         :      0.01s CPU      0.01s WALL (      27 calls)
     fftw         :     40.93s CPU     42.41s WALL (  280133 calls)
     interpolate  :      0.03s CPU      0.03s WALL (      14 calls)
 
     Parallel routines
     fft_scatt_xy :      6.76s CPU      7.01s WALL (  280365 calls)
     fft_scatt_yz :     23.82s CPU     24.67s WALL (  280365 calls)

     PAW routines
     PAW_pot      :      0.73s CPU      0.74s WALL (      14 calls)
     PAW_symme    :      0.01s CPU      0.01s WALL (      27 calls)
 
     PWSCF        :     58.65s CPU   1m 1.68s WALL

 
   This run was terminated on:  15:55: 7  18May2022            

=------------------------------------------------------------------------------=
   JOB DONE.
=------------------------------------------------------------------------------=
