
     Program PWSCF v.6.7MaX starts on 16Nov2021 at 15: 7: 9 

     This program is part of the open-source Quantum ESPRESSO suite
     for quantum simulation of materials; please cite
         "P. Giannozzi et al., J. Phys.:Condens. Matter 21 395502 (2009);
         "P. Giannozzi et al., J. Phys.:Condens. Matter 29 465901 (2017);
          URL http://www.quantum-espresso.org", 
     in publications or presentations arising from this work. More details at
     http://www.quantum-espresso.org/quote

     Parallel version (MPI), running on    40 processors

     MPI processes distributed on     1 nodes
     R & G space division:  proc/nbgrp/npool/nimage =      40
     Waiting for input...
     Reading input from standard input

     Current dimensions of program PWSCF are:
     Max number of different atomic species (ntypx) = 10
     Max number of k-points (npk) =  40000
     Max angular momentum in pseudopotentials (lmaxx) =  3

     Atomic positions and unit cell read from directory:
     /lscratch/martin/195621/tmp/CsV3Sb5.save/
     Atomic positions from file used, from input discarded
 
     file Cs.rel-pbe-spn-kjpaw_psl.1.0.0.UPF: wavefunction(s)  5S 6S renormalized
     file V.rel-pbe-spnl-kjpaw_psl.1.0.0.UPF: wavefunction(s)  3P 3P 3D 3D renormalized
     file Sb.rel-pbe-n-kjpaw_psl.1.0.0.UPF: wavefunction(s)  5S renormalized

     -------------------------------------------------
     Parameters for Dispersion (Grimme-D2) Correction:
     -------------------------------------------------
       atom      VdW radius       C_6     

        Cs         3.405      10937.246
        V          2.952        374.666
        Sb         3.555       1333.532

     Subspace diagonalization in iterative solution of the eigenvalue problem:
     a serial algorithm will be used

 
     Parallelization info
     --------------------
     sticks:   dense  smooth     PW     G-vecs:    dense   smooth      PW
     Min          72      28     10                 5494     1382     287
     Max          73      29     11                 5507     1393     290
     Sum        2917    1159    421               220121    55697   11527
 


     bravais-lattice index     =            0
     lattice parameter (alat)  =      10.3097  a.u.
     unit-cell volume          =    1629.1522 (a.u.)^3
     number of atoms/cell      =            9
     number of atomic types    =            3
     number of electrons       =        73.00
     number of Kohn-Sham states=          150
     kinetic-energy cutoff     =      40.0000  Ry
     charge density cutoff     =     400.0000  Ry
     Exchange-correlation= SLA  PW   PBX  PBC
                           (   1   4   3   4   0   0   0)
     Non magnetic calculation with spin-orbit


     celldm(1)=  10.309662  celldm(2)=   0.000000  celldm(3)=   0.000000
     celldm(4)=   0.000000  celldm(5)=   0.000000  celldm(6)=   0.000000

     crystal axes: (cart. coord. in units of alat)
               a(1) = (   1.000000   0.000000   0.000000 )  
               a(2) = (  -0.500000   0.866025   0.000000 )  
               a(3) = (   0.000000   0.000000   1.716713 )  

     reciprocal axes: (cart. coord. in units 2 pi/alat)
               b(1) = (  1.000000  0.577350  0.000000 )  
               b(2) = (  0.000000  1.154701  0.000000 )  
               b(3) = (  0.000000  0.000000  0.582508 )  


     PseudoPot. # 1 for Cs read from file:
     /lscratch/martin/195621/pseudo/Cs.rel-pbe-spn-kjpaw_psl.1.0.0.UPF
     MD5 check sum: a112b951ec9e765992cdd678db6f3609
     Pseudo is Projector augmented-wave + core cor, Zval =  9.0
     Generated using &quot;atomic&quot; code by A. Dal Corso  v.6.4.1
     Shape of augmentation charge: PSQ
     Using radial grid of 1251 points, 15 beta functions with: 
                l(1) =   0
                l(2) =   0
                l(3) =   0
                l(4) =   1
                l(5) =   1
                l(6) =   1
                l(7) =   1
                l(8) =   2
                l(9) =   2
               l(10) =   2
               l(11) =   2
               l(12) =   3
               l(13) =   3
               l(14) =   3
               l(15) =   3
     Q(r) pseudized with 0 coefficients 


     PseudoPot. # 2 for V  read from file:
     /lscratch/martin/195621/pseudo/V.rel-pbe-spnl-kjpaw_psl.1.0.0.UPF
     MD5 check sum: e977907b3d84fd67c1b4d432f1cac99b
     Pseudo is Projector augmented-wave + core cor, Zval = 13.0
     Generated using &quot;atomic&quot; code by A. Dal Corso  v.6.3
     Shape of augmentation charge: PSQ
     Using radial grid of 1181 points, 10 beta functions with: 
                l(1) =   0
                l(2) =   0
                l(3) =   1
                l(4) =   1
                l(5) =   1
                l(6) =   1
                l(7) =   2
                l(8) =   2
                l(9) =   2
               l(10) =   2
     Q(r) pseudized with 0 coefficients 


     PseudoPot. # 3 for Sb read from file:
     /lscratch/martin/195621/pseudo/Sb.rel-pbe-n-kjpaw_psl.1.0.0.UPF
     MD5 check sum: fdb47162c1d03e2226be93e80d85f130
     Pseudo is Projector augmented-wave + core cor, Zval =  5.0
     Generated using &quot;atomic&quot; code by A. Dal Corso  v.6.2.2
     Shape of augmentation charge: PSQ
     Using radial grid of 1243 points, 10 beta functions with: 
                l(1) =   0
                l(2) =   0
                l(3) =   1
                l(4) =   1
                l(5) =   1
                l(6) =   1
                l(7) =   2
                l(8) =   2
                l(9) =   2
               l(10) =   2
     Q(r) pseudized with 0 coefficients 


     atomic species   valence    mass     pseudopotential
        Cs             9.00   132.90500     Cs( 1.00)
        V             13.00    50.94100     V ( 1.00)
        Sb             5.00   121.76000     Sb( 1.00)

     No symmetry found


                                    s                        frac. trans.

      isym =  1     identity                                     

 cryst.   s( 1) = (     1          0          0      )
                  (     0          1          0      )
                  (     0          0          1      )

 cart.    s( 1) = (  1.0000000  0.0000000  0.0000000 )
                  (  0.0000000  1.0000000  0.0000000 )
                  (  0.0000000  0.0000000  1.0000000 )


   Cartesian axes

     site n.     atom                  positions (alat units)
         1           Cs  tau(   1) = (   0.0000000   0.0000000   0.0000000  )
         2           V   tau(   2) = (   0.5000000   0.0000000   0.8583566  )
         3           V   tau(   3) = (  -0.2500000   0.4330127   0.8583566  )
         4           V   tau(   4) = (   0.2500000   0.4330127   0.8583566  )
         5           Sb  tau(   5) = (   0.0000000   0.0000000   0.8583566  )
         6           Sb  tau(   6) = (   0.5000000  -0.2886751   1.2740886  )
         7           Sb  tau(   7) = (  -0.5000000   0.2886751   1.2740886  )
         8           Sb  tau(   8) = (   0.5000000  -0.2886751  -1.2740886  )
         9           Sb  tau(   9) = (  -0.5000000   0.2886751  -1.2740886  )

   Crystallographic axes

     site n.     atom                  positions (cryst. coord.)
         1           Cs  tau(   1) = (  0.0000000  0.0000000  0.0000000  )
         2           V   tau(   2) = (  0.5000000  0.0000000  0.5000000  )
         3           V   tau(   3) = (  0.0000000  0.5000000  0.5000000  )
         4           V   tau(   4) = (  0.5000000  0.5000000  0.5000000  )
         5           Sb  tau(   5) = (  0.0000000  0.0000000  0.5000000  )
         6           Sb  tau(   6) = (  0.3333333 -0.3333333  0.7421674  )
         7           Sb  tau(   7) = ( -0.3333333  0.3333333  0.7421674  )
         8           Sb  tau(   8) = (  0.3333333 -0.3333333 -0.7421674  )
         9           Sb  tau(   9) = ( -0.3333333  0.3333333 -0.7421674  )

     number of k points=   864  Methfessel-Paxton smearing, width (Ry)=  0.0120
                       cart. coord. in units 2pi/alat
        k(    1) = (   0.0000000   0.0000000   0.0000000), wk =   0.0011574
        k(    2) = (   0.0000000   0.0000000   0.0970847), wk =   0.0011574
        k(    3) = (   0.0000000   0.0000000   0.1941695), wk =   0.0011574
        k(    4) = (   0.0000000   0.0000000   0.2912542), wk =   0.0011574
        k(    5) = (   0.0000000   0.0000000   0.3883390), wk =   0.0011574
        k(    6) = (   0.0000000   0.0000000   0.4854237), wk =   0.0011574
        k(    7) = (   0.0000000   0.0962250   0.0000000), wk =   0.0011574
        k(    8) = (   0.0000000   0.0962250   0.0970847), wk =   0.0011574
        k(    9) = (   0.0000000   0.0962250   0.1941695), wk =   0.0011574
        k(   10) = (   0.0000000   0.0962250   0.2912542), wk =   0.0011574
        k(   11) = (   0.0000000   0.0962250   0.3883390), wk =   0.0011574
        k(   12) = (   0.0000000   0.0962250   0.4854237), wk =   0.0011574
        k(   13) = (   0.0000000   0.1924501   0.0000000), wk =   0.0011574
        k(   14) = (   0.0000000   0.1924501   0.0970847), wk =   0.0011574
        k(   15) = (   0.0000000   0.1924501   0.1941695), wk =   0.0011574
        k(   16) = (   0.0000000   0.1924501   0.2912542), wk =   0.0011574
        k(   17) = (   0.0000000   0.1924501   0.3883390), wk =   0.0011574
        k(   18) = (   0.0000000   0.1924501   0.4854237), wk =   0.0011574
        k(   19) = (   0.0000000   0.2886751   0.0000000), wk =   0.0011574
        k(   20) = (   0.0000000   0.2886751   0.0970847), wk =   0.0011574
        k(   21) = (   0.0000000   0.2886751   0.1941695), wk =   0.0011574
        k(   22) = (   0.0000000   0.2886751   0.2912542), wk =   0.0011574
        k(   23) = (   0.0000000   0.2886751   0.3883390), wk =   0.0011574
        k(   24) = (   0.0000000   0.2886751   0.4854237), wk =   0.0011574
        k(   25) = (   0.0000000   0.3849002   0.0000000), wk =   0.0011574
        k(   26) = (   0.0000000   0.3849002   0.0970847), wk =   0.0011574
        k(   27) = (   0.0000000   0.3849002   0.1941695), wk =   0.0011574
        k(   28) = (   0.0000000   0.3849002   0.2912542), wk =   0.0011574
        k(   29) = (   0.0000000   0.3849002   0.3883390), wk =   0.0011574
        k(   30) = (   0.0000000   0.3849002   0.4854237), wk =   0.0011574
        k(   31) = (   0.0000000   0.4811252   0.0000000), wk =   0.0011574
        k(   32) = (   0.0000000   0.4811252   0.0970847), wk =   0.0011574
        k(   33) = (   0.0000000   0.4811252   0.1941695), wk =   0.0011574
        k(   34) = (   0.0000000   0.4811252   0.2912542), wk =   0.0011574
        k(   35) = (   0.0000000   0.4811252   0.3883390), wk =   0.0011574
        k(   36) = (   0.0000000   0.4811252   0.4854237), wk =   0.0011574
        k(   37) = (   0.0000000   0.5773503   0.0000000), wk =   0.0011574
        k(   38) = (   0.0000000   0.5773503   0.0970847), wk =   0.0011574
        k(   39) = (   0.0000000   0.5773503   0.1941695), wk =   0.0011574
        k(   40) = (   0.0000000   0.5773503   0.2912542), wk =   0.0011574
        k(   41) = (   0.0000000   0.5773503   0.3883390), wk =   0.0011574
        k(   42) = (   0.0000000   0.5773503   0.4854237), wk =   0.0011574
        k(   43) = (   0.0000000   0.6735753   0.0000000), wk =   0.0011574
        k(   44) = (   0.0000000   0.6735753   0.0970847), wk =   0.0011574
        k(   45) = (   0.0000000   0.6735753   0.1941695), wk =   0.0011574
        k(   46) = (   0.0000000   0.6735753   0.2912542), wk =   0.0011574
        k(   47) = (   0.0000000   0.6735753   0.3883390), wk =   0.0011574
        k(   48) = (   0.0000000   0.6735753   0.4854237), wk =   0.0011574
        k(   49) = (   0.0000000   0.7698004   0.0000000), wk =   0.0011574
        k(   50) = (   0.0000000   0.7698004   0.0970847), wk =   0.0011574
        k(   51) = (   0.0000000   0.7698004   0.1941695), wk =   0.0011574
        k(   52) = (   0.0000000   0.7698004   0.2912542), wk =   0.0011574
        k(   53) = (   0.0000000   0.7698004   0.3883390), wk =   0.0011574
        k(   54) = (   0.0000000   0.7698004   0.4854237), wk =   0.0011574
        k(   55) = (   0.0000000   0.8660254   0.0000000), wk =   0.0011574
        k(   56) = (   0.0000000   0.8660254   0.0970847), wk =   0.0011574
        k(   57) = (   0.0000000   0.8660254   0.1941695), wk =   0.0011574
        k(   58) = (   0.0000000   0.8660254   0.2912542), wk =   0.0011574
        k(   59) = (   0.0000000   0.8660254   0.3883390), wk =   0.0011574
        k(   60) = (   0.0000000   0.8660254   0.4854237), wk =   0.0011574
        k(   61) = (   0.0000000   0.9622504   0.0000000), wk =   0.0011574
        k(   62) = (   0.0000000   0.9622504   0.0970847), wk =   0.0011574
        k(   63) = (   0.0000000   0.9622504   0.1941695), wk =   0.0011574
        k(   64) = (   0.0000000   0.9622504   0.2912542), wk =   0.0011574
        k(   65) = (   0.0000000   0.9622504   0.3883390), wk =   0.0011574
        k(   66) = (   0.0000000   0.9622504   0.4854237), wk =   0.0011574
        k(   67) = (   0.0000000   1.0584755   0.0000000), wk =   0.0011574
        k(   68) = (   0.0000000   1.0584755   0.0970847), wk =   0.0011574
        k(   69) = (   0.0000000   1.0584755   0.1941695), wk =   0.0011574
        k(   70) = (   0.0000000   1.0584755   0.2912542), wk =   0.0011574
        k(   71) = (   0.0000000   1.0584755   0.3883390), wk =   0.0011574
        k(   72) = (   0.0000000   1.0584755   0.4854237), wk =   0.0011574
        k(   73) = (   0.0833333   0.0481125   0.0000000), wk =   0.0011574
        k(   74) = (   0.0833333   0.0481125   0.0970847), wk =   0.0011574
        k(   75) = (   0.0833333   0.0481125   0.1941695), wk =   0.0011574
        k(   76) = (   0.0833333   0.0481125   0.2912542), wk =   0.0011574
        k(   77) = (   0.0833333   0.0481125   0.3883390), wk =   0.0011574
        k(   78) = (   0.0833333   0.0481125   0.4854237), wk =   0.0011574
        k(   79) = (   0.0833333   0.1443376   0.0000000), wk =   0.0011574
        k(   80) = (   0.0833333   0.1443376   0.0970847), wk =   0.0011574
        k(   81) = (   0.0833333   0.1443376   0.1941695), wk =   0.0011574
        k(   82) = (   0.0833333   0.1443376   0.2912542), wk =   0.0011574
        k(   83) = (   0.0833333   0.1443376   0.3883390), wk =   0.0011574
        k(   84) = (   0.0833333   0.1443376   0.4854237), wk =   0.0011574
        k(   85) = (   0.0833333   0.2405626   0.0000000), wk =   0.0011574
        k(   86) = (   0.0833333   0.2405626   0.0970847), wk =   0.0011574
        k(   87) = (   0.0833333   0.2405626   0.1941695), wk =   0.0011574
        k(   88) = (   0.0833333   0.2405626   0.2912542), wk =   0.0011574
        k(   89) = (   0.0833333   0.2405626   0.3883390), wk =   0.0011574
        k(   90) = (   0.0833333   0.2405626   0.4854237), wk =   0.0011574
        k(   91) = (   0.0833333   0.3367877   0.0000000), wk =   0.0011574
        k(   92) = (   0.0833333   0.3367877   0.0970847), wk =   0.0011574
        k(   93) = (   0.0833333   0.3367877   0.1941695), wk =   0.0011574
        k(   94) = (   0.0833333   0.3367877   0.2912542), wk =   0.0011574
        k(   95) = (   0.0833333   0.3367877   0.3883390), wk =   0.0011574
        k(   96) = (   0.0833333   0.3367877   0.4854237), wk =   0.0011574
        k(   97) = (   0.0833333   0.4330127   0.0000000), wk =   0.0011574
        k(   98) = (   0.0833333   0.4330127   0.0970847), wk =   0.0011574
        k(   99) = (   0.0833333   0.4330127   0.1941695), wk =   0.0011574
        k(  100) = (   0.0833333   0.4330127   0.2912542), wk =   0.0011574
        k(  101) = (   0.0833333   0.4330127   0.3883390), wk =   0.0011574
        k(  102) = (   0.0833333   0.4330127   0.4854237), wk =   0.0011574
        k(  103) = (   0.0833333   0.5292377   0.0000000), wk =   0.0011574
        k(  104) = (   0.0833333   0.5292377   0.0970847), wk =   0.0011574
        k(  105) = (   0.0833333   0.5292377   0.1941695), wk =   0.0011574
        k(  106) = (   0.0833333   0.5292377   0.2912542), wk =   0.0011574
        k(  107) = (   0.0833333   0.5292377   0.3883390), wk =   0.0011574
        k(  108) = (   0.0833333   0.5292377   0.4854237), wk =   0.0011574
        k(  109) = (   0.0833333   0.6254628   0.0000000), wk =   0.0011574
        k(  110) = (   0.0833333   0.6254628   0.0970847), wk =   0.0011574
        k(  111) = (   0.0833333   0.6254628   0.1941695), wk =   0.0011574
        k(  112) = (   0.0833333   0.6254628   0.2912542), wk =   0.0011574
        k(  113) = (   0.0833333   0.6254628   0.3883390), wk =   0.0011574
        k(  114) = (   0.0833333   0.6254628   0.4854237), wk =   0.0011574
        k(  115) = (   0.0833333   0.7216878   0.0000000), wk =   0.0011574
        k(  116) = (   0.0833333   0.7216878   0.0970847), wk =   0.0011574
        k(  117) = (   0.0833333   0.7216878   0.1941695), wk =   0.0011574
        k(  118) = (   0.0833333   0.7216878   0.2912542), wk =   0.0011574
        k(  119) = (   0.0833333   0.7216878   0.3883390), wk =   0.0011574
        k(  120) = (   0.0833333   0.7216878   0.4854237), wk =   0.0011574
        k(  121) = (   0.0833333   0.8179129   0.0000000), wk =   0.0011574
        k(  122) = (   0.0833333   0.8179129   0.0970847), wk =   0.0011574
        k(  123) = (   0.0833333   0.8179129   0.1941695), wk =   0.0011574
        k(  124) = (   0.0833333   0.8179129   0.2912542), wk =   0.0011574
        k(  125) = (   0.0833333   0.8179129   0.3883390), wk =   0.0011574
        k(  126) = (   0.0833333   0.8179129   0.4854237), wk =   0.0011574
        k(  127) = (   0.0833333   0.9141379   0.0000000), wk =   0.0011574
        k(  128) = (   0.0833333   0.9141379   0.0970847), wk =   0.0011574
        k(  129) = (   0.0833333   0.9141379   0.1941695), wk =   0.0011574
        k(  130) = (   0.0833333   0.9141379   0.2912542), wk =   0.0011574
        k(  131) = (   0.0833333   0.9141379   0.3883390), wk =   0.0011574
        k(  132) = (   0.0833333   0.9141379   0.4854237), wk =   0.0011574
        k(  133) = (   0.0833333   1.0103630   0.0000000), wk =   0.0011574
        k(  134) = (   0.0833333   1.0103630   0.0970847), wk =   0.0011574
        k(  135) = (   0.0833333   1.0103630   0.1941695), wk =   0.0011574
        k(  136) = (   0.0833333   1.0103630   0.2912542), wk =   0.0011574
        k(  137) = (   0.0833333   1.0103630   0.3883390), wk =   0.0011574
        k(  138) = (   0.0833333   1.0103630   0.4854237), wk =   0.0011574
        k(  139) = (   0.0833333   1.1065880   0.0000000), wk =   0.0011574
        k(  140) = (   0.0833333   1.1065880   0.0970847), wk =   0.0011574
        k(  141) = (   0.0833333   1.1065880   0.1941695), wk =   0.0011574
        k(  142) = (   0.0833333   1.1065880   0.2912542), wk =   0.0011574
        k(  143) = (   0.0833333   1.1065880   0.3883390), wk =   0.0011574
        k(  144) = (   0.0833333   1.1065880   0.4854237), wk =   0.0011574
        k(  145) = (   0.1666667   0.0962250   0.0000000), wk =   0.0011574
        k(  146) = (   0.1666667   0.0962250   0.0970847), wk =   0.0011574
        k(  147) = (   0.1666667   0.0962250   0.1941695), wk =   0.0011574
        k(  148) = (   0.1666667   0.0962250   0.2912542), wk =   0.0011574
        k(  149) = (   0.1666667   0.0962250   0.3883390), wk =   0.0011574
        k(  150) = (   0.1666667   0.0962250   0.4854237), wk =   0.0011574
        k(  151) = (   0.1666667   0.1924501   0.0000000), wk =   0.0011574
        k(  152) = (   0.1666667   0.1924501   0.0970847), wk =   0.0011574
        k(  153) = (   0.1666667   0.1924501   0.1941695), wk =   0.0011574
        k(  154) = (   0.1666667   0.1924501   0.2912542), wk =   0.0011574
        k(  155) = (   0.1666667   0.1924501   0.3883390), wk =   0.0011574
        k(  156) = (   0.1666667   0.1924501   0.4854237), wk =   0.0011574
        k(  157) = (   0.1666667   0.2886751   0.0000000), wk =   0.0011574
        k(  158) = (   0.1666667   0.2886751   0.0970847), wk =   0.0011574
        k(  159) = (   0.1666667   0.2886751   0.1941695), wk =   0.0011574
        k(  160) = (   0.1666667   0.2886751   0.2912542), wk =   0.0011574
        k(  161) = (   0.1666667   0.2886751   0.3883390), wk =   0.0011574
        k(  162) = (   0.1666667   0.2886751   0.4854237), wk =   0.0011574
        k(  163) = (   0.1666667   0.3849002   0.0000000), wk =   0.0011574
        k(  164) = (   0.1666667   0.3849002   0.0970847), wk =   0.0011574
        k(  165) = (   0.1666667   0.3849002   0.1941695), wk =   0.0011574
        k(  166) = (   0.1666667   0.3849002   0.2912542), wk =   0.0011574
        k(  167) = (   0.1666667   0.3849002   0.3883390), wk =   0.0011574
        k(  168) = (   0.1666667   0.3849002   0.4854237), wk =   0.0011574
        k(  169) = (   0.1666667   0.4811252   0.0000000), wk =   0.0011574
        k(  170) = (   0.1666667   0.4811252   0.0970847), wk =   0.0011574
        k(  171) = (   0.1666667   0.4811252   0.1941695), wk =   0.0011574
        k(  172) = (   0.1666667   0.4811252   0.2912542), wk =   0.0011574
        k(  173) = (   0.1666667   0.4811252   0.3883390), wk =   0.0011574
        k(  174) = (   0.1666667   0.4811252   0.4854237), wk =   0.0011574
        k(  175) = (   0.1666667   0.5773503   0.0000000), wk =   0.0011574
        k(  176) = (   0.1666667   0.5773503   0.0970847), wk =   0.0011574
        k(  177) = (   0.1666667   0.5773503   0.1941695), wk =   0.0011574
        k(  178) = (   0.1666667   0.5773503   0.2912542), wk =   0.0011574
        k(  179) = (   0.1666667   0.5773503   0.3883390), wk =   0.0011574
        k(  180) = (   0.1666667   0.5773503   0.4854237), wk =   0.0011574
        k(  181) = (   0.1666667   0.6735753   0.0000000), wk =   0.0011574
        k(  182) = (   0.1666667   0.6735753   0.0970847), wk =   0.0011574
        k(  183) = (   0.1666667   0.6735753   0.1941695), wk =   0.0011574
        k(  184) = (   0.1666667   0.6735753   0.2912542), wk =   0.0011574
        k(  185) = (   0.1666667   0.6735753   0.3883390), wk =   0.0011574
        k(  186) = (   0.1666667   0.6735753   0.4854237), wk =   0.0011574
        k(  187) = (   0.1666667   0.7698004   0.0000000), wk =   0.0011574
        k(  188) = (   0.1666667   0.7698004   0.0970847), wk =   0.0011574
        k(  189) = (   0.1666667   0.7698004   0.1941695), wk =   0.0011574
        k(  190) = (   0.1666667   0.7698004   0.2912542), wk =   0.0011574
        k(  191) = (   0.1666667   0.7698004   0.3883390), wk =   0.0011574
        k(  192) = (   0.1666667   0.7698004   0.4854237), wk =   0.0011574
        k(  193) = (   0.1666667   0.8660254   0.0000000), wk =   0.0011574
        k(  194) = (   0.1666667   0.8660254   0.0970847), wk =   0.0011574
        k(  195) = (   0.1666667   0.8660254   0.1941695), wk =   0.0011574
        k(  196) = (   0.1666667   0.8660254   0.2912542), wk =   0.0011574
        k(  197) = (   0.1666667   0.8660254   0.3883390), wk =   0.0011574
        k(  198) = (   0.1666667   0.8660254   0.4854237), wk =   0.0011574
        k(  199) = (   0.1666667   0.9622505   0.0000000), wk =   0.0011574
        k(  200) = (   0.1666667   0.9622505   0.0970847), wk =   0.0011574
        k(  201) = (   0.1666667   0.9622505   0.1941695), wk =   0.0011574
        k(  202) = (   0.1666667   0.9622505   0.2912542), wk =   0.0011574
        k(  203) = (   0.1666667   0.9622505   0.3883390), wk =   0.0011574
        k(  204) = (   0.1666667   0.9622505   0.4854237), wk =   0.0011574
        k(  205) = (   0.1666667   1.0584755   0.0000000), wk =   0.0011574
        k(  206) = (   0.1666667   1.0584755   0.0970847), wk =   0.0011574
        k(  207) = (   0.1666667   1.0584755   0.1941695), wk =   0.0011574
        k(  208) = (   0.1666667   1.0584755   0.2912542), wk =   0.0011574
        k(  209) = (   0.1666667   1.0584755   0.3883390), wk =   0.0011574
        k(  210) = (   0.1666667   1.0584755   0.4854237), wk =   0.0011574
        k(  211) = (   0.1666667   1.1547005   0.0000000), wk =   0.0011574
        k(  212) = (   0.1666667   1.1547005   0.0970847), wk =   0.0011574
        k(  213) = (   0.1666667   1.1547005   0.1941695), wk =   0.0011574
        k(  214) = (   0.1666667   1.1547005   0.2912542), wk =   0.0011574
        k(  215) = (   0.1666667   1.1547005   0.3883390), wk =   0.0011574
        k(  216) = (   0.1666667   1.1547005   0.4854237), wk =   0.0011574
        k(  217) = (   0.2500000   0.1443376   0.0000000), wk =   0.0011574
        k(  218) = (   0.2500000   0.1443376   0.0970847), wk =   0.0011574
        k(  219) = (   0.2500000   0.1443376   0.1941695), wk =   0.0011574
        k(  220) = (   0.2500000   0.1443376   0.2912542), wk =   0.0011574
        k(  221) = (   0.2500000   0.1443376   0.3883390), wk =   0.0011574
        k(  222) = (   0.2500000   0.1443376   0.4854237), wk =   0.0011574
        k(  223) = (   0.2500000   0.2405626   0.0000000), wk =   0.0011574
        k(  224) = (   0.2500000   0.2405626   0.0970847), wk =   0.0011574
        k(  225) = (   0.2500000   0.2405626   0.1941695), wk =   0.0011574
        k(  226) = (   0.2500000   0.2405626   0.2912542), wk =   0.0011574
        k(  227) = (   0.2500000   0.2405626   0.3883390), wk =   0.0011574
        k(  228) = (   0.2500000   0.2405626   0.4854237), wk =   0.0011574
        k(  229) = (   0.2500000   0.3367877   0.0000000), wk =   0.0011574
        k(  230) = (   0.2500000   0.3367877   0.0970847), wk =   0.0011574
        k(  231) = (   0.2500000   0.3367877   0.1941695), wk =   0.0011574
        k(  232) = (   0.2500000   0.3367877   0.2912542), wk =   0.0011574
        k(  233) = (   0.2500000   0.3367877   0.3883390), wk =   0.0011574
        k(  234) = (   0.2500000   0.3367877   0.4854237), wk =   0.0011574
        k(  235) = (   0.2500000   0.4330127   0.0000000), wk =   0.0011574
        k(  236) = (   0.2500000   0.4330127   0.0970847), wk =   0.0011574
        k(  237) = (   0.2500000   0.4330127   0.1941695), wk =   0.0011574
        k(  238) = (   0.2500000   0.4330127   0.2912542), wk =   0.0011574
        k(  239) = (   0.2500000   0.4330127   0.3883390), wk =   0.0011574
        k(  240) = (   0.2500000   0.4330127   0.4854237), wk =   0.0011574
        k(  241) = (   0.2500000   0.5292377   0.0000000), wk =   0.0011574
        k(  242) = (   0.2500000   0.5292377   0.0970847), wk =   0.0011574
        k(  243) = (   0.2500000   0.5292377   0.1941695), wk =   0.0011574
        k(  244) = (   0.2500000   0.5292377   0.2912542), wk =   0.0011574
        k(  245) = (   0.2500000   0.5292377   0.3883390), wk =   0.0011574
        k(  246) = (   0.2500000   0.5292377   0.4854237), wk =   0.0011574
        k(  247) = (   0.2500000   0.6254628   0.0000000), wk =   0.0011574
        k(  248) = (   0.2500000   0.6254628   0.0970847), wk =   0.0011574
        k(  249) = (   0.2500000   0.6254628   0.1941695), wk =   0.0011574
        k(  250) = (   0.2500000   0.6254628   0.2912542), wk =   0.0011574
        k(  251) = (   0.2500000   0.6254628   0.3883390), wk =   0.0011574
        k(  252) = (   0.2500000   0.6254628   0.4854237), wk =   0.0011574
        k(  253) = (   0.2500000   0.7216878   0.0000000), wk =   0.0011574
        k(  254) = (   0.2500000   0.7216878   0.0970847), wk =   0.0011574
        k(  255) = (   0.2500000   0.7216878   0.1941695), wk =   0.0011574
        k(  256) = (   0.2500000   0.7216878   0.2912542), wk =   0.0011574
        k(  257) = (   0.2500000   0.7216878   0.3883390), wk =   0.0011574
        k(  258) = (   0.2500000   0.7216878   0.4854237), wk =   0.0011574
        k(  259) = (   0.2500000   0.8179129   0.0000000), wk =   0.0011574
        k(  260) = (   0.2500000   0.8179129   0.0970847), wk =   0.0011574
        k(  261) = (   0.2500000   0.8179129   0.1941695), wk =   0.0011574
        k(  262) = (   0.2500000   0.8179129   0.2912542), wk =   0.0011574
        k(  263) = (   0.2500000   0.8179129   0.3883390), wk =   0.0011574
        k(  264) = (   0.2500000   0.8179129   0.4854237), wk =   0.0011574
        k(  265) = (   0.2500000   0.9141379   0.0000000), wk =   0.0011574
        k(  266) = (   0.2500000   0.9141379   0.0970847), wk =   0.0011574
        k(  267) = (   0.2500000   0.9141379   0.1941695), wk =   0.0011574
        k(  268) = (   0.2500000   0.9141379   0.2912542), wk =   0.0011574
        k(  269) = (   0.2500000   0.9141379   0.3883390), wk =   0.0011574
        k(  270) = (   0.2500000   0.9141379   0.4854237), wk =   0.0011574
        k(  271) = (   0.2500000   1.0103630   0.0000000), wk =   0.0011574
        k(  272) = (   0.2500000   1.0103630   0.0970847), wk =   0.0011574
        k(  273) = (   0.2500000   1.0103630   0.1941695), wk =   0.0011574
        k(  274) = (   0.2500000   1.0103630   0.2912542), wk =   0.0011574
        k(  275) = (   0.2500000   1.0103630   0.3883390), wk =   0.0011574
        k(  276) = (   0.2500000   1.0103630   0.4854237), wk =   0.0011574
        k(  277) = (   0.2500000   1.1065880   0.0000000), wk =   0.0011574
        k(  278) = (   0.2500000   1.1065880   0.0970847), wk =   0.0011574
        k(  279) = (   0.2500000   1.1065880   0.1941695), wk =   0.0011574
        k(  280) = (   0.2500000   1.1065880   0.2912542), wk =   0.0011574
        k(  281) = (   0.2500000   1.1065880   0.3883390), wk =   0.0011574
        k(  282) = (   0.2500000   1.1065880   0.4854237), wk =   0.0011574
        k(  283) = (   0.2500000   1.2028131   0.0000000), wk =   0.0011574
        k(  284) = (   0.2500000   1.2028131   0.0970847), wk =   0.0011574
        k(  285) = (   0.2500000   1.2028131   0.1941695), wk =   0.0011574
        k(  286) = (   0.2500000   1.2028131   0.2912542), wk =   0.0011574
        k(  287) = (   0.2500000   1.2028131   0.3883390), wk =   0.0011574
        k(  288) = (   0.2500000   1.2028131   0.4854237), wk =   0.0011574
        k(  289) = (   0.3333333   0.1924501   0.0000000), wk =   0.0011574
        k(  290) = (   0.3333333   0.1924501   0.0970847), wk =   0.0011574
        k(  291) = (   0.3333333   0.1924501   0.1941695), wk =   0.0011574
        k(  292) = (   0.3333333   0.1924501   0.2912542), wk =   0.0011574
        k(  293) = (   0.3333333   0.1924501   0.3883390), wk =   0.0011574
        k(  294) = (   0.3333333   0.1924501   0.4854237), wk =   0.0011574
        k(  295) = (   0.3333333   0.2886751   0.0000000), wk =   0.0011574
        k(  296) = (   0.3333333   0.2886751   0.0970847), wk =   0.0011574
        k(  297) = (   0.3333333   0.2886751   0.1941695), wk =   0.0011574
        k(  298) = (   0.3333333   0.2886751   0.2912542), wk =   0.0011574
        k(  299) = (   0.3333333   0.2886751   0.3883390), wk =   0.0011574
        k(  300) = (   0.3333333   0.2886751   0.4854237), wk =   0.0011574
        k(  301) = (   0.3333333   0.3849002   0.0000000), wk =   0.0011574
        k(  302) = (   0.3333333   0.3849002   0.0970847), wk =   0.0011574
        k(  303) = (   0.3333333   0.3849002   0.1941695), wk =   0.0011574
        k(  304) = (   0.3333333   0.3849002   0.2912542), wk =   0.0011574
        k(  305) = (   0.3333333   0.3849002   0.3883390), wk =   0.0011574
        k(  306) = (   0.3333333   0.3849002   0.4854237), wk =   0.0011574
        k(  307) = (   0.3333333   0.4811252   0.0000000), wk =   0.0011574
        k(  308) = (   0.3333333   0.4811252   0.0970847), wk =   0.0011574
        k(  309) = (   0.3333333   0.4811252   0.1941695), wk =   0.0011574
        k(  310) = (   0.3333333   0.4811252   0.2912542), wk =   0.0011574
        k(  311) = (   0.3333333   0.4811252   0.3883390), wk =   0.0011574
        k(  312) = (   0.3333333   0.4811252   0.4854237), wk =   0.0011574
        k(  313) = (   0.3333333   0.5773503   0.0000000), wk =   0.0011574
        k(  314) = (   0.3333333   0.5773503   0.0970847), wk =   0.0011574
        k(  315) = (   0.3333333   0.5773503   0.1941695), wk =   0.0011574
        k(  316) = (   0.3333333   0.5773503   0.2912542), wk =   0.0011574
        k(  317) = (   0.3333333   0.5773503   0.3883390), wk =   0.0011574
        k(  318) = (   0.3333333   0.5773503   0.4854237), wk =   0.0011574
        k(  319) = (   0.3333333   0.6735753   0.0000000), wk =   0.0011574
        k(  320) = (   0.3333333   0.6735753   0.0970847), wk =   0.0011574
        k(  321) = (   0.3333333   0.6735753   0.1941695), wk =   0.0011574
        k(  322) = (   0.3333333   0.6735753   0.2912542), wk =   0.0011574
        k(  323) = (   0.3333333   0.6735753   0.3883390), wk =   0.0011574
        k(  324) = (   0.3333333   0.6735753   0.4854237), wk =   0.0011574
        k(  325) = (   0.3333333   0.7698004   0.0000000), wk =   0.0011574
        k(  326) = (   0.3333333   0.7698004   0.0970847), wk =   0.0011574
        k(  327) = (   0.3333333   0.7698004   0.1941695), wk =   0.0011574
        k(  328) = (   0.3333333   0.7698004   0.2912542), wk =   0.0011574
        k(  329) = (   0.3333333   0.7698004   0.3883390), wk =   0.0011574
        k(  330) = (   0.3333333   0.7698004   0.4854237), wk =   0.0011574
        k(  331) = (   0.3333333   0.8660254   0.0000000), wk =   0.0011574
        k(  332) = (   0.3333333   0.8660254   0.0970847), wk =   0.0011574
        k(  333) = (   0.3333333   0.8660254   0.1941695), wk =   0.0011574
        k(  334) = (   0.3333333   0.8660254   0.2912542), wk =   0.0011574
        k(  335) = (   0.3333333   0.8660254   0.3883390), wk =   0.0011574
        k(  336) = (   0.3333333   0.8660254   0.4854237), wk =   0.0011574
        k(  337) = (   0.3333333   0.9622505   0.0000000), wk =   0.0011574
        k(  338) = (   0.3333333   0.9622505   0.0970847), wk =   0.0011574
        k(  339) = (   0.3333333   0.9622505   0.1941695), wk =   0.0011574
        k(  340) = (   0.3333333   0.9622505   0.2912542), wk =   0.0011574
        k(  341) = (   0.3333333   0.9622505   0.3883390), wk =   0.0011574
        k(  342) = (   0.3333333   0.9622505   0.4854237), wk =   0.0011574
        k(  343) = (   0.3333333   1.0584755   0.0000000), wk =   0.0011574
        k(  344) = (   0.3333333   1.0584755   0.0970847), wk =   0.0011574
        k(  345) = (   0.3333333   1.0584755   0.1941695), wk =   0.0011574
        k(  346) = (   0.3333333   1.0584755   0.2912542), wk =   0.0011574
        k(  347) = (   0.3333333   1.0584755   0.3883390), wk =   0.0011574
        k(  348) = (   0.3333333   1.0584755   0.4854237), wk =   0.0011574
        k(  349) = (   0.3333333   1.1547005   0.0000000), wk =   0.0011574
        k(  350) = (   0.3333333   1.1547005   0.0970847), wk =   0.0011574
        k(  351) = (   0.3333333   1.1547005   0.1941695), wk =   0.0011574
        k(  352) = (   0.3333333   1.1547005   0.2912542), wk =   0.0011574
        k(  353) = (   0.3333333   1.1547005   0.3883390), wk =   0.0011574
        k(  354) = (   0.3333333   1.1547005   0.4854237), wk =   0.0011574
        k(  355) = (   0.3333333   1.2509256   0.0000000), wk =   0.0011574
        k(  356) = (   0.3333333   1.2509256   0.0970847), wk =   0.0011574
        k(  357) = (   0.3333333   1.2509256   0.1941695), wk =   0.0011574
        k(  358) = (   0.3333333   1.2509256   0.2912542), wk =   0.0011574
        k(  359) = (   0.3333333   1.2509256   0.3883390), wk =   0.0011574
        k(  360) = (   0.3333333   1.2509256   0.4854237), wk =   0.0011574
        k(  361) = (   0.4166667   0.2405626   0.0000000), wk =   0.0011574
        k(  362) = (   0.4166667   0.2405626   0.0970847), wk =   0.0011574
        k(  363) = (   0.4166667   0.2405626   0.1941695), wk =   0.0011574
        k(  364) = (   0.4166667   0.2405626   0.2912542), wk =   0.0011574
        k(  365) = (   0.4166667   0.2405626   0.3883390), wk =   0.0011574
        k(  366) = (   0.4166667   0.2405626   0.4854237), wk =   0.0011574
        k(  367) = (   0.4166667   0.3367877   0.0000000), wk =   0.0011574
        k(  368) = (   0.4166667   0.3367877   0.0970847), wk =   0.0011574
        k(  369) = (   0.4166667   0.3367877   0.1941695), wk =   0.0011574
        k(  370) = (   0.4166667   0.3367877   0.2912542), wk =   0.0011574
        k(  371) = (   0.4166667   0.3367877   0.3883390), wk =   0.0011574
        k(  372) = (   0.4166667   0.3367877   0.4854237), wk =   0.0011574
        k(  373) = (   0.4166667   0.4330127   0.0000000), wk =   0.0011574
        k(  374) = (   0.4166667   0.4330127   0.0970847), wk =   0.0011574
        k(  375) = (   0.4166667   0.4330127   0.1941695), wk =   0.0011574
        k(  376) = (   0.4166667   0.4330127   0.2912542), wk =   0.0011574
        k(  377) = (   0.4166667   0.4330127   0.3883390), wk =   0.0011574
        k(  378) = (   0.4166667   0.4330127   0.4854237), wk =   0.0011574
        k(  379) = (   0.4166667   0.5292377   0.0000000), wk =   0.0011574
        k(  380) = (   0.4166667   0.5292377   0.0970847), wk =   0.0011574
        k(  381) = (   0.4166667   0.5292377   0.1941695), wk =   0.0011574
        k(  382) = (   0.4166667   0.5292377   0.2912542), wk =   0.0011574
        k(  383) = (   0.4166667   0.5292377   0.3883390), wk =   0.0011574
        k(  384) = (   0.4166667   0.5292377   0.4854237), wk =   0.0011574
        k(  385) = (   0.4166667   0.6254628   0.0000000), wk =   0.0011574
        k(  386) = (   0.4166667   0.6254628   0.0970847), wk =   0.0011574
        k(  387) = (   0.4166667   0.6254628   0.1941695), wk =   0.0011574
        k(  388) = (   0.4166667   0.6254628   0.2912542), wk =   0.0011574
        k(  389) = (   0.4166667   0.6254628   0.3883390), wk =   0.0011574
        k(  390) = (   0.4166667   0.6254628   0.4854237), wk =   0.0011574
        k(  391) = (   0.4166667   0.7216878   0.0000000), wk =   0.0011574
        k(  392) = (   0.4166667   0.7216878   0.0970847), wk =   0.0011574
        k(  393) = (   0.4166667   0.7216878   0.1941695), wk =   0.0011574
        k(  394) = (   0.4166667   0.7216878   0.2912542), wk =   0.0011574
        k(  395) = (   0.4166667   0.7216878   0.3883390), wk =   0.0011574
        k(  396) = (   0.4166667   0.7216878   0.4854237), wk =   0.0011574
        k(  397) = (   0.4166667   0.8179129   0.0000000), wk =   0.0011574
        k(  398) = (   0.4166667   0.8179129   0.0970847), wk =   0.0011574
        k(  399) = (   0.4166667   0.8179129   0.1941695), wk =   0.0011574
        k(  400) = (   0.4166667   0.8179129   0.2912542), wk =   0.0011574
        k(  401) = (   0.4166667   0.8179129   0.3883390), wk =   0.0011574
        k(  402) = (   0.4166667   0.8179129   0.4854237), wk =   0.0011574
        k(  403) = (   0.4166667   0.9141379   0.0000000), wk =   0.0011574
        k(  404) = (   0.4166667   0.9141379   0.0970847), wk =   0.0011574
        k(  405) = (   0.4166667   0.9141379   0.1941695), wk =   0.0011574
        k(  406) = (   0.4166667   0.9141379   0.2912542), wk =   0.0011574
        k(  407) = (   0.4166667   0.9141379   0.3883390), wk =   0.0011574
        k(  408) = (   0.4166667   0.9141379   0.4854237), wk =   0.0011574
        k(  409) = (   0.4166667   1.0103630   0.0000000), wk =   0.0011574
        k(  410) = (   0.4166667   1.0103630   0.0970847), wk =   0.0011574
        k(  411) = (   0.4166667   1.0103630   0.1941695), wk =   0.0011574
        k(  412) = (   0.4166667   1.0103630   0.2912542), wk =   0.0011574
        k(  413) = (   0.4166667   1.0103630   0.3883390), wk =   0.0011574
        k(  414) = (   0.4166667   1.0103630   0.4854237), wk =   0.0011574
        k(  415) = (   0.4166667   1.1065880   0.0000000), wk =   0.0011574
        k(  416) = (   0.4166667   1.1065880   0.0970847), wk =   0.0011574
        k(  417) = (   0.4166667   1.1065880   0.1941695), wk =   0.0011574
        k(  418) = (   0.4166667   1.1065880   0.2912542), wk =   0.0011574
        k(  419) = (   0.4166667   1.1065880   0.3883390), wk =   0.0011574
        k(  420) = (   0.4166667   1.1065880   0.4854237), wk =   0.0011574
        k(  421) = (   0.4166667   1.2028131   0.0000000), wk =   0.0011574
        k(  422) = (   0.4166667   1.2028131   0.0970847), wk =   0.0011574
        k(  423) = (   0.4166667   1.2028131   0.1941695), wk =   0.0011574
        k(  424) = (   0.4166667   1.2028131   0.2912542), wk =   0.0011574
        k(  425) = (   0.4166667   1.2028131   0.3883390), wk =   0.0011574
        k(  426) = (   0.4166667   1.2028131   0.4854237), wk =   0.0011574
        k(  427) = (   0.4166667   1.2990381   0.0000000), wk =   0.0011574
        k(  428) = (   0.4166667   1.2990381   0.0970847), wk =   0.0011574
        k(  429) = (   0.4166667   1.2990381   0.1941695), wk =   0.0011574
        k(  430) = (   0.4166667   1.2990381   0.2912542), wk =   0.0011574
        k(  431) = (   0.4166667   1.2990381   0.3883390), wk =   0.0011574
        k(  432) = (   0.4166667   1.2990381   0.4854237), wk =   0.0011574
        k(  433) = (   0.5000000   0.2886751   0.0000000), wk =   0.0011574
        k(  434) = (   0.5000000   0.2886751   0.0970847), wk =   0.0011574
        k(  435) = (   0.5000000   0.2886751   0.1941695), wk =   0.0011574
        k(  436) = (   0.5000000   0.2886751   0.2912542), wk =   0.0011574
        k(  437) = (   0.5000000   0.2886751   0.3883390), wk =   0.0011574
        k(  438) = (   0.5000000   0.2886751   0.4854237), wk =   0.0011574
        k(  439) = (   0.5000000   0.3849002   0.0000000), wk =   0.0011574
        k(  440) = (   0.5000000   0.3849002   0.0970847), wk =   0.0011574
        k(  441) = (   0.5000000   0.3849002   0.1941695), wk =   0.0011574
        k(  442) = (   0.5000000   0.3849002   0.2912542), wk =   0.0011574
        k(  443) = (   0.5000000   0.3849002   0.3883390), wk =   0.0011574
        k(  444) = (   0.5000000   0.3849002   0.4854237), wk =   0.0011574
        k(  445) = (   0.5000000   0.4811252   0.0000000), wk =   0.0011574
        k(  446) = (   0.5000000   0.4811252   0.0970847), wk =   0.0011574
        k(  447) = (   0.5000000   0.4811252   0.1941695), wk =   0.0011574
        k(  448) = (   0.5000000   0.4811252   0.2912542), wk =   0.0011574
        k(  449) = (   0.5000000   0.4811252   0.3883390), wk =   0.0011574
        k(  450) = (   0.5000000   0.4811252   0.4854237), wk =   0.0011574
        k(  451) = (   0.5000000   0.5773503   0.0000000), wk =   0.0011574
        k(  452) = (   0.5000000   0.5773503   0.0970847), wk =   0.0011574
        k(  453) = (   0.5000000   0.5773503   0.1941695), wk =   0.0011574
        k(  454) = (   0.5000000   0.5773503   0.2912542), wk =   0.0011574
        k(  455) = (   0.5000000   0.5773503   0.3883390), wk =   0.0011574
        k(  456) = (   0.5000000   0.5773503   0.4854237), wk =   0.0011574
        k(  457) = (   0.5000000   0.6735753   0.0000000), wk =   0.0011574
        k(  458) = (   0.5000000   0.6735753   0.0970847), wk =   0.0011574
        k(  459) = (   0.5000000   0.6735753   0.1941695), wk =   0.0011574
        k(  460) = (   0.5000000   0.6735753   0.2912542), wk =   0.0011574
        k(  461) = (   0.5000000   0.6735753   0.3883390), wk =   0.0011574
        k(  462) = (   0.5000000   0.6735753   0.4854237), wk =   0.0011574
        k(  463) = (   0.5000000   0.7698004   0.0000000), wk =   0.0011574
        k(  464) = (   0.5000000   0.7698004   0.0970847), wk =   0.0011574
        k(  465) = (   0.5000000   0.7698004   0.1941695), wk =   0.0011574
        k(  466) = (   0.5000000   0.7698004   0.2912542), wk =   0.0011574
        k(  467) = (   0.5000000   0.7698004   0.3883390), wk =   0.0011574
        k(  468) = (   0.5000000   0.7698004   0.4854237), wk =   0.0011574
        k(  469) = (   0.5000000   0.8660254   0.0000000), wk =   0.0011574
        k(  470) = (   0.5000000   0.8660254   0.0970847), wk =   0.0011574
        k(  471) = (   0.5000000   0.8660254   0.1941695), wk =   0.0011574
        k(  472) = (   0.5000000   0.8660254   0.2912542), wk =   0.0011574
        k(  473) = (   0.5000000   0.8660254   0.3883390), wk =   0.0011574
        k(  474) = (   0.5000000   0.8660254   0.4854237), wk =   0.0011574
        k(  475) = (   0.5000000   0.9622504   0.0000000), wk =   0.0011574
        k(  476) = (   0.5000000   0.9622504   0.0970847), wk =   0.0011574
        k(  477) = (   0.5000000   0.9622504   0.1941695), wk =   0.0011574
        k(  478) = (   0.5000000   0.9622504   0.2912542), wk =   0.0011574
        k(  479) = (   0.5000000   0.9622504   0.3883390), wk =   0.0011574
        k(  480) = (   0.5000000   0.9622504   0.4854237), wk =   0.0011574
        k(  481) = (   0.5000000   1.0584755   0.0000000), wk =   0.0011574
        k(  482) = (   0.5000000   1.0584755   0.0970847), wk =   0.0011574
        k(  483) = (   0.5000000   1.0584755   0.1941695), wk =   0.0011574
        k(  484) = (   0.5000000   1.0584755   0.2912542), wk =   0.0011574
        k(  485) = (   0.5000000   1.0584755   0.3883390), wk =   0.0011574
        k(  486) = (   0.5000000   1.0584755   0.4854237), wk =   0.0011574
        k(  487) = (   0.5000000   1.1547005   0.0000000), wk =   0.0011574
        k(  488) = (   0.5000000   1.1547005   0.0970847), wk =   0.0011574
        k(  489) = (   0.5000000   1.1547005   0.1941695), wk =   0.0011574
        k(  490) = (   0.5000000   1.1547005   0.2912542), wk =   0.0011574
        k(  491) = (   0.5000000   1.1547005   0.3883390), wk =   0.0011574
        k(  492) = (   0.5000000   1.1547005   0.4854237), wk =   0.0011574
        k(  493) = (   0.5000000   1.2509256   0.0000000), wk =   0.0011574
        k(  494) = (   0.5000000   1.2509256   0.0970847), wk =   0.0011574
        k(  495) = (   0.5000000   1.2509256   0.1941695), wk =   0.0011574
        k(  496) = (   0.5000000   1.2509256   0.2912542), wk =   0.0011574
        k(  497) = (   0.5000000   1.2509256   0.3883390), wk =   0.0011574
        k(  498) = (   0.5000000   1.2509256   0.4854237), wk =   0.0011574
        k(  499) = (   0.5000000   1.3471506   0.0000000), wk =   0.0011574
        k(  500) = (   0.5000000   1.3471506   0.0970847), wk =   0.0011574
        k(  501) = (   0.5000000   1.3471506   0.1941695), wk =   0.0011574
        k(  502) = (   0.5000000   1.3471506   0.2912542), wk =   0.0011574
        k(  503) = (   0.5000000   1.3471506   0.3883390), wk =   0.0011574
        k(  504) = (   0.5000000   1.3471506   0.4854237), wk =   0.0011574
        k(  505) = (   0.5833333   0.3367877   0.0000000), wk =   0.0011574
        k(  506) = (   0.5833333   0.3367877   0.0970847), wk =   0.0011574
        k(  507) = (   0.5833333   0.3367877   0.1941695), wk =   0.0011574
        k(  508) = (   0.5833333   0.3367877   0.2912542), wk =   0.0011574
        k(  509) = (   0.5833333   0.3367877   0.3883390), wk =   0.0011574
        k(  510) = (   0.5833333   0.3367877   0.4854237), wk =   0.0011574
        k(  511) = (   0.5833333   0.4330127   0.0000000), wk =   0.0011574
        k(  512) = (   0.5833333   0.4330127   0.0970847), wk =   0.0011574
        k(  513) = (   0.5833333   0.4330127   0.1941695), wk =   0.0011574
        k(  514) = (   0.5833333   0.4330127   0.2912542), wk =   0.0011574
        k(  515) = (   0.5833333   0.4330127   0.3883390), wk =   0.0011574
        k(  516) = (   0.5833333   0.4330127   0.4854237), wk =   0.0011574
        k(  517) = (   0.5833333   0.5292377   0.0000000), wk =   0.0011574
        k(  518) = (   0.5833333   0.5292377   0.0970847), wk =   0.0011574
        k(  519) = (   0.5833333   0.5292377   0.1941695), wk =   0.0011574
        k(  520) = (   0.5833333   0.5292377   0.2912542), wk =   0.0011574
        k(  521) = (   0.5833333   0.5292377   0.3883390), wk =   0.0011574
        k(  522) = (   0.5833333   0.5292377   0.4854237), wk =   0.0011574
        k(  523) = (   0.5833333   0.6254628   0.0000000), wk =   0.0011574
        k(  524) = (   0.5833333   0.6254628   0.0970847), wk =   0.0011574
        k(  525) = (   0.5833333   0.6254628   0.1941695), wk =   0.0011574
        k(  526) = (   0.5833333   0.6254628   0.2912542), wk =   0.0011574
        k(  527) = (   0.5833333   0.6254628   0.3883390), wk =   0.0011574
        k(  528) = (   0.5833333   0.6254628   0.4854237), wk =   0.0011574
        k(  529) = (   0.5833333   0.7216878   0.0000000), wk =   0.0011574
        k(  530) = (   0.5833333   0.7216878   0.0970847), wk =   0.0011574
        k(  531) = (   0.5833333   0.7216878   0.1941695), wk =   0.0011574
        k(  532) = (   0.5833333   0.7216878   0.2912542), wk =   0.0011574
        k(  533) = (   0.5833333   0.7216878   0.3883390), wk =   0.0011574
        k(  534) = (   0.5833333   0.7216878   0.4854237), wk =   0.0011574
        k(  535) = (   0.5833333   0.8179129   0.0000000), wk =   0.0011574
        k(  536) = (   0.5833333   0.8179129   0.0970847), wk =   0.0011574
        k(  537) = (   0.5833333   0.8179129   0.1941695), wk =   0.0011574
        k(  538) = (   0.5833333   0.8179129   0.2912542), wk =   0.0011574
        k(  539) = (   0.5833333   0.8179129   0.3883390), wk =   0.0011574
        k(  540) = (   0.5833333   0.8179129   0.4854237), wk =   0.0011574
        k(  541) = (   0.5833333   0.9141379   0.0000000), wk =   0.0011574
        k(  542) = (   0.5833333   0.9141379   0.0970847), wk =   0.0011574
        k(  543) = (   0.5833333   0.9141379   0.1941695), wk =   0.0011574
        k(  544) = (   0.5833333   0.9141379   0.2912542), wk =   0.0011574
        k(  545) = (   0.5833333   0.9141379   0.3883390), wk =   0.0011574
        k(  546) = (   0.5833333   0.9141379   0.4854237), wk =   0.0011574
        k(  547) = (   0.5833333   1.0103630   0.0000000), wk =   0.0011574
        k(  548) = (   0.5833333   1.0103630   0.0970847), wk =   0.0011574
        k(  549) = (   0.5833333   1.0103630   0.1941695), wk =   0.0011574
        k(  550) = (   0.5833333   1.0103630   0.2912542), wk =   0.0011574
        k(  551) = (   0.5833333   1.0103630   0.3883390), wk =   0.0011574
        k(  552) = (   0.5833333   1.0103630   0.4854237), wk =   0.0011574
        k(  553) = (   0.5833333   1.1065880   0.0000000), wk =   0.0011574
        k(  554) = (   0.5833333   1.1065880   0.0970847), wk =   0.0011574
        k(  555) = (   0.5833333   1.1065880   0.1941695), wk =   0.0011574
        k(  556) = (   0.5833333   1.1065880   0.2912542), wk =   0.0011574
        k(  557) = (   0.5833333   1.1065880   0.3883390), wk =   0.0011574
        k(  558) = (   0.5833333   1.1065880   0.4854237), wk =   0.0011574
        k(  559) = (   0.5833333   1.2028131   0.0000000), wk =   0.0011574
        k(  560) = (   0.5833333   1.2028131   0.0970847), wk =   0.0011574
        k(  561) = (   0.5833333   1.2028131   0.1941695), wk =   0.0011574
        k(  562) = (   0.5833333   1.2028131   0.2912542), wk =   0.0011574
        k(  563) = (   0.5833333   1.2028131   0.3883390), wk =   0.0011574
        k(  564) = (   0.5833333   1.2028131   0.4854237), wk =   0.0011574
        k(  565) = (   0.5833333   1.2990381   0.0000000), wk =   0.0011574
        k(  566) = (   0.5833333   1.2990381   0.0970847), wk =   0.0011574
        k(  567) = (   0.5833333   1.2990381   0.1941695), wk =   0.0011574
        k(  568) = (   0.5833333   1.2990381   0.2912542), wk =   0.0011574
        k(  569) = (   0.5833333   1.2990381   0.3883390), wk =   0.0011574
        k(  570) = (   0.5833333   1.2990381   0.4854237), wk =   0.0011574
        k(  571) = (   0.5833333   1.3952632   0.0000000), wk =   0.0011574
        k(  572) = (   0.5833333   1.3952632   0.0970847), wk =   0.0011574
        k(  573) = (   0.5833333   1.3952632   0.1941695), wk =   0.0011574
        k(  574) = (   0.5833333   1.3952632   0.2912542), wk =   0.0011574
        k(  575) = (   0.5833333   1.3952632   0.3883390), wk =   0.0011574
        k(  576) = (   0.5833333   1.3952632   0.4854237), wk =   0.0011574
        k(  577) = (   0.6666667   0.3849002   0.0000000), wk =   0.0011574
        k(  578) = (   0.6666667   0.3849002   0.0970847), wk =   0.0011574
        k(  579) = (   0.6666667   0.3849002   0.1941695), wk =   0.0011574
        k(  580) = (   0.6666667   0.3849002   0.2912542), wk =   0.0011574
        k(  581) = (   0.6666667   0.3849002   0.3883390), wk =   0.0011574
        k(  582) = (   0.6666667   0.3849002   0.4854237), wk =   0.0011574
        k(  583) = (   0.6666667   0.4811252   0.0000000), wk =   0.0011574
        k(  584) = (   0.6666667   0.4811252   0.0970847), wk =   0.0011574
        k(  585) = (   0.6666667   0.4811252   0.1941695), wk =   0.0011574
        k(  586) = (   0.6666667   0.4811252   0.2912542), wk =   0.0011574
        k(  587) = (   0.6666667   0.4811252   0.3883390), wk =   0.0011574
        k(  588) = (   0.6666667   0.4811252   0.4854237), wk =   0.0011574
        k(  589) = (   0.6666667   0.5773503   0.0000000), wk =   0.0011574
        k(  590) = (   0.6666667   0.5773503   0.0970847), wk =   0.0011574
        k(  591) = (   0.6666667   0.5773503   0.1941695), wk =   0.0011574
        k(  592) = (   0.6666667   0.5773503   0.2912542), wk =   0.0011574
        k(  593) = (   0.6666667   0.5773503   0.3883390), wk =   0.0011574
        k(  594) = (   0.6666667   0.5773503   0.4854237), wk =   0.0011574
        k(  595) = (   0.6666667   0.6735753   0.0000000), wk =   0.0011574
        k(  596) = (   0.6666667   0.6735753   0.0970847), wk =   0.0011574
        k(  597) = (   0.6666667   0.6735753   0.1941695), wk =   0.0011574
        k(  598) = (   0.6666667   0.6735753   0.2912542), wk =   0.0011574
        k(  599) = (   0.6666667   0.6735753   0.3883390), wk =   0.0011574
        k(  600) = (   0.6666667   0.6735753   0.4854237), wk =   0.0011574
        k(  601) = (   0.6666667   0.7698004   0.0000000), wk =   0.0011574
        k(  602) = (   0.6666667   0.7698004   0.0970847), wk =   0.0011574
        k(  603) = (   0.6666667   0.7698004   0.1941695), wk =   0.0011574
        k(  604) = (   0.6666667   0.7698004   0.2912542), wk =   0.0011574
        k(  605) = (   0.6666667   0.7698004   0.3883390), wk =   0.0011574
        k(  606) = (   0.6666667   0.7698004   0.4854237), wk =   0.0011574
        k(  607) = (   0.6666667   0.8660254   0.0000000), wk =   0.0011574
        k(  608) = (   0.6666667   0.8660254   0.0970847), wk =   0.0011574
        k(  609) = (   0.6666667   0.8660254   0.1941695), wk =   0.0011574
        k(  610) = (   0.6666667   0.8660254   0.2912542), wk =   0.0011574
        k(  611) = (   0.6666667   0.8660254   0.3883390), wk =   0.0011574
        k(  612) = (   0.6666667   0.8660254   0.4854237), wk =   0.0011574
        k(  613) = (   0.6666667   0.9622505   0.0000000), wk =   0.0011574
        k(  614) = (   0.6666667   0.9622505   0.0970847), wk =   0.0011574
        k(  615) = (   0.6666667   0.9622505   0.1941695), wk =   0.0011574
        k(  616) = (   0.6666667   0.9622505   0.2912542), wk =   0.0011574
        k(  617) = (   0.6666667   0.9622505   0.3883390), wk =   0.0011574
        k(  618) = (   0.6666667   0.9622505   0.4854237), wk =   0.0011574
        k(  619) = (   0.6666667   1.0584755   0.0000000), wk =   0.0011574
        k(  620) = (   0.6666667   1.0584755   0.0970847), wk =   0.0011574
        k(  621) = (   0.6666667   1.0584755   0.1941695), wk =   0.0011574
        k(  622) = (   0.6666667   1.0584755   0.2912542), wk =   0.0011574
        k(  623) = (   0.6666667   1.0584755   0.3883390), wk =   0.0011574
        k(  624) = (   0.6666667   1.0584755   0.4854237), wk =   0.0011574
        k(  625) = (   0.6666667   1.1547005   0.0000000), wk =   0.0011574
        k(  626) = (   0.6666667   1.1547005   0.0970847), wk =   0.0011574
        k(  627) = (   0.6666667   1.1547005   0.1941695), wk =   0.0011574
        k(  628) = (   0.6666667   1.1547005   0.2912542), wk =   0.0011574
        k(  629) = (   0.6666667   1.1547005   0.3883390), wk =   0.0011574
        k(  630) = (   0.6666667   1.1547005   0.4854237), wk =   0.0011574
        k(  631) = (   0.6666667   1.2509256   0.0000000), wk =   0.0011574
        k(  632) = (   0.6666667   1.2509256   0.0970847), wk =   0.0011574
        k(  633) = (   0.6666667   1.2509256   0.1941695), wk =   0.0011574
        k(  634) = (   0.6666667   1.2509256   0.2912542), wk =   0.0011574
        k(  635) = (   0.6666667   1.2509256   0.3883390), wk =   0.0011574
        k(  636) = (   0.6666667   1.2509256   0.4854237), wk =   0.0011574
        k(  637) = (   0.6666667   1.3471506   0.0000000), wk =   0.0011574
        k(  638) = (   0.6666667   1.3471506   0.0970847), wk =   0.0011574
        k(  639) = (   0.6666667   1.3471506   0.1941695), wk =   0.0011574
        k(  640) = (   0.6666667   1.3471506   0.2912542), wk =   0.0011574
        k(  641) = (   0.6666667   1.3471506   0.3883390), wk =   0.0011574
        k(  642) = (   0.6666667   1.3471506   0.4854237), wk =   0.0011574
        k(  643) = (   0.6666667   1.4433757   0.0000000), wk =   0.0011574
        k(  644) = (   0.6666667   1.4433757   0.0970847), wk =   0.0011574
        k(  645) = (   0.6666667   1.4433757   0.1941695), wk =   0.0011574
        k(  646) = (   0.6666667   1.4433757   0.2912542), wk =   0.0011574
        k(  647) = (   0.6666667   1.4433757   0.3883390), wk =   0.0011574
        k(  648) = (   0.6666667   1.4433757   0.4854237), wk =   0.0011574
        k(  649) = (   0.7500000   0.4330127   0.0000000), wk =   0.0011574
        k(  650) = (   0.7500000   0.4330127   0.0970847), wk =   0.0011574
        k(  651) = (   0.7500000   0.4330127   0.1941695), wk =   0.0011574
        k(  652) = (   0.7500000   0.4330127   0.2912542), wk =   0.0011574
        k(  653) = (   0.7500000   0.4330127   0.3883390), wk =   0.0011574
        k(  654) = (   0.7500000   0.4330127   0.4854237), wk =   0.0011574
        k(  655) = (   0.7500000   0.5292377   0.0000000), wk =   0.0011574
        k(  656) = (   0.7500000   0.5292377   0.0970847), wk =   0.0011574
        k(  657) = (   0.7500000   0.5292377   0.1941695), wk =   0.0011574
        k(  658) = (   0.7500000   0.5292377   0.2912542), wk =   0.0011574
        k(  659) = (   0.7500000   0.5292377   0.3883390), wk =   0.0011574
        k(  660) = (   0.7500000   0.5292377   0.4854237), wk =   0.0011574
        k(  661) = (   0.7500000   0.6254628   0.0000000), wk =   0.0011574
        k(  662) = (   0.7500000   0.6254628   0.0970847), wk =   0.0011574
        k(  663) = (   0.7500000   0.6254628   0.1941695), wk =   0.0011574
        k(  664) = (   0.7500000   0.6254628   0.2912542), wk =   0.0011574
        k(  665) = (   0.7500000   0.6254628   0.3883390), wk =   0.0011574
        k(  666) = (   0.7500000   0.6254628   0.4854237), wk =   0.0011574
        k(  667) = (   0.7500000   0.7216878   0.0000000), wk =   0.0011574
        k(  668) = (   0.7500000   0.7216878   0.0970847), wk =   0.0011574
        k(  669) = (   0.7500000   0.7216878   0.1941695), wk =   0.0011574
        k(  670) = (   0.7500000   0.7216878   0.2912542), wk =   0.0011574
        k(  671) = (   0.7500000   0.7216878   0.3883390), wk =   0.0011574
        k(  672) = (   0.7500000   0.7216878   0.4854237), wk =   0.0011574
        k(  673) = (   0.7500000   0.8179129   0.0000000), wk =   0.0011574
        k(  674) = (   0.7500000   0.8179129   0.0970847), wk =   0.0011574
        k(  675) = (   0.7500000   0.8179129   0.1941695), wk =   0.0011574
        k(  676) = (   0.7500000   0.8179129   0.2912542), wk =   0.0011574
        k(  677) = (   0.7500000   0.8179129   0.3883390), wk =   0.0011574
        k(  678) = (   0.7500000   0.8179129   0.4854237), wk =   0.0011574
        k(  679) = (   0.7500000   0.9141379   0.0000000), wk =   0.0011574
        k(  680) = (   0.7500000   0.9141379   0.0970847), wk =   0.0011574
        k(  681) = (   0.7500000   0.9141379   0.1941695), wk =   0.0011574
        k(  682) = (   0.7500000   0.9141379   0.2912542), wk =   0.0011574
        k(  683) = (   0.7500000   0.9141379   0.3883390), wk =   0.0011574
        k(  684) = (   0.7500000   0.9141379   0.4854237), wk =   0.0011574
        k(  685) = (   0.7500000   1.0103630   0.0000000), wk =   0.0011574
        k(  686) = (   0.7500000   1.0103630   0.0970847), wk =   0.0011574
        k(  687) = (   0.7500000   1.0103630   0.1941695), wk =   0.0011574
        k(  688) = (   0.7500000   1.0103630   0.2912542), wk =   0.0011574
        k(  689) = (   0.7500000   1.0103630   0.3883390), wk =   0.0011574
        k(  690) = (   0.7500000   1.0103630   0.4854237), wk =   0.0011574
        k(  691) = (   0.7500000   1.1065880   0.0000000), wk =   0.0011574
        k(  692) = (   0.7500000   1.1065880   0.0970847), wk =   0.0011574
        k(  693) = (   0.7500000   1.1065880   0.1941695), wk =   0.0011574
        k(  694) = (   0.7500000   1.1065880   0.2912542), wk =   0.0011574
        k(  695) = (   0.7500000   1.1065880   0.3883390), wk =   0.0011574
        k(  696) = (   0.7500000   1.1065880   0.4854237), wk =   0.0011574
        k(  697) = (   0.7500000   1.2028131   0.0000000), wk =   0.0011574
        k(  698) = (   0.7500000   1.2028131   0.0970847), wk =   0.0011574
        k(  699) = (   0.7500000   1.2028131   0.1941695), wk =   0.0011574
        k(  700) = (   0.7500000   1.2028131   0.2912542), wk =   0.0011574
        k(  701) = (   0.7500000   1.2028131   0.3883390), wk =   0.0011574
        k(  702) = (   0.7500000   1.2028131   0.4854237), wk =   0.0011574
        k(  703) = (   0.7500000   1.2990381   0.0000000), wk =   0.0011574
        k(  704) = (   0.7500000   1.2990381   0.0970847), wk =   0.0011574
        k(  705) = (   0.7500000   1.2990381   0.1941695), wk =   0.0011574
        k(  706) = (   0.7500000   1.2990381   0.2912542), wk =   0.0011574
        k(  707) = (   0.7500000   1.2990381   0.3883390), wk =   0.0011574
        k(  708) = (   0.7500000   1.2990381   0.4854237), wk =   0.0011574
        k(  709) = (   0.7500000   1.3952631   0.0000000), wk =   0.0011574
        k(  710) = (   0.7500000   1.3952631   0.0970847), wk =   0.0011574
        k(  711) = (   0.7500000   1.3952631   0.1941695), wk =   0.0011574
        k(  712) = (   0.7500000   1.3952631   0.2912542), wk =   0.0011574
        k(  713) = (   0.7500000   1.3952631   0.3883390), wk =   0.0011574
        k(  714) = (   0.7500000   1.3952631   0.4854237), wk =   0.0011574
        k(  715) = (   0.7500000   1.4914882   0.0000000), wk =   0.0011574
        k(  716) = (   0.7500000   1.4914882   0.0970847), wk =   0.0011574
        k(  717) = (   0.7500000   1.4914882   0.1941695), wk =   0.0011574
        k(  718) = (   0.7500000   1.4914882   0.2912542), wk =   0.0011574
        k(  719) = (   0.7500000   1.4914882   0.3883390), wk =   0.0011574
        k(  720) = (   0.7500000   1.4914882   0.4854237), wk =   0.0011574
        k(  721) = (   0.8333333   0.4811252   0.0000000), wk =   0.0011574
        k(  722) = (   0.8333333   0.4811252   0.0970847), wk =   0.0011574
        k(  723) = (   0.8333333   0.4811252   0.1941695), wk =   0.0011574
        k(  724) = (   0.8333333   0.4811252   0.2912542), wk =   0.0011574
        k(  725) = (   0.8333333   0.4811252   0.3883390), wk =   0.0011574
        k(  726) = (   0.8333333   0.4811252   0.4854237), wk =   0.0011574
        k(  727) = (   0.8333333   0.5773503   0.0000000), wk =   0.0011574
        k(  728) = (   0.8333333   0.5773503   0.0970847), wk =   0.0011574
        k(  729) = (   0.8333333   0.5773503   0.1941695), wk =   0.0011574
        k(  730) = (   0.8333333   0.5773503   0.2912542), wk =   0.0011574
        k(  731) = (   0.8333333   0.5773503   0.3883390), wk =   0.0011574
        k(  732) = (   0.8333333   0.5773503   0.4854237), wk =   0.0011574
        k(  733) = (   0.8333333   0.6735753   0.0000000), wk =   0.0011574
        k(  734) = (   0.8333333   0.6735753   0.0970847), wk =   0.0011574
        k(  735) = (   0.8333333   0.6735753   0.1941695), wk =   0.0011574
        k(  736) = (   0.8333333   0.6735753   0.2912542), wk =   0.0011574
        k(  737) = (   0.8333333   0.6735753   0.3883390), wk =   0.0011574
        k(  738) = (   0.8333333   0.6735753   0.4854237), wk =   0.0011574
        k(  739) = (   0.8333333   0.7698004   0.0000000), wk =   0.0011574
        k(  740) = (   0.8333333   0.7698004   0.0970847), wk =   0.0011574
        k(  741) = (   0.8333333   0.7698004   0.1941695), wk =   0.0011574
        k(  742) = (   0.8333333   0.7698004   0.2912542), wk =   0.0011574
        k(  743) = (   0.8333333   0.7698004   0.3883390), wk =   0.0011574
        k(  744) = (   0.8333333   0.7698004   0.4854237), wk =   0.0011574
        k(  745) = (   0.8333333   0.8660254   0.0000000), wk =   0.0011574
        k(  746) = (   0.8333333   0.8660254   0.0970847), wk =   0.0011574
        k(  747) = (   0.8333333   0.8660254   0.1941695), wk =   0.0011574
        k(  748) = (   0.8333333   0.8660254   0.2912542), wk =   0.0011574
        k(  749) = (   0.8333333   0.8660254   0.3883390), wk =   0.0011574
        k(  750) = (   0.8333333   0.8660254   0.4854237), wk =   0.0011574
        k(  751) = (   0.8333333   0.9622505   0.0000000), wk =   0.0011574
        k(  752) = (   0.8333333   0.9622505   0.0970847), wk =   0.0011574
        k(  753) = (   0.8333333   0.9622505   0.1941695), wk =   0.0011574
        k(  754) = (   0.8333333   0.9622505   0.2912542), wk =   0.0011574
        k(  755) = (   0.8333333   0.9622505   0.3883390), wk =   0.0011574
        k(  756) = (   0.8333333   0.9622505   0.4854237), wk =   0.0011574
        k(  757) = (   0.8333333   1.0584755   0.0000000), wk =   0.0011574
        k(  758) = (   0.8333333   1.0584755   0.0970847), wk =   0.0011574
        k(  759) = (   0.8333333   1.0584755   0.1941695), wk =   0.0011574
        k(  760) = (   0.8333333   1.0584755   0.2912542), wk =   0.0011574
        k(  761) = (   0.8333333   1.0584755   0.3883390), wk =   0.0011574
        k(  762) = (   0.8333333   1.0584755   0.4854237), wk =   0.0011574
        k(  763) = (   0.8333333   1.1547005   0.0000000), wk =   0.0011574
        k(  764) = (   0.8333333   1.1547005   0.0970847), wk =   0.0011574
        k(  765) = (   0.8333333   1.1547005   0.1941695), wk =   0.0011574
        k(  766) = (   0.8333333   1.1547005   0.2912542), wk =   0.0011574
        k(  767) = (   0.8333333   1.1547005   0.3883390), wk =   0.0011574
        k(  768) = (   0.8333333   1.1547005   0.4854237), wk =   0.0011574
        k(  769) = (   0.8333333   1.2509256   0.0000000), wk =   0.0011574
        k(  770) = (   0.8333333   1.2509256   0.0970847), wk =   0.0011574
        k(  771) = (   0.8333333   1.2509256   0.1941695), wk =   0.0011574
        k(  772) = (   0.8333333   1.2509256   0.2912542), wk =   0.0011574
        k(  773) = (   0.8333333   1.2509256   0.3883390), wk =   0.0011574
        k(  774) = (   0.8333333   1.2509256   0.4854237), wk =   0.0011574
        k(  775) = (   0.8333333   1.3471506   0.0000000), wk =   0.0011574
        k(  776) = (   0.8333333   1.3471506   0.0970847), wk =   0.0011574
        k(  777) = (   0.8333333   1.3471506   0.1941695), wk =   0.0011574
        k(  778) = (   0.8333333   1.3471506   0.2912542), wk =   0.0011574
        k(  779) = (   0.8333333   1.3471506   0.3883390), wk =   0.0011574
        k(  780) = (   0.8333333   1.3471506   0.4854237), wk =   0.0011574
        k(  781) = (   0.8333333   1.4433757   0.0000000), wk =   0.0011574
        k(  782) = (   0.8333333   1.4433757   0.0970847), wk =   0.0011574
        k(  783) = (   0.8333333   1.4433757   0.1941695), wk =   0.0011574
        k(  784) = (   0.8333333   1.4433757   0.2912542), wk =   0.0011574
        k(  785) = (   0.8333333   1.4433757   0.3883390), wk =   0.0011574
        k(  786) = (   0.8333333   1.4433757   0.4854237), wk =   0.0011574
        k(  787) = (   0.8333333   1.5396007   0.0000000), wk =   0.0011574
        k(  788) = (   0.8333333   1.5396007   0.0970847), wk =   0.0011574
        k(  789) = (   0.8333333   1.5396007   0.1941695), wk =   0.0011574
        k(  790) = (   0.8333333   1.5396007   0.2912542), wk =   0.0011574
        k(  791) = (   0.8333333   1.5396007   0.3883390), wk =   0.0011574
        k(  792) = (   0.8333333   1.5396007   0.4854237), wk =   0.0011574
        k(  793) = (   0.9166667   0.5292377   0.0000000), wk =   0.0011574
        k(  794) = (   0.9166667   0.5292377   0.0970847), wk =   0.0011574
        k(  795) = (   0.9166667   0.5292377   0.1941695), wk =   0.0011574
        k(  796) = (   0.9166667   0.5292377   0.2912542), wk =   0.0011574
        k(  797) = (   0.9166667   0.5292377   0.3883390), wk =   0.0011574
        k(  798) = (   0.9166667   0.5292377   0.4854237), wk =   0.0011574
        k(  799) = (   0.9166667   0.6254628   0.0000000), wk =   0.0011574
        k(  800) = (   0.9166667   0.6254628   0.0970847), wk =   0.0011574
        k(  801) = (   0.9166667   0.6254628   0.1941695), wk =   0.0011574
        k(  802) = (   0.9166667   0.6254628   0.2912542), wk =   0.0011574
        k(  803) = (   0.9166667   0.6254628   0.3883390), wk =   0.0011574
        k(  804) = (   0.9166667   0.6254628   0.4854237), wk =   0.0011574
        k(  805) = (   0.9166667   0.7216878   0.0000000), wk =   0.0011574
        k(  806) = (   0.9166667   0.7216878   0.0970847), wk =   0.0011574
        k(  807) = (   0.9166667   0.7216878   0.1941695), wk =   0.0011574
        k(  808) = (   0.9166667   0.7216878   0.2912542), wk =   0.0011574
        k(  809) = (   0.9166667   0.7216878   0.3883390), wk =   0.0011574
        k(  810) = (   0.9166667   0.7216878   0.4854237), wk =   0.0011574
        k(  811) = (   0.9166667   0.8179129   0.0000000), wk =   0.0011574
        k(  812) = (   0.9166667   0.8179129   0.0970847), wk =   0.0011574
        k(  813) = (   0.9166667   0.8179129   0.1941695), wk =   0.0011574
        k(  814) = (   0.9166667   0.8179129   0.2912542), wk =   0.0011574
        k(  815) = (   0.9166667   0.8179129   0.3883390), wk =   0.0011574
        k(  816) = (   0.9166667   0.8179129   0.4854237), wk =   0.0011574
        k(  817) = (   0.9166667   0.9141379   0.0000000), wk =   0.0011574
        k(  818) = (   0.9166667   0.9141379   0.0970847), wk =   0.0011574
        k(  819) = (   0.9166667   0.9141379   0.1941695), wk =   0.0011574
        k(  820) = (   0.9166667   0.9141379   0.2912542), wk =   0.0011574
        k(  821) = (   0.9166667   0.9141379   0.3883390), wk =   0.0011574
        k(  822) = (   0.9166667   0.9141379   0.4854237), wk =   0.0011574
        k(  823) = (   0.9166667   1.0103630   0.0000000), wk =   0.0011574
        k(  824) = (   0.9166667   1.0103630   0.0970847), wk =   0.0011574
        k(  825) = (   0.9166667   1.0103630   0.1941695), wk =   0.0011574
        k(  826) = (   0.9166667   1.0103630   0.2912542), wk =   0.0011574
        k(  827) = (   0.9166667   1.0103630   0.3883390), wk =   0.0011574
        k(  828) = (   0.9166667   1.0103630   0.4854237), wk =   0.0011574
        k(  829) = (   0.9166667   1.1065880   0.0000000), wk =   0.0011574
        k(  830) = (   0.9166667   1.1065880   0.0970847), wk =   0.0011574
        k(  831) = (   0.9166667   1.1065880   0.1941695), wk =   0.0011574
        k(  832) = (   0.9166667   1.1065880   0.2912542), wk =   0.0011574
        k(  833) = (   0.9166667   1.1065880   0.3883390), wk =   0.0011574
        k(  834) = (   0.9166667   1.1065880   0.4854237), wk =   0.0011574
        k(  835) = (   0.9166667   1.2028131   0.0000000), wk =   0.0011574
        k(  836) = (   0.9166667   1.2028131   0.0970847), wk =   0.0011574
        k(  837) = (   0.9166667   1.2028131   0.1941695), wk =   0.0011574
        k(  838) = (   0.9166667   1.2028131   0.2912542), wk =   0.0011574
        k(  839) = (   0.9166667   1.2028131   0.3883390), wk =   0.0011574
        k(  840) = (   0.9166667   1.2028131   0.4854237), wk =   0.0011574
        k(  841) = (   0.9166667   1.2990381   0.0000000), wk =   0.0011574
        k(  842) = (   0.9166667   1.2990381   0.0970847), wk =   0.0011574
        k(  843) = (   0.9166667   1.2990381   0.1941695), wk =   0.0011574
        k(  844) = (   0.9166667   1.2990381   0.2912542), wk =   0.0011574
        k(  845) = (   0.9166667   1.2990381   0.3883390), wk =   0.0011574
        k(  846) = (   0.9166667   1.2990381   0.4854237), wk =   0.0011574
        k(  847) = (   0.9166667   1.3952632   0.0000000), wk =   0.0011574
        k(  848) = (   0.9166667   1.3952632   0.0970847), wk =   0.0011574
        k(  849) = (   0.9166667   1.3952632   0.1941695), wk =   0.0011574
        k(  850) = (   0.9166667   1.3952632   0.2912542), wk =   0.0011574
        k(  851) = (   0.9166667   1.3952632   0.3883390), wk =   0.0011574
        k(  852) = (   0.9166667   1.3952632   0.4854237), wk =   0.0011574
        k(  853) = (   0.9166667   1.4914882   0.0000000), wk =   0.0011574
        k(  854) = (   0.9166667   1.4914882   0.0970847), wk =   0.0011574
        k(  855) = (   0.9166667   1.4914882   0.1941695), wk =   0.0011574
        k(  856) = (   0.9166667   1.4914882   0.2912542), wk =   0.0011574
        k(  857) = (   0.9166667   1.4914882   0.3883390), wk =   0.0011574
        k(  858) = (   0.9166667   1.4914882   0.4854237), wk =   0.0011574
        k(  859) = (   0.9166667   1.5877132   0.0000000), wk =   0.0011574
        k(  860) = (   0.9166667   1.5877132   0.0970847), wk =   0.0011574
        k(  861) = (   0.9166667   1.5877132   0.1941695), wk =   0.0011574
        k(  862) = (   0.9166667   1.5877132   0.2912542), wk =   0.0011574
        k(  863) = (   0.9166667   1.5877132   0.3883390), wk =   0.0011574
        k(  864) = (   0.9166667   1.5877132   0.4854237), wk =   0.0011574

                       cryst. coord.
        k(    1) = (   0.0000000   0.0000000   0.0000000), wk =   0.0011574
        k(    2) = (   0.0000000   0.0000000   0.1666667), wk =   0.0011574
        k(    3) = (   0.0000000   0.0000000   0.3333333), wk =   0.0011574
        k(    4) = (   0.0000000   0.0000000   0.5000000), wk =   0.0011574
        k(    5) = (   0.0000000   0.0000000   0.6666667), wk =   0.0011574
        k(    6) = (   0.0000000   0.0000000   0.8333333), wk =   0.0011574
        k(    7) = (   0.0000000   0.0833333   0.0000000), wk =   0.0011574
        k(    8) = (   0.0000000   0.0833333   0.1666667), wk =   0.0011574
        k(    9) = (   0.0000000   0.0833333   0.3333333), wk =   0.0011574
        k(   10) = (   0.0000000   0.0833333   0.5000000), wk =   0.0011574
        k(   11) = (   0.0000000   0.0833333   0.6666667), wk =   0.0011574
        k(   12) = (   0.0000000   0.0833333   0.8333333), wk =   0.0011574
        k(   13) = (   0.0000000   0.1666667   0.0000000), wk =   0.0011574
        k(   14) = (   0.0000000   0.1666667   0.1666667), wk =   0.0011574
        k(   15) = (   0.0000000   0.1666667   0.3333333), wk =   0.0011574
        k(   16) = (   0.0000000   0.1666667   0.5000000), wk =   0.0011574
        k(   17) = (   0.0000000   0.1666667   0.6666667), wk =   0.0011574
        k(   18) = (   0.0000000   0.1666667   0.8333333), wk =   0.0011574
        k(   19) = (   0.0000000   0.2500000   0.0000000), wk =   0.0011574
        k(   20) = (   0.0000000   0.2500000   0.1666667), wk =   0.0011574
        k(   21) = (   0.0000000   0.2500000   0.3333333), wk =   0.0011574
        k(   22) = (   0.0000000   0.2500000   0.5000000), wk =   0.0011574
        k(   23) = (   0.0000000   0.2500000   0.6666667), wk =   0.0011574
        k(   24) = (   0.0000000   0.2500000   0.8333333), wk =   0.0011574
        k(   25) = (   0.0000000   0.3333333   0.0000000), wk =   0.0011574
        k(   26) = (   0.0000000   0.3333333   0.1666667), wk =   0.0011574
        k(   27) = (   0.0000000   0.3333333   0.3333333), wk =   0.0011574
        k(   28) = (   0.0000000   0.3333333   0.5000000), wk =   0.0011574
        k(   29) = (   0.0000000   0.3333333   0.6666667), wk =   0.0011574
        k(   30) = (   0.0000000   0.3333333   0.8333333), wk =   0.0011574
        k(   31) = (   0.0000000   0.4166667   0.0000000), wk =   0.0011574
        k(   32) = (   0.0000000   0.4166667   0.1666667), wk =   0.0011574
        k(   33) = (   0.0000000   0.4166667   0.3333333), wk =   0.0011574
        k(   34) = (   0.0000000   0.4166667   0.5000000), wk =   0.0011574
        k(   35) = (   0.0000000   0.4166667   0.6666667), wk =   0.0011574
        k(   36) = (   0.0000000   0.4166667   0.8333333), wk =   0.0011574
        k(   37) = (   0.0000000   0.5000000   0.0000000), wk =   0.0011574
        k(   38) = (   0.0000000   0.5000000   0.1666667), wk =   0.0011574
        k(   39) = (   0.0000000   0.5000000   0.3333333), wk =   0.0011574
        k(   40) = (   0.0000000   0.5000000   0.5000000), wk =   0.0011574
        k(   41) = (   0.0000000   0.5000000   0.6666667), wk =   0.0011574
        k(   42) = (   0.0000000   0.5000000   0.8333333), wk =   0.0011574
        k(   43) = (   0.0000000   0.5833333   0.0000000), wk =   0.0011574
        k(   44) = (   0.0000000   0.5833333   0.1666667), wk =   0.0011574
        k(   45) = (   0.0000000   0.5833333   0.3333333), wk =   0.0011574
        k(   46) = (   0.0000000   0.5833333   0.5000000), wk =   0.0011574
        k(   47) = (   0.0000000   0.5833333   0.6666667), wk =   0.0011574
        k(   48) = (   0.0000000   0.5833333   0.8333333), wk =   0.0011574
        k(   49) = (   0.0000000   0.6666667   0.0000000), wk =   0.0011574
        k(   50) = (   0.0000000   0.6666667   0.1666667), wk =   0.0011574
        k(   51) = (   0.0000000   0.6666667   0.3333333), wk =   0.0011574
        k(   52) = (   0.0000000   0.6666667   0.5000000), wk =   0.0011574
        k(   53) = (   0.0000000   0.6666667   0.6666667), wk =   0.0011574
        k(   54) = (   0.0000000   0.6666667   0.8333333), wk =   0.0011574
        k(   55) = (   0.0000000   0.7500000   0.0000000), wk =   0.0011574
        k(   56) = (   0.0000000   0.7500000   0.1666667), wk =   0.0011574
        k(   57) = (   0.0000000   0.7500000   0.3333333), wk =   0.0011574
        k(   58) = (   0.0000000   0.7500000   0.5000000), wk =   0.0011574
        k(   59) = (   0.0000000   0.7500000   0.6666667), wk =   0.0011574
        k(   60) = (   0.0000000   0.7500000   0.8333333), wk =   0.0011574
        k(   61) = (   0.0000000   0.8333333   0.0000000), wk =   0.0011574
        k(   62) = (   0.0000000   0.8333333   0.1666667), wk =   0.0011574
        k(   63) = (   0.0000000   0.8333333   0.3333333), wk =   0.0011574
        k(   64) = (   0.0000000   0.8333333   0.5000000), wk =   0.0011574
        k(   65) = (   0.0000000   0.8333333   0.6666667), wk =   0.0011574
        k(   66) = (   0.0000000   0.8333333   0.8333333), wk =   0.0011574
        k(   67) = (   0.0000000   0.9166667   0.0000000), wk =   0.0011574
        k(   68) = (   0.0000000   0.9166667   0.1666667), wk =   0.0011574
        k(   69) = (   0.0000000   0.9166667   0.3333333), wk =   0.0011574
        k(   70) = (   0.0000000   0.9166667   0.5000000), wk =   0.0011574
        k(   71) = (   0.0000000   0.9166667   0.6666667), wk =   0.0011574
        k(   72) = (   0.0000000   0.9166667   0.8333333), wk =   0.0011574
        k(   73) = (   0.0833333   0.0000000   0.0000000), wk =   0.0011574
        k(   74) = (   0.0833333   0.0000000   0.1666667), wk =   0.0011574
        k(   75) = (   0.0833333   0.0000000   0.3333333), wk =   0.0011574
        k(   76) = (   0.0833333   0.0000000   0.5000000), wk =   0.0011574
        k(   77) = (   0.0833333   0.0000000   0.6666667), wk =   0.0011574
        k(   78) = (   0.0833333   0.0000000   0.8333333), wk =   0.0011574
        k(   79) = (   0.0833333   0.0833333   0.0000000), wk =   0.0011574
        k(   80) = (   0.0833333   0.0833333   0.1666667), wk =   0.0011574
        k(   81) = (   0.0833333   0.0833333   0.3333333), wk =   0.0011574
        k(   82) = (   0.0833333   0.0833333   0.5000000), wk =   0.0011574
[...]
   -14.0856 -14.0856  -3.1775  -3.1775  -2.5551  -2.5551  -1.9084  -1.9084
    -1.1393  -1.1393  -0.4540  -0.4540  -0.3917  -0.3917   0.6014   0.6014
     0.7636   0.7636   3.6740   3.6740   4.1990   4.1990   4.4914   4.4914
     4.8961   4.8961   5.2405   5.2405   5.5142   5.5142   5.6877   5.6877
     5.7830   5.7830   6.3136   6.3136   6.4173   6.4173   6.5765   6.5765
     6.7138   6.7138   6.8583   6.8583   6.8779   6.8779   7.1852   7.1852
     8.4456   8.4456   9.1974   9.1974   9.2483   9.2483   9.3075   9.3075
     9.3777   9.3777   9.4079   9.4079   9.4556   9.4556   9.6258   9.6258
     9.8393   9.8393  10.0457  10.0457  10.1517  10.1517  10.1794  10.1794
    10.2921  10.2921  10.8013  10.8013  11.0425  11.0425  12.3129  12.3129
    12.5676  12.5676  12.6172  12.6172  13.3858  13.3858  13.8652  13.8652
    13.9040  13.9040  14.2150  14.2150  15.0647  15.0647  15.4682  15.4682
    15.5925  15.5925  15.6399  15.6399  15.8588  15.8588  16.2606  16.2606
    16.6384  16.6384  16.9670  16.9670  17.2478  17.2478  17.2710  17.2710
    17.5973  17.5973  18.1441  18.1441  18.1737  18.1737  19.1360  19.1360
    19.1701  19.1701  19.4398  19.4398  19.9510  19.9512

     occupation numbers 
     1.0000   1.0000   1.0000   1.0000   1.0000   1.0000   1.0000   1.0000
     1.0000   1.0000   1.0000   1.0000   1.0000   1.0000   1.0000   1.0000
     1.0000   1.0000   1.0000   1.0000   1.0000   1.0000   1.0000   1.0000
     1.0000   1.0000   1.0000   1.0000   1.0000   1.0000   1.0000   1.0000
     1.0000   1.0000   1.0000   1.0000   1.0000   1.0000   1.0000   1.0000
     1.0000   1.0000   1.0000   1.0000   1.0000   1.0000   1.0000   1.0000
     1.0000   1.0000   1.0000   1.0000   1.0000   1.0000   1.0000   1.0000
     1.0000   1.0000   1.0000   1.0000   1.0000   1.0000   1.0000   1.0000
     1.0000   1.0000   1.0000   1.0000   1.0000   1.0000   1.0000   1.0000
     0.7077   0.7077  -0.0000  -0.0000  -0.0000  -0.0000  -0.0000  -0.0000
    -0.0000  -0.0000  -0.0000  -0.0000  -0.0000  -0.0000  -0.0000  -0.0000
    -0.0000  -0.0000  -0.0000  -0.0000  -0.0000  -0.0000  -0.0000  -0.0000
    -0.0000  -0.0000  -0.0000  -0.0000  -0.0000  -0.0000  -0.0000  -0.0000
    -0.0000  -0.0000  -0.0000  -0.0000  -0.0000  -0.0000  -0.0000  -0.0000
    -0.0000  -0.0000  -0.0000  -0.0000  -0.0000  -0.0000  -0.0000  -0.0000
    -0.0000  -0.0000  -0.0000  -0.0000  -0.0000  -0.0000  -0.0000  -0.0000
    -0.0000  -0.0000  -0.0000  -0.0000  -0.0000  -0.0000  -0.0000  -0.0000
    -0.0000  -0.0000  -0.0000  -0.0000  -0.0000  -0.0000  -0.0000  -0.0000
    -0.0000  -0.0000  -0.0000  -0.0000  -0.0000  -0.0000

          k = 0.9167 1.5877 0.0971 (  6974 PWs)   bands (ev):

   -55.9697 -55.9697 -55.9041 -55.9041 -55.9008 -55.9008 -30.4039 -30.4039
   -30.3982 -30.3982 -30.3086 -30.3086 -29.6542 -29.6542 -29.6453 -29.6453
   -29.6194 -29.6194 -29.4652 -29.4652 -29.3922 -29.3922 -29.2452 -29.2452
   -14.0856 -14.0856  -3.1932  -3.1932  -2.5146  -2.5146  -1.9317  -1.9317
    -1.1409  -1.1409  -0.4562  -0.4562  -0.3959  -0.3959   0.5905   0.5905
     0.7760   0.7760   3.7381   3.7381   4.2056   4.2056   4.4898   4.4898
     4.8926   4.8926   5.2265   5.2265   5.4498   5.4498   5.6404   5.6404
     5.7738   5.7738   6.2445   6.2445   6.3659   6.3659   6.6855   6.6855
     6.7435   6.7435   6.8369   6.8369   6.8743   6.8743   7.2767   7.2767
     8.3804   8.3804   9.1588   9.1588   9.2531   9.2531   9.2975   9.2975
     9.3720   9.3720   9.4110   9.4110   9.4543   9.4543   9.6124   9.6124
     9.8910   9.8910  10.0550  10.0550  10.1286  10.1286  10.3270  10.3270
    10.4099  10.4099  10.9359  10.9359  11.0414  11.0414  11.7971  11.7971
    12.3874  12.3874  12.9565  12.9565  13.4260  13.4260  13.9719  13.9719
    14.0642  14.0642  14.2618  14.2618  14.6676  14.6676  14.9357  14.9357
    15.3989  15.3989  15.5495  15.5495  16.2804  16.2804  16.3814  16.3814
    16.8452  16.8452  17.3103  17.3103  17.3800  17.3800  17.4810  17.4810
    17.7503  17.7503  17.7897  17.7897  18.3231  18.3231  18.7933  18.7933
    19.2432  19.2432  19.4830  19.4830  19.7175  19.7175

     occupation numbers 
     1.0000   1.0000   1.0000   1.0000   1.0000   1.0000   1.0000   1.0000
     1.0000   1.0000   1.0000   1.0000   1.0000   1.0000   1.0000   1.0000
     1.0000   1.0000   1.0000   1.0000   1.0000   1.0000   1.0000   1.0000
     1.0000   1.0000   1.0000   1.0000   1.0000   1.0000   1.0000   1.0000
     1.0000   1.0000   1.0000   1.0000   1.0000   1.0000   1.0000   1.0000
     1.0000   1.0000   1.0000   1.0000   1.0000   1.0000   1.0000   1.0000
     1.0000   1.0000   1.0000   1.0000   1.0000   1.0000   1.0000   1.0000
     1.0000   1.0000   1.0000   1.0000   1.0000   1.0000   1.0000   1.0000
     1.0000   1.0000   1.0000   1.0000   1.0000   1.0000   1.0000   1.0000
     0.9426   0.9426  -0.0000  -0.0000  -0.0000  -0.0000  -0.0000  -0.0000
    -0.0000  -0.0000  -0.0000  -0.0000  -0.0000  -0.0000  -0.0000  -0.0000
    -0.0000  -0.0000  -0.0000  -0.0000  -0.0000  -0.0000  -0.0000  -0.0000
    -0.0000  -0.0000  -0.0000  -0.0000  -0.0000  -0.0000  -0.0000  -0.0000
    -0.0000  -0.0000  -0.0000  -0.0000  -0.0000  -0.0000  -0.0000  -0.0000
    -0.0000  -0.0000  -0.0000  -0.0000  -0.0000  -0.0000  -0.0000  -0.0000
    -0.0000  -0.0000  -0.0000  -0.0000  -0.0000  -0.0000  -0.0000  -0.0000
    -0.0000  -0.0000  -0.0000  -0.0000  -0.0000  -0.0000  -0.0000  -0.0000
    -0.0000  -0.0000  -0.0000  -0.0000  -0.0000  -0.0000  -0.0000  -0.0000
    -0.0000  -0.0000  -0.0000  -0.0000  -0.0000  -0.0000

          k = 0.9167 1.5877 0.1942 (  6966 PWs)   bands (ev):

   -55.9697 -55.9697 -55.9041 -55.9041 -55.9008 -55.9008 -30.4039 -30.4039
   -30.3982 -30.3982 -30.3081 -30.3081 -29.6543 -29.6543 -29.6451 -29.6451
   -29.6195 -29.6195 -29.4650 -29.4650 -29.3919 -29.3919 -29.2450 -29.2450
   -14.0856 -14.0856  -3.2212  -3.2212  -2.4261  -2.4261  -1.9893  -1.9893
    -1.1442  -1.1442  -0.4604  -0.4604  -0.4042  -0.4042   0.5725   0.5725
     0.7973   0.7973   3.8827   3.8827   4.2316   4.2316   4.4867   4.4867
     4.8853   4.8853   5.1498   5.1498   5.2731   5.2731   5.6125   5.6125
     5.7792   5.7792   6.1732   6.1732   6.2956   6.2956   6.7454   6.7454
     6.7882   6.7882   6.8508   6.8508   6.8877   6.8877   7.4438   7.4438
     8.2740   8.2740   9.0816   9.0816   9.2453   9.2453   9.2628   9.2628
     9.3807   9.3807   9.4166   9.4166   9.4540   9.4540   9.5841   9.5841
    10.0225  10.0225  10.1214  10.1214  10.2532  10.2532  10.4751  10.4751
    10.5649  10.5649  11.0367  11.0367  11.2550  11.2550  11.3070  11.3070
    12.0701  12.0701  13.0526  13.0526  13.4935  13.4935  13.7874  13.7874
    14.0516  14.0516  14.2415  14.2415  14.6280  14.6280  14.6785  14.6785
    15.2640  15.2640  15.6544  15.6544  16.1680  16.1680  16.4895  16.4895
    16.9240  16.9240  17.4028  17.4028  17.4585  17.4585  17.8710  17.8710
    18.1314  18.1314  18.3217  18.3217  18.4964  18.4964  18.7351  18.7351
    19.1141  19.1141  19.2187  19.2187  19.3960  19.3960

     occupation numbers 
     1.0000   1.0000   1.0000   1.0000   1.0000   1.0000   1.0000   1.0000
     1.0000   1.0000   1.0000   1.0000   1.0000   1.0000   1.0000   1.0000
     1.0000   1.0000   1.0000   1.0000   1.0000   1.0000   1.0000   1.0000
     1.0000   1.0000   1.0000   1.0000   1.0000   1.0000   1.0000   1.0000
     1.0000   1.0000   1.0000   1.0000   1.0000   1.0000   1.0000   1.0000
     1.0000   1.0000   1.0000   1.0000   1.0000   1.0000   1.0000   1.0000
     1.0000   1.0000   1.0000   1.0000   1.0000   1.0000   1.0000   1.0000
     1.0000   1.0000   1.0000   1.0000   1.0000   1.0000   1.0000   1.0000
     1.0000   1.0000   1.0000   1.0000   1.0000   1.0000   1.0000   1.0000
     1.0346   1.0346  -0.0000  -0.0000  -0.0000  -0.0000  -0.0000  -0.0000
    -0.0000  -0.0000  -0.0000  -0.0000  -0.0000  -0.0000  -0.0000  -0.0000
    -0.0000  -0.0000  -0.0000  -0.0000  -0.0000  -0.0000  -0.0000  -0.0000
    -0.0000  -0.0000  -0.0000  -0.0000  -0.0000  -0.0000  -0.0000  -0.0000
    -0.0000  -0.0000  -0.0000  -0.0000  -0.0000  -0.0000  -0.0000  -0.0000
    -0.0000  -0.0000  -0.0000  -0.0000  -0.0000  -0.0000  -0.0000  -0.0000
    -0.0000  -0.0000  -0.0000  -0.0000  -0.0000  -0.0000  -0.0000  -0.0000
    -0.0000  -0.0000  -0.0000  -0.0000  -0.0000  -0.0000  -0.0000  -0.0000
    -0.0000  -0.0000  -0.0000  -0.0000  -0.0000  -0.0000  -0.0000  -0.0000
    -0.0000  -0.0000  -0.0000  -0.0000  -0.0000  -0.0000

          k = 0.9167 1.5877 0.2913 (  6960 PWs)   bands (ev):

   -55.9697 -55.9697 -55.9040 -55.9040 -55.9008 -55.9008 -30.4039 -30.4039
   -30.3980 -30.3980 -30.3078 -30.3078 -29.6541 -29.6541 -29.6450 -29.6450
   -29.6192 -29.6192 -29.4650 -29.4650 -29.3919 -29.3919 -29.2452 -29.2452
   -14.0856 -14.0856  -3.2339  -3.2339  -2.3735  -2.3735  -2.0280  -2.0280
    -1.1458  -1.1458  -0.4625  -0.4625  -0.4082  -0.4082   0.5647   0.5647
     0.8069   0.8069   3.9624   3.9624   4.2642   4.2642   4.4852   4.4852
     4.8798   4.8798   5.0296   5.0296   5.2364   5.2364   5.6101   5.6101
     5.7836   5.7836   6.1466   6.1466   6.2698   6.2698   6.7478   6.7478
     6.7824   6.7824   6.8573   6.8573   6.9318   6.9318   7.5239   7.5239
     8.2292   8.2292   9.0417   9.0417   9.2251   9.2251   9.2545   9.2545
     9.3825   9.3825   9.4216   9.4216   9.4571   9.4571   9.5731   9.5731
    10.1060  10.1060  10.2038  10.2038  10.3126  10.3126  10.5293  10.5293
    10.6197  10.6197  11.0193  11.0193  11.0389  11.0389  11.5728  11.5728
    11.9231  11.9231  13.0464  13.0464  13.2486  13.2486  13.6174  13.6174
    14.0820  14.0820  14.2587  14.2587  14.6132  14.6132  14.7197  14.7197
    15.7080  15.7080  15.7965  15.7965  15.9361  15.9361  15.9867  15.9867
    17.0592  17.0592  17.2381  17.2381  17.7231  17.7231  18.1732  18.1732
    18.3716  18.3716  18.5860  18.5860  18.7880  18.7880  18.8353  18.8353
    18.9361  18.9361  18.9834  18.9834  19.1322  19.1322

     occupation numbers 
     1.0000   1.0000   1.0000   1.0000   1.0000   1.0000   1.0000   1.0000
     1.0000   1.0000   1.0000   1.0000   1.0000   1.0000   1.0000   1.0000
     1.0000   1.0000   1.0000   1.0000   1.0000   1.0000   1.0000   1.0000
     1.0000   1.0000   1.0000   1.0000   1.0000   1.0000   1.0000   1.0000
     1.0000   1.0000   1.0000   1.0000   1.0000   1.0000   1.0000   1.0000
     1.0000   1.0000   1.0000   1.0000   1.0000   1.0000   1.0000   1.0000
     1.0000   1.0000   1.0000   1.0000   1.0000   1.0000   1.0000   1.0000
     1.0000   1.0000   1.0000   1.0000   1.0000   1.0000   1.0000   1.0000
     1.0000   1.0000   1.0000   1.0000   1.0000   1.0000   1.0000   1.0000
     1.0240   1.0240  -0.0000  -0.0000  -0.0000  -0.0000  -0.0000  -0.0000
    -0.0000  -0.0000  -0.0000  -0.0000  -0.0000  -0.0000  -0.0000  -0.0000
    -0.0000  -0.0000  -0.0000  -0.0000  -0.0000  -0.0000  -0.0000  -0.0000
    -0.0000  -0.0000  -0.0000  -0.0000  -0.0000  -0.0000  -0.0000  -0.0000
    -0.0000  -0.0000  -0.0000  -0.0000  -0.0000  -0.0000  -0.0000  -0.0000
    -0.0000  -0.0000  -0.0000  -0.0000  -0.0000  -0.0000  -0.0000  -0.0000
    -0.0000  -0.0000  -0.0000  -0.0000  -0.0000  -0.0000  -0.0000  -0.0000
    -0.0000  -0.0000  -0.0000  -0.0000  -0.0000  -0.0000  -0.0000  -0.0000
    -0.0000  -0.0000  -0.0000  -0.0000  -0.0000  -0.0000  -0.0000  -0.0000
    -0.0000  -0.0000  -0.0000  -0.0000  -0.0000  -0.0000

          k = 0.9167 1.5877 0.3883 (  6966 PWs)   bands (ev):

   -55.9697 -55.9697 -55.9041 -55.9041 -55.9008 -55.9008 -30.4039 -30.4039
   -30.3982 -30.3982 -30.3081 -30.3081 -29.6543 -29.6543 -29.6451 -29.6451
   -29.6195 -29.6195 -29.4650 -29.4650 -29.3919 -29.3919 -29.2450 -29.2450
   -14.0856 -14.0856  -3.2212  -3.2212  -2.4261  -2.4261  -1.9893  -1.9893
    -1.1442  -1.1442  -0.4604  -0.4604  -0.4042  -0.4042   0.5725   0.5725
     0.7973   0.7973   3.8827   3.8827   4.2316   4.2316   4.4867   4.4867
     4.8853   4.8853   5.1498   5.1498   5.2731   5.2731   5.6125   5.6125
     5.7792   5.7792   6.1732   6.1732   6.2956   6.2956   6.7454   6.7454
     6.7882   6.7882   6.8508   6.8508   6.8877   6.8877   7.4438   7.4438
     8.2740   8.2740   9.0816   9.0816   9.2453   9.2453   9.2628   9.2628
     9.3807   9.3807   9.4166   9.4166   9.4540   9.4540   9.5841   9.5841
    10.0225  10.0225  10.1214  10.1214  10.2532  10.2532  10.4751  10.4751
    10.5649  10.5649  11.0367  11.0367  11.2550  11.2550  11.3070  11.3070
    12.0701  12.0701  13.0526  13.0526  13.4935  13.4935  13.7874  13.7874
    14.0516  14.0516  14.2415  14.2415  14.6280  14.6280  14.6785  14.6785
    15.2640  15.2640  15.6544  15.6544  16.1680  16.1680  16.4895  16.4895
    16.9240  16.9240  17.4028  17.4028  17.4585  17.4585  17.8710  17.8710
    18.1314  18.1314  18.3217  18.3217  18.4964  18.4964  18.7351  18.7351
    19.1141  19.1141  19.2187  19.2187  19.3959  19.3960

     occupation numbers 
     1.0000   1.0000   1.0000   1.0000   1.0000   1.0000   1.0000   1.0000
     1.0000   1.0000   1.0000   1.0000   1.0000   1.0000   1.0000   1.0000
     1.0000   1.0000   1.0000   1.0000   1.0000   1.0000   1.0000   1.0000
     1.0000   1.0000   1.0000   1.0000   1.0000   1.0000   1.0000   1.0000
     1.0000   1.0000   1.0000   1.0000   1.0000   1.0000   1.0000   1.0000
     1.0000   1.0000   1.0000   1.0000   1.0000   1.0000   1.0000   1.0000
     1.0000   1.0000   1.0000   1.0000   1.0000   1.0000   1.0000   1.0000
     1.0000   1.0000   1.0000   1.0000   1.0000   1.0000   1.0000   1.0000
     1.0000   1.0000   1.0000   1.0000   1.0000   1.0000   1.0000   1.0000
     1.0346   1.0346  -0.0000  -0.0000  -0.0000  -0.0000  -0.0000  -0.0000
    -0.0000  -0.0000  -0.0000  -0.0000  -0.0000  -0.0000  -0.0000  -0.0000
    -0.0000  -0.0000  -0.0000  -0.0000  -0.0000  -0.0000  -0.0000  -0.0000
    -0.0000  -0.0000  -0.0000  -0.0000  -0.0000  -0.0000  -0.0000  -0.0000
    -0.0000  -0.0000  -0.0000  -0.0000  -0.0000  -0.0000  -0.0000  -0.0000
    -0.0000  -0.0000  -0.0000  -0.0000  -0.0000  -0.0000  -0.0000  -0.0000
    -0.0000  -0.0000  -0.0000  -0.0000  -0.0000  -0.0000  -0.0000  -0.0000
    -0.0000  -0.0000  -0.0000  -0.0000  -0.0000  -0.0000  -0.0000  -0.0000
    -0.0000  -0.0000  -0.0000  -0.0000  -0.0000  -0.0000  -0.0000  -0.0000
    -0.0000  -0.0000  -0.0000  -0.0000  -0.0000  -0.0000

          k = 0.9167 1.5877 0.4854 (  6974 PWs)   bands (ev):

   -55.9697 -55.9697 -55.9041 -55.9041 -55.9008 -55.9008 -30.4039 -30.4039
   -30.3982 -30.3982 -30.3086 -30.3086 -29.6542 -29.6542 -29.6453 -29.6453
   -29.6194 -29.6194 -29.4652 -29.4652 -29.3922 -29.3922 -29.2452 -29.2452
   -14.0856 -14.0856  -3.1932  -3.1932  -2.5146  -2.5146  -1.9317  -1.9317
    -1.1409  -1.1409  -0.4562  -0.4562  -0.3959  -0.3959   0.5905   0.5905
     0.7760   0.7760   3.7381   3.7381   4.2056   4.2056   4.4898   4.4898
     4.8926   4.8926   5.2265   5.2265   5.4498   5.4498   5.6404   5.6404
     5.7738   5.7738   6.2445   6.2445   6.3659   6.3659   6.6855   6.6855
     6.7435   6.7435   6.8369   6.8369   6.8743   6.8743   7.2767   7.2767
     8.3804   8.3804   9.1588   9.1588   9.2531   9.2531   9.2975   9.2975
     9.3720   9.3720   9.4110   9.4110   9.4543   9.4543   9.6124   9.6124
     9.8910   9.8910  10.0550  10.0550  10.1286  10.1286  10.3270  10.3270
    10.4099  10.4099  10.9359  10.9359  11.0414  11.0414  11.7971  11.7971
    12.3874  12.3874  12.9565  12.9565  13.4260  13.4260  13.9719  13.9719
    14.0642  14.0642  14.2618  14.2618  14.6676  14.6676  14.9357  14.9357
    15.3989  15.3989  15.5495  15.5495  16.2804  16.2804  16.3814  16.3814
    16.8452  16.8452  17.3103  17.3103  17.3800  17.3800  17.4810  17.4810
    17.7503  17.7503  17.7897  17.7897  18.3231  18.3231  18.7933  18.7933
    19.2432  19.2432  19.4830  19.4830  19.7175  19.7175

     occupation numbers 
     1.0000   1.0000   1.0000   1.0000   1.0000   1.0000   1.0000   1.0000
     1.0000   1.0000   1.0000   1.0000   1.0000   1.0000   1.0000   1.0000
     1.0000   1.0000   1.0000   1.0000   1.0000   1.0000   1.0000   1.0000
     1.0000   1.0000   1.0000   1.0000   1.0000   1.0000   1.0000   1.0000
     1.0000   1.0000   1.0000   1.0000   1.0000   1.0000   1.0000   1.0000
     1.0000   1.0000   1.0000   1.0000   1.0000   1.0000   1.0000   1.0000
     1.0000   1.0000   1.0000   1.0000   1.0000   1.0000   1.0000   1.0000
     1.0000   1.0000   1.0000   1.0000   1.0000   1.0000   1.0000   1.0000
     1.0000   1.0000   1.0000   1.0000   1.0000   1.0000   1.0000   1.0000
     0.9426   0.9426  -0.0000  -0.0000  -0.0000  -0.0000  -0.0000  -0.0000
    -0.0000  -0.0000  -0.0000  -0.0000  -0.0000  -0.0000  -0.0000  -0.0000
    -0.0000  -0.0000  -0.0000  -0.0000  -0.0000  -0.0000  -0.0000  -0.0000
    -0.0000  -0.0000  -0.0000  -0.0000  -0.0000  -0.0000  -0.0000  -0.0000
    -0.0000  -0.0000  -0.0000  -0.0000  -0.0000  -0.0000  -0.0000  -0.0000
    -0.0000  -0.0000  -0.0000  -0.0000  -0.0000  -0.0000  -0.0000  -0.0000
    -0.0000  -0.0000  -0.0000  -0.0000  -0.0000  -0.0000  -0.0000  -0.0000
    -0.0000  -0.0000  -0.0000  -0.0000  -0.0000  -0.0000  -0.0000  -0.0000
    -0.0000  -0.0000  -0.0000  -0.0000  -0.0000  -0.0000  -0.0000  -0.0000
    -0.0000  -0.0000  -0.0000  -0.0000  -0.0000  -0.0000

     the Fermi energy is     8.4871 ev
     (compare with:     8.4737 eV, computed in scf)

     Writing output data file /lscratch/martin/195621/tmp/CsV3Sb5.save/
 
     init_run     :      1.71s CPU      2.24s WALL (       1 calls)
     electrons    :  27154.33s CPU  27783.24s WALL (       1 calls)

     Called by init_run:
     wfcinit      :      0.00s CPU      0.00s WALL (       1 calls)
     wfcinit:atom :      0.29s CPU      0.31s WALL (     864 calls)
     wfcinit:wfcr :    105.23s CPU    108.33s WALL (     864 calls)
     potinit      :      0.54s CPU      0.64s WALL (       1 calls)
     hinit0       :      0.44s CPU      0.75s WALL (       1 calls)

     Called by electrons:
     c_bands      :  27154.11s CPU  27782.92s WALL (       1 calls)
     v_of_rho     :      0.01s CPU      0.01s WALL (       1 calls)
     v_h          :      0.00s CPU      0.00s WALL (       1 calls)
     v_xc         :      0.01s CPU      0.01s WALL (       1 calls)
     newd         :      0.61s CPU      0.69s WALL (       1 calls)
     PAW_pot      :      0.50s CPU      0.58s WALL (       1 calls)

     Called by c_bands:
     init_us_2    :      0.26s CPU      0.28s WALL (     864 calls)
     ccgdiagg     :  26515.37s CPU  27117.75s WALL (    5184 calls)
     wfcrot       :    630.44s CPU    648.85s WALL (    5184 calls)

     Called by sum_band:

     Called by *cgdiagg:
     h_psi        :  14589.65s CPU  15007.40s WALL (11469877 calls)
     s_psi        :   7911.13s CPU   8038.59s WALL (22934570 calls)

     Called by h_psi:
     h_psi:calbec :   1907.40s CPU   1973.83s WALL (11469877 calls)
     vloc_psi     :   6880.46s CPU   7067.69s WALL (11469877 calls)
     add_vuspsi   :   5703.80s CPU   5872.88s WALL (11469877 calls)
     hs_1psi      :  18817.32s CPU  19284.92s WALL (11464693 calls)
     s_1psi       :   4708.29s CPU   4775.22s WALL (11464693 calls)

     General routines
     calbec       :   3258.96s CPU   3350.76s WALL (22934570 calls)
     fft          :      0.01s CPU      0.20s WALL (      19 calls)
     ffts         :      0.00s CPU      0.00s WALL (       4 calls)
     fftw         :   5538.54s CPU   5699.58s WALL (48969172 calls)
     interpolate  :      0.01s CPU      0.01s WALL (       4 calls)
     davcio       :      0.46s CPU      7.36s WALL (    1728 calls)
 
     Parallel routines
     fft_scatt_xy :    380.36s CPU    388.61s WALL (48969195 calls)
     fft_scatt_yz :   2734.44s CPU   2815.16s WALL (48969195 calls)

     PAW routines
     PAW_pot      :      0.50s CPU      0.58s WALL (       1 calls)
 
     PWSCF        :      7h33m CPU      7h44m WALL

 
   This run was terminated on:  22:51:27  16Nov2021            

=------------------------------------------------------------------------------=
   JOB DONE.
=------------------------------------------------------------------------------=
