
     Program PWSCF v.6.7MaX starts on 18May2022 at 16:21: 7 

     This program is part of the open-source Quantum ESPRESSO suite
     for quantum simulation of materials; please cite
         "P. Giannozzi et al., J. Phys.:Condens. Matter 21 395502 (2009);
         "P. Giannozzi et al., J. Phys.:Condens. Matter 29 465901 (2017);
          URL http://www.quantum-espresso.org", 
     in publications or presentations arising from this work. More details at
     http://www.quantum-espresso.org/quote

     Parallel version (MPI), running on    48 processors

     MPI processes distributed on     1 nodes
     R & G space division:  proc/nbgrp/npool/nimage =      48
     Waiting for input...
     Reading input from standard input

     Current dimensions of program PWSCF are:
     Max number of different atomic species (ntypx) = 10
     Max number of k-points (npk) =  40000
     Max angular momentum in pseudopotentials (lmaxx) =  3
     file O.pbe-nl-kjpaw_psl.1.0.0.UPF: wavefunction(s)  2S 2P renormalized
     file Cl.pbe-nl-kjpaw_psl.1.0.0.UPF: wavefunction(s)  3S renormalized
     file Nb.pbe-spn-kjpaw_psl.1.0.0.UPF: wavefunction(s)  4S 4P 4D renormalized

     Subspace diagonalization in iterative solution of the eigenvalue problem:
     a serial algorithm will be used

     Message from routine setup:
     using ibrav=0 with symmetry is DISCOURAGED, use correct ibrav instead
 
     Parallelization info
     --------------------
     sticks:   dense  smooth     PW     G-vecs:    dense   smooth      PW
     Min         226      90     28                 8011     2025     357
     Max         227      91     29                 8013     2026     359
     Sum       10861    4353   1363               384583    97215   17183
 


     bravais-lattice index     =            0
     lattice parameter (alat)  =      12.6717  a.u.
     unit-cell volume          =     547.9313 (a.u.)^3
     number of atoms/cell      =            4
     number of atomic types    =            3
     number of electrons       =        33.00
     number of Kohn-Sham states=           21
     kinetic-energy cutoff     =     120.0000  Ry
     charge density cutoff     =    1200.0000  Ry
     scf convergence threshold =      1.0E-10
     mixing beta               =       0.7000
     number of iterations used =            8  plain     mixing
     Exchange-correlation= SLA  PW   PBX  PBC
                           (   1   4   3   4   0   0   0)

     celldm(1)=  12.671676  celldm(2)=   0.000000  celldm(3)=   0.000000
     celldm(4)=   0.000000  celldm(5)=   0.000000  celldm(6)=   0.000000

     crystal axes: (cart. coord. in units of alat)
               a(1) = (  -0.250426   0.291161   0.923316 )  
               a(2) = (   0.250426  -0.291161   0.923316 )  
               a(3) = (   0.250426   0.291161  -0.923316 )  

     reciprocal axes: (cart. coord. in units 2 pi/alat)
               b(1) = (  0.000000  1.717261  0.541527 )  
               b(2) = (  1.996594  0.000000  0.541527 )  
               b(3) = (  1.996594  1.717261  0.000000 )  


     PseudoPot. # 1 for O  read from file:
     /zfs_data/gutierre/Scratch/Cl2NbO/convergence/cutoff/10x10x10/120/pseudo/O.pbe-nl-kjpaw_psl.1.0.0.UPF
     MD5 check sum: df3ddea38124b4e5de5e1084591730e4
     Pseudo is Projector augmented-wave + core cor, Zval =  6.0
     Generated using 'atomic' code by A. Dal Corso  v.6.7MaX
     Shape of augmentation charge: PSQ
     Using radial grid of 1095 points,  4 beta functions with: 
                l(1) =   0
                l(2) =   0
                l(3) =   1
                l(4) =   1
     Q(r) pseudized with 0 coefficients 


     PseudoPot. # 2 for Cl read from file:
     /zfs_data/gutierre/Scratch/Cl2NbO/convergence/cutoff/10x10x10/120/pseudo/Cl.pbe-nl-kjpaw_psl.1.0.0.UPF
     MD5 check sum: 8cf6bde52c08f6236e0f72a8870677af
     Pseudo is Projector augmented-wave + core cor, Zval =  7.0
     Generated using 'atomic' code by A. Dal Corso  v.6.7MaX
     Shape of augmentation charge: PSQ
     Using radial grid of 1157 points,  4 beta functions with: 
                l(1) =   0
                l(2) =   0
                l(3) =   1
                l(4) =   1
     Q(r) pseudized with 0 coefficients 


     PseudoPot. # 3 for Nb read from file:
     /zfs_data/gutierre/Scratch/Cl2NbO/convergence/cutoff/10x10x10/120/pseudo/Nb.pbe-spn-kjpaw_psl.1.0.0.UPF
     MD5 check sum: 1ec1a3aa7bf3cbf7f7e0d720422bce7a
     Pseudo is Projector augmented-wave + core cor, Zval = 13.0
     Generated using 'atomic' code by A. Dal Corso  v.6.7MaX
     Shape of augmentation charge: PSQ
     Using radial grid of 1227 points,  6 beta functions with: 
                l(1) =   0
                l(2) =   0
                l(3) =   1
                l(4) =   1
                l(5) =   2
                l(6) =   2
     Q(r) pseudized with 0 coefficients 


     atomic species   valence    mass     pseudopotential
        O              6.00    15.99940     O ( 1.00)
        Cl             7.00    35.45150     Cl( 1.00)
        Nb            13.00    92.90637     Nb( 1.00)

      8 Sym. Ops., with inversion, found


                                    s                        frac. trans.

      isym =  1     identity                                     

 cryst.   s( 1) = (     1          0          0      )
                  (     0          1          0      )
                  (     0          0          1      )

 cart.    s( 1) = (  1.0000000  0.0000000  0.0000000 )
                  (  0.0000000  1.0000000  0.0000000 )
                  (  0.0000000  0.0000000  1.0000000 )


      isym =  2     180 deg rotation - cart. axis [0,0,1]        

 cryst.   s( 2) = (     0          1          0      )
                  (     1          0          0      )
                  (    -1         -1         -1      )

 cart.    s( 2) = ( -1.0000000  0.0000000  0.0000000 )
                  (  0.0000000 -1.0000000  0.0000000 )
                  (  0.0000000  0.0000000  1.0000000 )


      isym =  3     180 deg rotation - cart. axis [0,1,0]        

 cryst.   s( 3) = (     0          0          1      )
                  (    -1         -1         -1      )
                  (     1          0          0      )

 cart.    s( 3) = ( -1.0000000  0.0000000  0.0000000 )
                  (  0.0000000  1.0000000  0.0000000 )
                  (  0.0000000  0.0000000 -1.0000000 )


      isym =  4     180 deg rotation - cart. axis [1,0,0]        

 cryst.   s( 4) = (    -1         -1         -1      )
                  (     0          0          1      )
                  (     0          1          0      )

 cart.    s( 4) = (  1.0000000  0.0000000  0.0000000 )
                  (  0.0000000 -1.0000000  0.0000000 )
                  (  0.0000000  0.0000000 -1.0000000 )


      isym =  5     inversion                                    

 cryst.   s( 5) = (    -1          0          0      )
                  (     0         -1          0      )
                  (     0          0         -1      )

 cart.    s( 5) = ( -1.0000000  0.0000000  0.0000000 )
                  (  0.0000000 -1.0000000  0.0000000 )
                  (  0.0000000  0.0000000 -1.0000000 )


      isym =  6     inv. 180 deg rotation - cart. axis [0,0,1]   

 cryst.   s( 6) = (     0         -1          0      )
                  (    -1          0          0      )
                  (     1          1          1      )

 cart.    s( 6) = (  1.0000000  0.0000000  0.0000000 )
                  (  0.0000000  1.0000000  0.0000000 )
                  (  0.0000000  0.0000000 -1.0000000 )


      isym =  7     inv. 180 deg rotation - cart. axis [0,1,0]   

 cryst.   s( 7) = (     0          0         -1      )
                  (     1          1          1      )
                  (    -1          0          0      )

 cart.    s( 7) = (  1.0000000  0.0000000  0.0000000 )
                  (  0.0000000 -1.0000000  0.0000000 )
                  (  0.0000000  0.0000000  1.0000000 )


      isym =  8     inv. 180 deg rotation - cart. axis [1,0,0]   

 cryst.   s( 8) = (     1          1          1      )
                  (     0          0         -1      )
                  (     0         -1          0      )

 cart.    s( 8) = ( -1.0000000  0.0000000  0.0000000 )
                  (  0.0000000  1.0000000  0.0000000 )
                  (  0.0000000  0.0000000  1.0000000 )


   Cartesian axes

     site n.     atom                  positions (alat units)
         1           O   tau(   1) = (   0.0000000   0.2911613   0.0000000  )
         2           Cl  tau(   2) = (  -0.0000000   0.2911613   0.6365338  )
         3           Cl  tau(   3) = (   0.2504264  -0.0000000   0.2867819  )
         4           Nb  tau(   4) = (   0.0000000   0.0000000   0.0000000  )

   Crystallographic axes

     site n.     atom                  positions (cryst. coord.)
         1           O   tau(   1) = (  0.5000000  0.0000000  0.5000000  )
         2           Cl  tau(   2) = (  0.8447000  0.3447000  0.5000000  )
         3           Cl  tau(   3) = (  0.1553000  0.6553000  0.5000000  )
         4           Nb  tau(   4) = (  0.0000000  0.0000000  0.0000000  )

     number of k points=   171  Methfessel-Paxton smearing, width (Ry)=  0.0120
                       cart. coord. in units 2pi/alat
        k(    1) = (   0.0000000   0.0000000   0.0000000), wk =   0.0020000
        k(    2) = (   0.1996594   0.1717261   0.0000000), wk =   0.0080000
        k(    3) = (   0.3993189   0.3434523   0.0000000), wk =   0.0080000
        k(    4) = (   0.5989783   0.5151784   0.0000000), wk =   0.0080000
        k(    5) = (   0.7986377   0.6869045   0.0000000), wk =   0.0080000
        k(    6) = (  -0.9982971  -0.8586307   0.0000000), wk =   0.0040000
        k(    7) = (   0.1996594   0.0000000   0.0541527), wk =   0.0080000
        k(    8) = (   0.3993189   0.1717261   0.0541527), wk =   0.0160000
        k(    9) = (   0.5989783   0.3434523   0.0541527), wk =   0.0160000
        k(   10) = (   0.7986377   0.5151784   0.0541527), wk =   0.0160000
        k(   11) = (   0.9982971   0.6869045   0.0541527), wk =   0.0160000
        k(   12) = (  -0.7986377  -0.8586307   0.0541527), wk =   0.0160000
        k(   13) = (  -0.5989783  -0.6869045   0.0541527), wk =   0.0160000
        k(   14) = (  -0.3993189  -0.5151784   0.0541527), wk =   0.0160000
        k(   15) = (  -0.1996594  -0.3434523   0.0541527), wk =   0.0160000
        k(   16) = (   0.0000000  -0.1717261   0.0541527), wk =   0.0080000
        k(   17) = (   0.3993189   0.0000000   0.1083053), wk =   0.0080000
        k(   18) = (   0.5989783   0.1717261   0.1083053), wk =   0.0160000
        k(   19) = (   0.7986377   0.3434523   0.1083053), wk =   0.0160000
        k(   20) = (   0.9982971   0.5151784   0.1083053), wk =   0.0160000
        k(   21) = (   1.1979566   0.6869045   0.1083053), wk =   0.0160000
        k(   22) = (  -0.5989783  -0.8586307   0.1083053), wk =   0.0160000
        k(   23) = (  -0.3993189  -0.6869045   0.1083053), wk =   0.0160000
        k(   24) = (  -0.1996594  -0.5151784   0.1083053), wk =   0.0160000
        k(   25) = (   0.0000000  -0.3434523   0.1083053), wk =   0.0080000
        k(   26) = (   0.1996594  -0.1717261   0.1083053), wk =   0.0160000
        k(   27) = (   0.5989783   0.0000000   0.1624580), wk =   0.0080000
        k(   28) = (   0.7986377   0.1717261   0.1624580), wk =   0.0160000
        k(   29) = (   0.9982971   0.3434523   0.1624580), wk =   0.0160000
        k(   30) = (   1.1979566   0.5151784   0.1624580), wk =   0.0160000
        k(   31) = (   1.3976160   0.6869045   0.1624580), wk =   0.0160000
        k(   32) = (  -0.3993189  -0.8586307   0.1624580), wk =   0.0160000
        k(   33) = (  -0.1996594  -0.6869045   0.1624580), wk =   0.0160000
        k(   34) = (  -0.0000000  -0.5151784   0.1624580), wk =   0.0080000
        k(   35) = (   0.1996594  -0.3434523   0.1624580), wk =   0.0160000
        k(   36) = (   0.3993189  -0.1717261   0.1624580), wk =   0.0160000
        k(   37) = (   0.7986377   0.0000000   0.2166107), wk =   0.0080000
        k(   38) = (   0.9982971   0.1717261   0.2166107), wk =   0.0160000
        k(   39) = (   1.1979566   0.3434523   0.2166107), wk =   0.0160000
        k(   40) = (   1.3976160   0.5151784   0.2166107), wk =   0.0160000
        k(   41) = (   1.5972754   0.6869045   0.2166107), wk =   0.0160000
        k(   42) = (  -0.1996594  -0.8586307   0.2166107), wk =   0.0160000
        k(   43) = (   0.0000000  -0.6869045   0.2166107), wk =   0.0080000
        k(   44) = (   0.1996594  -0.5151784   0.2166107), wk =   0.0160000
        k(   45) = (   0.3993189  -0.3434523   0.2166107), wk =   0.0160000
        k(   46) = (   0.5989783  -0.1717261   0.2166107), wk =   0.0160000
        k(   47) = (  -0.9982971   0.0000000  -0.2707633), wk =   0.0040000
        k(   48) = (  -0.7986377   0.1717261  -0.2707633), wk =   0.0160000
        k(   49) = (  -0.5989783   0.3434523  -0.2707633), wk =   0.0160000
        k(   50) = (  -0.3993189   0.5151784  -0.2707633), wk =   0.0160000
        k(   51) = (  -0.1996594   0.6869045  -0.2707633), wk =   0.0160000
        k(   52) = (  -1.9965943  -0.8586307  -0.2707633), wk =   0.0040000
        k(   53) = (   0.3993189   0.3434523   0.1083053), wk =   0.0160000
        k(   54) = (   0.5989783   0.5151784   0.1083053), wk =   0.0160000
        k(   55) = (   0.7986377   0.6869045   0.1083053), wk =   0.0160000
        k(   56) = (   0.9982971   0.8586307   0.1083053), wk =   0.0080000
        k(   57) = (   0.0000000   0.0000000   0.1083053), wk =   0.0040000
        k(   58) = (   0.5989783   0.3434523   0.1624580), wk =   0.0160000
        k(   59) = (   0.7986377   0.5151784   0.1624580), wk =   0.0160000
        k(   60) = (   0.9982971   0.6869045   0.1624580), wk =   0.0160000
        k(   61) = (   1.1979566   0.8586307   0.1624580), wk =   0.0160000
        k(   62) = (  -0.5989783  -0.6869045   0.1624580), wk =   0.0160000
        k(   63) = (  -0.3993189  -0.5151784   0.1624580), wk =   0.0160000
        k(   64) = (   0.0000000  -0.1717261   0.1624580), wk =   0.0080000
        k(   65) = (   0.1996594   0.0000000   0.1624580), wk =   0.0080000
        k(   66) = (   0.7986377   0.3434523   0.2166107), wk =   0.0160000
        k(   67) = (   0.9982971   0.5151784   0.2166107), wk =   0.0160000
        k(   68) = (   1.1979566   0.6869045   0.2166107), wk =   0.0160000
        k(   69) = (   1.3976160   0.8586307   0.2166107), wk =   0.0160000
        k(   70) = (  -0.3993189  -0.6869045   0.2166107), wk =   0.0160000
        k(   71) = (  -0.0000000  -0.3434523   0.2166107), wk =   0.0080000
        k(   72) = (   0.1996594  -0.1717261   0.2166107), wk =   0.0160000
        k(   73) = (   0.3993189   0.0000000   0.2166107), wk =   0.0080000
        k(   74) = (   0.9982971   0.3434523   0.2707633), wk =   0.0080000
        k(   75) = (   1.1979566   0.5151784   0.2707633), wk =   0.0160000
        k(   76) = (   1.3976160   0.6869045   0.2707633), wk =   0.0160000
        k(   77) = (   1.5972754   0.8586307   0.2707633), wk =   0.0080000
        k(   78) = (   0.0000000  -0.5151784   0.2707633), wk =   0.0080000
        k(   79) = (   0.1996594  -0.3434523   0.2707633), wk =   0.0160000
        k(   80) = (   0.3993189  -0.1717261   0.2707633), wk =   0.0160000
        k(   81) = (   0.5989783   0.0000000   0.2707633), wk =   0.0080000
        k(   82) = (  -0.5989783   0.5151784  -0.2166107), wk =   0.0160000
        k(   83) = (  -1.9965943  -0.6869045  -0.2166107), wk =   0.0080000
        k(   84) = (  -1.7969349  -0.5151784  -0.2166107), wk =   0.0160000
        k(   85) = (  -1.5972754  -0.3434523  -0.2166107), wk =   0.0160000
        k(   86) = (  -1.3976160  -0.1717261  -0.2166107), wk =   0.0160000
        k(   87) = (  -1.1979566   0.0000000  -0.2166107), wk =   0.0080000
        k(   88) = (   0.0000000   0.8586307  -0.1624580), wk =   0.0080000
        k(   89) = (  -1.7969349  -0.6869045  -0.1624580), wk =   0.0160000
        k(   90) = (  -1.5972754  -0.5151784  -0.1624580), wk =   0.0160000
        k(   91) = (  -1.3976160  -0.3434523  -0.1624580), wk =   0.0160000
        k(   92) = (  -1.1979566  -0.1717261  -0.1624580), wk =   0.0160000
        k(   93) = (  -0.9982971   0.0000000  -0.1624580), wk =   0.0080000
        k(   94) = (  -0.0000000   0.6869045  -0.1083053), wk =   0.0080000
        k(   95) = (   0.1996594   0.8586307  -0.1083053), wk =   0.0160000
        k(   96) = (  -1.5972754  -0.6869045  -0.1083053), wk =   0.0160000
        k(   97) = (  -1.3976160  -0.5151784  -0.1083053), wk =   0.0160000
        k(   98) = (  -1.1979566  -0.3434523  -0.1083053), wk =   0.0160000
        k(   99) = (  -0.9982971  -0.1717261  -0.1083053), wk =   0.0160000
        k(  100) = (  -0.7986377   0.0000000  -0.1083053), wk =   0.0080000
        k(  101) = (   0.0000000   0.5151784  -0.0541527), wk =   0.0080000
        k(  102) = (   0.1996594   0.6869045  -0.0541527), wk =   0.0160000
        k(  103) = (   0.3993189   0.8586307  -0.0541527), wk =   0.0160000
        k(  104) = (  -1.3976160  -0.6869045  -0.0541527), wk =   0.0160000
        k(  105) = (  -1.1979566  -0.5151784  -0.0541527), wk =   0.0160000
        k(  106) = (  -0.9982971  -0.3434523  -0.0541527), wk =   0.0160000
        k(  107) = (  -0.7986377  -0.1717261  -0.0541527), wk =   0.0160000
        k(  108) = (  -0.5989783   0.0000000  -0.0541527), wk =   0.0080000
        k(  109) = (   0.0000000   0.3434523   0.0000000), wk =   0.0040000
        k(  110) = (   0.1996594   0.5151784   0.0000000), wk =   0.0080000
        k(  111) = (   0.3993189   0.6869045   0.0000000), wk =   0.0080000
        k(  112) = (   0.5989783   0.8586307   0.0000000), wk =   0.0080000
        k(  113) = (  -1.1979566  -0.6869045   0.0000000), wk =   0.0080000
        k(  114) = (  -0.9982971  -0.5151784   0.0000000), wk =   0.0080000
        k(  115) = (  -0.7986377  -0.3434523   0.0000000), wk =   0.0080000
        k(  116) = (  -0.5989783  -0.1717261   0.0000000), wk =   0.0080000
        k(  117) = (  -0.3993189   0.0000000   0.0000000), wk =   0.0040000
        k(  118) = (   0.7986377   0.6869045   0.2166107), wk =   0.0160000
        k(  119) = (   0.9982971   0.8586307   0.2166107), wk =   0.0080000
        k(  120) = (   0.0000000   0.0000000   0.2166107), wk =   0.0040000
        k(  121) = (   0.9982971   0.6869045   0.2707633), wk =   0.0080000
        k(  122) = (   1.1979566   0.8586307   0.2707633), wk =   0.0080000
        k(  123) = (  -0.0000000  -0.1717261   0.2707633), wk =   0.0080000
        k(  124) = (   0.1996594   0.0000000   0.2707633), wk =   0.0080000
        k(  125) = (   0.0000000  -0.3434523   0.3249160), wk =   0.0080000
        k(  126) = (   0.1996594  -0.1717261   0.3249160), wk =   0.0160000
        k(  127) = (   0.3993189   0.0000000   0.3249160), wk =   0.0080000
        k(  128) = (  -1.9965943  -0.5151784  -0.1624580), wk =   0.0080000
        k(  129) = (  -1.7969349  -0.3434523  -0.1624580), wk =   0.0160000
        k(  130) = (  -1.5972754  -0.1717261  -0.1624580), wk =   0.0160000
        k(  131) = (  -1.3976160   0.0000000  -0.1624580), wk =   0.0080000
        k(  132) = (   0.0000000   1.0303568  -0.1083053), wk =   0.0080000
        k(  133) = (  -1.7969349  -0.5151784  -0.1083053), wk =   0.0160000
        k(  134) = (  -1.5972754  -0.3434523  -0.1083053), wk =   0.0160000
        k(  135) = (  -1.3976160  -0.1717261  -0.1083053), wk =   0.0160000
        k(  136) = (  -1.1979566   0.0000000  -0.1083053), wk =   0.0080000
        k(  137) = (  -0.0000000   0.8586307  -0.0541527), wk =   0.0080000
        k(  138) = (   0.1996594   1.0303568  -0.0541527), wk =   0.0160000
        k(  139) = (  -1.5972754  -0.5151784  -0.0541527), wk =   0.0160000
        k(  140) = (  -1.3976160  -0.3434523  -0.0541527), wk =   0.0160000
        k(  141) = (  -1.1979566  -0.1717261  -0.0541527), wk =   0.0160000
        k(  142) = (  -0.9982971   0.0000000  -0.0541527), wk =   0.0080000
        k(  143) = (   0.0000000   0.6869045   0.0000000), wk =   0.0040000
        k(  144) = (   0.1996594   0.8586307   0.0000000), wk =   0.0080000
        k(  145) = (   0.3993189   1.0303568   0.0000000), wk =   0.0080000
        k(  146) = (  -1.3976160  -0.5151784   0.0000000), wk =   0.0080000
        k(  147) = (  -1.1979566  -0.3434523   0.0000000), wk =   0.0080000
        k(  148) = (  -0.9982971  -0.1717261   0.0000000), wk =   0.0080000
        k(  149) = (  -0.7986377   0.0000000   0.0000000), wk =   0.0040000
        k(  150) = (  -0.0000000   0.0000000   0.3249160), wk =   0.0040000
        k(  151) = (   0.0000000  -0.1717261   0.3790686), wk =   0.0080000
        k(  152) = (   0.1996594   0.0000000   0.3790686), wk =   0.0080000
        k(  153) = (  -1.9965943  -0.3434523  -0.1083053), wk =   0.0080000
        k(  154) = (  -1.7969349  -0.1717261  -0.1083053), wk =   0.0160000
        k(  155) = (  -1.5972754   0.0000000  -0.1083053), wk =   0.0080000
        k(  156) = (   0.0000000   1.2020829  -0.0541527), wk =   0.0080000
        k(  157) = (  -1.7969349  -0.3434523  -0.0541527), wk =   0.0160000
        k(  158) = (  -1.5972754  -0.1717261  -0.0541527), wk =   0.0160000
        k(  159) = (  -1.3976160   0.0000000  -0.0541527), wk =   0.0080000
        k(  160) = (  -0.0000000   1.0303568  -0.0000000), wk =   0.0040000
        k(  161) = (   0.1996594   1.2020829  -0.0000000), wk =   0.0080000
        k(  162) = (  -1.5972754  -0.3434523  -0.0000000), wk =   0.0080000
        k(  163) = (  -1.3976160  -0.1717261  -0.0000000), wk =   0.0080000
        k(  164) = (  -1.1979566   0.0000000  -0.0000000), wk =   0.0040000
        k(  165) = (   0.0000000   0.0000000   0.4332213), wk =   0.0040000
        k(  166) = (  -1.9965943  -0.1717261  -0.0541527), wk =   0.0080000
        k(  167) = (  -1.7969349   0.0000000  -0.0541527), wk =   0.0080000
        k(  168) = (   0.0000000   1.3738091   0.0000000), wk =   0.0040000
        k(  169) = (  -1.7969349  -0.1717261   0.0000000), wk =   0.0080000
        k(  170) = (  -1.5972754   0.0000000   0.0000000), wk =   0.0040000
        k(  171) = (  -1.9965943  -1.7172613  -0.5415266), wk =   0.0020000

                       cryst. coord.
        k(    1) = (   0.0000000   0.0000000   0.0000000), wk =   0.0020000
        k(    2) = (  -0.0000000   0.0000000   0.1000000), wk =   0.0080000
        k(    3) = (  -0.0000000   0.0000000   0.2000000), wk =   0.0080000
        k(    4) = (   0.0000000   0.0000000   0.3000000), wk =   0.0080000
        k(    5) = (  -0.0000000   0.0000000   0.4000000), wk =   0.0080000
        k(    6) = (   0.0000000   0.0000000  -0.5000000), wk =   0.0040000
        k(    7) = (  -0.0000000   0.1000000   0.0000000), wk =   0.0080000
        k(    8) = (  -0.0000000   0.1000000   0.1000000), wk =   0.0160000
        k(    9) = (  -0.0000000   0.1000000   0.2000000), wk =   0.0160000
        k(   10) = (  -0.0000000   0.1000000   0.3000000), wk =   0.0160000
        k(   11) = (  -0.0000000   0.1000000   0.4000000), wk =   0.0160000
        k(   12) = (   0.0000000   0.1000000  -0.5000000), wk =   0.0160000
        k(   13) = (   0.0000000   0.1000000  -0.4000000), wk =   0.0160000
        k(   14) = (   0.0000000   0.1000000  -0.3000000), wk =   0.0160000
        k(   15) = (   0.0000000   0.1000000  -0.2000000), wk =   0.0160000
        k(   16) = (   0.0000000   0.1000000  -0.1000000), wk =   0.0080000
        k(   17) = (  -0.0000000   0.2000000   0.0000000), wk =   0.0080000
        k(   18) = (  -0.0000000   0.2000000   0.1000000), wk =   0.0160000
        k(   19) = (  -0.0000000   0.2000000   0.2000000), wk =   0.0160000
        k(   20) = (   0.0000000   0.2000000   0.3000000), wk =   0.0160000
        k(   21) = (  -0.0000000   0.2000000   0.4000000), wk =   0.0160000
        k(   22) = (   0.0000000   0.2000000  -0.5000000), wk =   0.0160000
        k(   23) = (   0.0000000   0.2000000  -0.4000000), wk =   0.0160000
        k(   24) = (   0.0000000   0.2000000  -0.3000000), wk =   0.0160000
        k(   25) = (   0.0000000   0.2000000  -0.2000000), wk =   0.0080000
        k(   26) = (   0.0000000   0.2000000  -0.1000000), wk =   0.0160000
        k(   27) = (   0.0000000   0.3000000   0.0000000), wk =   0.0080000
        k(   28) = (  -0.0000000   0.3000000   0.1000000), wk =   0.0160000
        k(   29) = (   0.0000000   0.3000000   0.2000000), wk =   0.0160000
        k(   30) = (   0.0000000   0.3000000   0.3000000), wk =   0.0160000
        k(   31) = (  -0.0000000   0.3000000   0.4000000), wk =   0.0160000
        k(   32) = (   0.0000000   0.3000000  -0.5000000), wk =   0.0160000
        k(   33) = (   0.0000000   0.3000000  -0.4000000), wk =   0.0160000
        k(   34) = (   0.0000000   0.3000000  -0.3000000), wk =   0.0080000
        k(   35) = (   0.0000000   0.3000000  -0.2000000), wk =   0.0160000
        k(   36) = (   0.0000000   0.3000000  -0.1000000), wk =   0.0160000
        k(   37) = (  -0.0000000   0.4000000   0.0000000), wk =   0.0080000
        k(   38) = (  -0.0000000   0.4000000   0.1000000), wk =   0.0160000
        k(   39) = (  -0.0000000   0.4000000   0.2000000), wk =   0.0160000
        k(   40) = (  -0.0000000   0.4000000   0.3000000), wk =   0.0160000
        k(   41) = (  -0.0000000   0.4000000   0.4000000), wk =   0.0160000
        k(   42) = (   0.0000000   0.4000000  -0.5000000), wk =   0.0160000
        k(   43) = (   0.0000000   0.4000000  -0.4000000), wk =   0.0080000
        k(   44) = (   0.0000000   0.4000000  -0.3000000), wk =   0.0160000
        k(   45) = (   0.0000000   0.4000000  -0.2000000), wk =   0.0160000
        k(   46) = (  -0.0000000   0.4000000  -0.1000000), wk =   0.0160000
        k(   47) = (   0.0000000  -0.5000000   0.0000000), wk =   0.0040000
        k(   48) = (   0.0000000  -0.5000000   0.1000000), wk =   0.0160000
        k(   49) = (   0.0000000  -0.5000000   0.2000000), wk =   0.0160000
        k(   50) = (   0.0000000  -0.5000000   0.3000000), wk =   0.0160000
        k(   51) = (   0.0000000  -0.5000000   0.4000000), wk =   0.0160000
        k(   52) = (   0.0000000  -0.5000000  -0.5000000), wk =   0.0040000
        k(   53) = (   0.1000000   0.1000000   0.1000000), wk =   0.0160000
        k(   54) = (   0.1000000   0.1000000   0.2000000), wk =   0.0160000
        k(   55) = (   0.1000000   0.1000000   0.3000000), wk =   0.0160000
        k(   56) = (   0.1000000   0.1000000   0.4000000), wk =   0.0080000
        k(   57) = (   0.1000000   0.1000000  -0.1000000), wk =   0.0040000
        k(   58) = (   0.1000000   0.2000000   0.1000000), wk =   0.0160000
        k(   59) = (   0.1000000   0.2000000   0.2000000), wk =   0.0160000
        k(   60) = (   0.1000000   0.2000000   0.3000000), wk =   0.0160000
        k(   61) = (   0.1000000   0.2000000   0.4000000), wk =   0.0160000
        k(   62) = (   0.1000000   0.2000000  -0.5000000), wk =   0.0160000
        k(   63) = (   0.1000000   0.2000000  -0.4000000), wk =   0.0160000
        k(   64) = (   0.1000000   0.2000000  -0.2000000), wk =   0.0080000
        k(   65) = (   0.1000000   0.2000000  -0.1000000), wk =   0.0080000
        k(   66) = (   0.1000000   0.3000000   0.1000000), wk =   0.0160000
        k(   67) = (   0.1000000   0.3000000   0.2000000), wk =   0.0160000
        k(   68) = (   0.1000000   0.3000000   0.3000000), wk =   0.0160000
        k(   69) = (   0.1000000   0.3000000   0.4000000), wk =   0.0160000
        k(   70) = (   0.1000000   0.3000000  -0.5000000), wk =   0.0160000
        k(   71) = (   0.1000000   0.3000000  -0.3000000), wk =   0.0080000
        k(   72) = (   0.1000000   0.3000000  -0.2000000), wk =   0.0160000
        k(   73) = (   0.1000000   0.3000000  -0.1000000), wk =   0.0080000
        k(   74) = (   0.1000000   0.4000000   0.1000000), wk =   0.0080000
        k(   75) = (   0.1000000   0.4000000   0.2000000), wk =   0.0160000
        k(   76) = (   0.1000000   0.4000000   0.3000000), wk =   0.0160000
        k(   77) = (   0.1000000   0.4000000   0.4000000), wk =   0.0080000
        k(   78) = (   0.1000000   0.4000000  -0.4000000), wk =   0.0080000
        k(   79) = (   0.1000000   0.4000000  -0.3000000), wk =   0.0160000
        k(   80) = (   0.1000000   0.4000000  -0.2000000), wk =   0.0160000
        k(   81) = (   0.1000000   0.4000000  -0.1000000), wk =   0.0080000
        k(   82) = (   0.1000000  -0.5000000   0.2000000), wk =   0.0160000
        k(   83) = (   0.1000000  -0.5000000  -0.5000000), wk =   0.0080000
        k(   84) = (   0.1000000  -0.5000000  -0.4000000), wk =   0.0160000
        k(   85) = (   0.1000000  -0.5000000  -0.3000000), wk =   0.0160000
        k(   86) = (   0.1000000  -0.5000000  -0.2000000), wk =   0.0160000
        k(   87) = (   0.1000000  -0.5000000  -0.1000000), wk =   0.0080000
        k(   88) = (   0.1000000  -0.4000000   0.4000000), wk =   0.0080000
        k(   89) = (   0.1000000  -0.4000000  -0.5000000), wk =   0.0160000
        k(   90) = (   0.1000000  -0.4000000  -0.4000000), wk =   0.0160000
        k(   91) = (   0.1000000  -0.4000000  -0.3000000), wk =   0.0160000
        k(   92) = (   0.1000000  -0.4000000  -0.2000000), wk =   0.0160000
        k(   93) = (   0.1000000  -0.4000000  -0.1000000), wk =   0.0080000
        k(   94) = (   0.1000000  -0.3000000   0.3000000), wk =   0.0080000
        k(   95) = (   0.1000000  -0.3000000   0.4000000), wk =   0.0160000
        k(   96) = (   0.1000000  -0.3000000  -0.5000000), wk =   0.0160000
        k(   97) = (   0.1000000  -0.3000000  -0.4000000), wk =   0.0160000
        k(   98) = (   0.1000000  -0.3000000  -0.3000000), wk =   0.0160000
        k(   99) = (   0.1000000  -0.3000000  -0.2000000), wk =   0.0160000
        k(  100) = (   0.1000000  -0.3000000  -0.1000000), wk =   0.0080000
        k(  101) = (   0.1000000  -0.2000000   0.2000000), wk =   0.0080000
        k(  102) = (   0.1000000  -0.2000000   0.3000000), wk =   0.0160000
        k(  103) = (   0.1000000  -0.2000000   0.4000000), wk =   0.0160000
        k(  104) = (   0.1000000  -0.2000000  -0.5000000), wk =   0.0160000
        k(  105) = (   0.1000000  -0.2000000  -0.4000000), wk =   0.0160000
        k(  106) = (   0.1000000  -0.2000000  -0.3000000), wk =   0.0160000
        k(  107) = (   0.1000000  -0.2000000  -0.2000000), wk =   0.0160000
        k(  108) = (   0.1000000  -0.2000000  -0.1000000), wk =   0.0080000
        k(  109) = (   0.1000000  -0.1000000   0.1000000), wk =   0.0040000
        k(  110) = (   0.1000000  -0.1000000   0.2000000), wk =   0.0080000
        k(  111) = (   0.1000000  -0.1000000   0.3000000), wk =   0.0080000
        k(  112) = (   0.1000000  -0.1000000   0.4000000), wk =   0.0080000
        k(  113) = (   0.1000000  -0.1000000  -0.5000000), wk =   0.0080000
        k(  114) = (   0.1000000  -0.1000000  -0.4000000), wk =   0.0080000
        k(  115) = (   0.1000000  -0.1000000  -0.3000000), wk =   0.0080000
        k(  116) = (   0.1000000  -0.1000000  -0.2000000), wk =   0.0080000
        k(  117) = (   0.1000000  -0.1000000  -0.1000000), wk =   0.0040000
        k(  118) = (   0.2000000   0.2000000   0.2000000), wk =   0.0160000
        k(  119) = (   0.2000000   0.2000000   0.3000000), wk =   0.0080000
        k(  120) = (   0.2000000   0.2000000  -0.2000000), wk =   0.0040000
        k(  121) = (   0.2000000   0.3000000   0.2000000), wk =   0.0080000
        k(  122) = (   0.2000000   0.3000000   0.3000000), wk =   0.0080000
        k(  123) = (   0.2000000   0.3000000  -0.3000000), wk =   0.0080000
        k(  124) = (   0.2000000   0.3000000  -0.2000000), wk =   0.0080000
        k(  125) = (   0.2000000   0.4000000  -0.4000000), wk =   0.0080000
        k(  126) = (   0.2000000   0.4000000  -0.3000000), wk =   0.0160000
        k(  127) = (   0.2000000   0.4000000  -0.2000000), wk =   0.0080000
        k(  128) = (   0.2000000  -0.5000000  -0.5000000), wk =   0.0080000
        k(  129) = (   0.2000000  -0.5000000  -0.4000000), wk =   0.0160000
        k(  130) = (   0.2000000  -0.5000000  -0.3000000), wk =   0.0160000
        k(  131) = (   0.2000000  -0.5000000  -0.2000000), wk =   0.0080000
        k(  132) = (   0.2000000  -0.4000000   0.4000000), wk =   0.0080000
        k(  133) = (   0.2000000  -0.4000000  -0.5000000), wk =   0.0160000
        k(  134) = (   0.2000000  -0.4000000  -0.4000000), wk =   0.0160000
        k(  135) = (   0.2000000  -0.4000000  -0.3000000), wk =   0.0160000
        k(  136) = (   0.2000000  -0.4000000  -0.2000000), wk =   0.0080000
        k(  137) = (   0.2000000  -0.3000000   0.3000000), wk =   0.0080000
        k(  138) = (   0.2000000  -0.3000000   0.4000000), wk =   0.0160000
        k(  139) = (   0.2000000  -0.3000000  -0.5000000), wk =   0.0160000
        k(  140) = (   0.2000000  -0.3000000  -0.4000000), wk =   0.0160000
        k(  141) = (   0.2000000  -0.3000000  -0.3000000), wk =   0.0160000
        k(  142) = (   0.2000000  -0.3000000  -0.2000000), wk =   0.0080000
        k(  143) = (   0.2000000  -0.2000000   0.2000000), wk =   0.0040000
        k(  144) = (   0.2000000  -0.2000000   0.3000000), wk =   0.0080000
        k(  145) = (   0.2000000  -0.2000000   0.4000000), wk =   0.0080000
        k(  146) = (   0.2000000  -0.2000000  -0.5000000), wk =   0.0080000
        k(  147) = (   0.2000000  -0.2000000  -0.4000000), wk =   0.0080000
        k(  148) = (   0.2000000  -0.2000000  -0.3000000), wk =   0.0080000
        k(  149) = (   0.2000000  -0.2000000  -0.2000000), wk =   0.0040000
        k(  150) = (   0.3000000   0.3000000  -0.3000000), wk =   0.0040000
        k(  151) = (   0.3000000   0.4000000  -0.4000000), wk =   0.0080000
        k(  152) = (   0.3000000   0.4000000  -0.3000000), wk =   0.0080000
        k(  153) = (   0.3000000  -0.5000000  -0.5000000), wk =   0.0080000
        k(  154) = (   0.3000000  -0.5000000  -0.4000000), wk =   0.0160000
        k(  155) = (   0.3000000  -0.5000000  -0.3000000), wk =   0.0080000
        k(  156) = (   0.3000000  -0.4000000   0.4000000), wk =   0.0080000
        k(  157) = (   0.3000000  -0.4000000  -0.5000000), wk =   0.0160000
        k(  158) = (   0.3000000  -0.4000000  -0.4000000), wk =   0.0160000
        k(  159) = (   0.3000000  -0.4000000  -0.3000000), wk =   0.0080000
        k(  160) = (   0.3000000  -0.3000000   0.3000000), wk =   0.0040000
        k(  161) = (   0.3000000  -0.3000000   0.4000000), wk =   0.0080000
        k(  162) = (   0.3000000  -0.3000000  -0.5000000), wk =   0.0080000
        k(  163) = (   0.3000000  -0.3000000  -0.4000000), wk =   0.0080000
        k(  164) = (   0.3000000  -0.3000000  -0.3000000), wk =   0.0040000
        k(  165) = (   0.4000000   0.4000000  -0.4000000), wk =   0.0040000
        k(  166) = (   0.4000000  -0.5000000  -0.5000000), wk =   0.0080000
        k(  167) = (   0.4000000  -0.5000000  -0.4000000), wk =   0.0080000
        k(  168) = (   0.4000000  -0.4000000   0.4000000), wk =   0.0040000
        k(  169) = (   0.4000000  -0.4000000  -0.5000000), wk =   0.0080000
        k(  170) = (   0.4000000  -0.4000000  -0.4000000), wk =   0.0040000
        k(  171) = (  -0.5000000  -0.5000000  -0.5000000), wk =   0.0020000

     Dense  grid:   384583 G-vectors     FFT dimensions: ( 144, 144, 144)

     Smooth grid:    97215 G-vectors     FFT dimensions: (  90,  90,  90)

     Dynamical RAM for                 wfc:       0.08 MB

     Dynamical RAM for     wfc (w. buffer):      13.94 MB

     Dynamical RAM for           str. fact:       0.37 MB

     Dynamical RAM for           local pot:       0.00 MB

     Dynamical RAM for          nlocal pot:       0.16 MB

     Dynamical RAM for                qrad:       8.33 MB

     Dynamical RAM for          rho,v,vnew:       1.79 MB

     Dynamical RAM for               rhoin:       0.60 MB

     Dynamical RAM for            rho*nmix:       1.96 MB

     Dynamical RAM for           G-vectors:       0.47 MB

     Dynamical RAM for          h,s,v(r/c):       0.08 MB

     Dynamical RAM for          <psi|beta>:       0.01 MB

     Dynamical RAM for                 psi:       0.16 MB

     Dynamical RAM for                hpsi:       0.16 MB

     Dynamical RAM for                spsi:       0.16 MB

     Dynamical RAM for      wfcinit/wfcrot:       0.21 MB

     Dynamical RAM for           addusdens:      22.98 MB

     Dynamical RAM for          addusforce:      23.30 MB

     Dynamical RAM for         addusstress:      24.57 MB

     Estimated static dynamical RAM per process >      30.49 MB

     Estimated max dynamical RAM per process >      55.06 MB

     Estimated total dynamical RAM >       2.58 GB

     Initial potential from superposition of free atoms

     starting charge   32.99867, renormalised to   33.00000
     Starting wfcs are   25 randomized atomic wfcs
     Checking if some PAW data can be deallocated... 
       PAW data deallocated on   36 nodes for type:  1
       PAW data deallocated on   24 nodes for type:  2
       PAW data deallocated on   36 nodes for type:  3

     total cpu time spent up to now is        4.9 secs

     Self-consistent Calculation

     iteration #  1     ecut=   120.00 Ry     beta= 0.70
     Davidson diagonalization with overlap
     ethr =  1.00E-02,  avg # of iterations =  2.2

     total cpu time spent up to now is       13.3 secs

     total energy              =    -534.52957692 Ry
     estimated scf accuracy    <       0.76064007 Ry

     iteration #  2     ecut=   120.00 Ry     beta= 0.70
     Davidson diagonalization with overlap
     ethr =  2.30E-03,  avg # of iterations =  3.7

     total cpu time spent up to now is       23.2 secs

     total energy              =    -533.59131880 Ry
     estimated scf accuracy    <       8.55369320 Ry

     iteration #  3     ecut=   120.00 Ry     beta= 0.70
     Davidson diagonalization with overlap
     ethr =  2.30E-03,  avg # of iterations =  3.5

     total cpu time spent up to now is       32.5 secs

     total energy              =    -534.97548878 Ry
     estimated scf accuracy    <       0.12692167 Ry

     iteration #  4     ecut=   120.00 Ry     beta= 0.70
     Davidson diagonalization with overlap
     ethr =  3.85E-04,  avg # of iterations =  1.3

     total cpu time spent up to now is       39.9 secs

     total energy              =    -534.96782401 Ry
     estimated scf accuracy    <       0.06128210 Ry

     iteration #  5     ecut=   120.00 Ry     beta= 0.70
     Davidson diagonalization with overlap
     ethr =  1.86E-04,  avg # of iterations =  1.5

     total cpu time spent up to now is       47.4 secs

     total energy              =    -534.96475316 Ry
     estimated scf accuracy    <       0.02304415 Ry

     iteration #  6     ecut=   120.00 Ry     beta= 0.70
     Davidson diagonalization with overlap
     ethr =  6.98E-05,  avg # of iterations =  1.9

     total cpu time spent up to now is       55.1 secs

     total energy              =    -534.96709514 Ry
     estimated scf accuracy    <       0.00082340 Ry

     iteration #  7     ecut=   120.00 Ry     beta= 0.70
     Davidson diagonalization with overlap
     ethr =  2.50E-06,  avg # of iterations =  3.3

     total cpu time spent up to now is       64.8 secs

     total energy              =    -534.96733984 Ry
     estimated scf accuracy    <       0.00014410 Ry

     iteration #  8     ecut=   120.00 Ry     beta= 0.70
     Davidson diagonalization with overlap
     ethr =  4.37E-07,  avg # of iterations =  1.7

     total cpu time spent up to now is       72.4 secs

     total energy              =    -534.96733524 Ry
     estimated scf accuracy    <       0.00003746 Ry

     iteration #  9     ecut=   120.00 Ry     beta= 0.70
     Davidson diagonalization with overlap
     ethr =  1.14E-07,  avg # of iterations =  2.0

     total cpu time spent up to now is       80.5 secs

     total energy              =    -534.96734362 Ry
     estimated scf accuracy    <       0.00000097 Ry

     iteration # 10     ecut=   120.00 Ry     beta= 0.70
     Davidson diagonalization with overlap
     ethr =  2.94E-09,  avg # of iterations =  3.7

     total cpu time spent up to now is       90.3 secs

     total energy              =    -534.96734400 Ry
     estimated scf accuracy    <       0.00000002 Ry

     iteration # 11     ecut=   120.00 Ry     beta= 0.70
     Davidson diagonalization with overlap
     ethr =  4.70E-11,  avg # of iterations =  4.6

     total cpu time spent up to now is      102.0 secs

     total energy              =    -534.96734401 Ry
     estimated scf accuracy    <       0.00000002 Ry

     iteration # 12     ecut=   120.00 Ry     beta= 0.70
     Davidson diagonalization with overlap
     ethr =  4.70E-11,  avg # of iterations =  2.4

     total cpu time spent up to now is      110.3 secs

     total energy              =    -534.96734401 Ry
     estimated scf accuracy    <          7.7E-10 Ry

     iteration # 13     ecut=   120.00 Ry     beta= 0.70
     Davidson diagonalization with overlap
     ethr =  2.34E-12,  avg # of iterations =  2.1

     total cpu time spent up to now is      118.5 secs

     End of self-consistent calculation

          k = 0.0000 0.0000 0.0000 ( 12131 PWs)   bands (ev):

   -49.8742 -26.1492 -25.7928 -25.7124 -12.4408  -9.4963  -8.8061   0.6414
     2.4918   2.7189   2.8782   2.9562   3.4300   3.9406   4.1889   4.2876
     5.5256   7.1785   7.3224   8.6677   9.3616

     occupation numbers 
     1.0000   1.0000   1.0000   1.0000   1.0000   1.0000   1.0000   1.0000
     1.0000   1.0000   1.0000   1.0000   1.0000   1.0000   1.0000   1.0000
     1.0000  -0.0000  -0.0000  -0.0000  -0.0000

          k = 0.1997 0.1717 0.0000 ( 12123 PWs)   bands (ev):

   -49.8724 -26.1655 -25.7885 -25.7326 -12.3143  -9.4257  -8.8110   0.7778
     2.2257   2.3507   2.5846   3.1333   3.2694   3.7438   3.8828   4.0605
     5.8248   7.3894   7.4791   8.7272   9.8411

     occupation numbers 
     1.0000   1.0000   1.0000   1.0000   1.0000   1.0000   1.0000   1.0000
     1.0000   1.0000   1.0000   1.0000   1.0000   1.0000   1.0000   1.0000
     1.0000  -0.0000  -0.0000  -0.0000  -0.0000

          k = 0.3993 0.3435 0.0000 ( 12142 PWs)   bands (ev):

   -49.8680 -26.2074 -25.7849 -25.7773 -11.9704  -9.2339  -8.8253   1.1440
     1.6402   1.8229   2.0558   2.3857   2.7100   3.1667   3.8717   4.0000
     6.4478   7.8519   7.9267   8.9902  10.7704

     occupation numbers 
     1.0000   1.0000   1.0000   1.0000   1.0000   1.0000   1.0000   1.0000
     1.0000   1.0000   1.0000   1.0000   1.0000   1.0000   1.0000   1.0000
     1.0336  -0.0000  -0.0000  -0.0000  -0.0000

          k = 0.5990 0.5152 0.0000 ( 12161 PWs)   bands (ev):

   -49.8625 -26.2576 -25.8486 -25.7634 -11.5144  -8.9802  -8.8466   0.5262
     1.4152   1.6634   1.7289   1.8196   1.8793   2.6932   3.7390   4.0086
     7.2477   8.4182   8.5694   9.3655  11.3229

     occupation numbers 
     1.0000   1.0000   1.0000   1.0000   1.0000   1.0000   1.0000   1.0000
     1.0000   1.0000   1.0000   1.0000   1.0000   1.0000   1.0000   1.0000
    -0.0000  -0.0000  -0.0000  -0.0000  -0.0000

          k = 0.7986 0.6869 0.0000 ( 12158 PWs)   bands (ev):

   -49.8580 -26.2970 -25.8994 -25.7522 -11.1132  -8.8666  -8.7579  -0.3134
     0.8192   1.1723   1.6806   1.7851   2.2218   2.3351   3.4484   3.9490
     8.0777   8.9284   9.1345   9.6564  11.3622

     occupation numbers 
     1.0000   1.0000   1.0000   1.0000   1.0000   1.0000   1.0000   1.0000
     1.0000   1.0000   1.0000   1.0000   1.0000   1.0000   1.0000   1.0000
    -0.0000  -0.0000  -0.0000  -0.0000  -0.0000

          k =-0.9983-0.8586 0.0000 ( 12140 PWs)   bands (ev):

   -49.8563 -26.3117 -25.9186 -25.7480 -10.9504  -8.8749  -8.6680  -0.6326
     0.5799   0.9706   1.7531   1.8545   1.9615   2.6012   3.2784   3.8758
     8.4846   9.1483   9.3381   9.7834  11.3915

     occupation numbers 
     1.0000   1.0000   1.0000   1.0000   1.0000   1.0000   1.0000   1.0000
     1.0000   1.0000   1.0000   1.0000   1.0000   1.0000   1.0000   1.0000
    -0.0000  -0.0000  -0.0000  -0.0000  -0.0000

          k = 0.1997 0.0000 0.0542 ( 12144 PWs)   bands (ev):

   -49.8728 -26.1475 -25.7892 -25.7331 -12.4296  -9.4382  -8.8146   0.7654
     2.3424   2.6807   2.9196   3.0007   3.2276   3.8731   3.9719   4.1352
     5.8130   7.1204   7.2840   8.7163   9.6237

     occupation numbers 
     1.0000   1.0000   1.0000   1.0000   1.0000   1.0000   1.0000   1.0000
     1.0000   1.0000   1.0000   1.0000   1.0000   1.0000   1.0000   1.0000
     1.0000  -0.0003  -0.0000  -0.0000  -0.0000

          k = 0.3993 0.1717 0.0542 ( 12149 PWs)   bands (ev):

   -49.8688 -26.1612 -25.7865 -25.7790 -12.2854  -9.2736  -8.8269   1.0785
     2.0481   2.2933   2.5384   2.6166   3.1361   3.2163   3.8520   4.0525
     6.4155   7.2370   7.3641   8.9761  10.2770

     occupation numbers 
     1.0000   1.0000   1.0000   1.0000   1.0000   1.0000   1.0000   1.0000
     1.0000   1.0000   1.0000   1.0000   1.0000   1.0000   1.0000   1.0000
     1.0257  -0.0000  -0.0000  -0.0000  -0.0000

          k = 0.5990 0.3435 0.0542 ( 12156 PWs)   bands (ev):

   -49.8635 -26.2018 -25.8508 -25.7655 -11.9356  -9.0333  -8.8460   1.4007
     1.5908   1.7922   1.9288   2.0007   2.2203   2.8032   3.8402   4.1035
     7.1746   7.7043   7.8165   9.4055  10.9586

     occupation numbers 
     1.0000   1.0000   1.0000   1.0000   1.0000   1.0000   1.0000   1.0000
     1.0000   1.0000   1.0000   1.0000   1.0000   1.0000   1.0000   1.0000
    -0.0001  -0.0000  -0.0000  -0.0000  -0.0000

          k = 0.7986 0.5152 0.0542 ( 12169 PWs)   bands (ev):

   -49.8588 -26.2528 -25.9013 -25.7539 -11.4873  -8.8733  -8.7954   0.5475
     1.1224   1.1348   1.7021   1.8738   2.3334   2.3613   3.5919   4.0704
     7.9832   8.3403   8.5071   9.7193  11.2297

     occupation numbers 
     1.0000   1.0000   1.0000   1.0000   1.0000   1.0000   1.0000   1.0000
     1.0000   1.0000   1.0000   1.0000   1.0000   1.0000   1.0000   1.0000
    -0.0000  -0.0000  -0.0000  -0.0000  -0.0000

          k = 0.9983 0.6869 0.0542 ( 12165 PWs)   bands (ev):

   -49.8566 -26.2950 -25.9194 -25.7486 -11.1032  -8.8828  -8.6767  -0.3056
     0.6791   0.9482   1.6073   1.9515   2.1070   2.6188   3.3261   3.9194
     8.4772   8.8824   9.1055   9.7734  11.3100

     occupation numbers 
     1.0000   1.0000   1.0000   1.0000   1.0000   1.0000   1.0000   1.0000
     1.0000   1.0000   1.0000   1.0000   1.0000   1.0000   1.0000   1.0000
    -0.0000  -0.0000  -0.0000  -0.0000  -0.0000

          k =-0.7986-0.8586 0.0542 ( 12168 PWs)   bands (ev):

   -49.8577 -26.3136 -25.8987 -25.7516 -10.9600  -8.8788  -8.7275  -0.6395
     0.6994   1.1609   1.4947   1.8289   2.2983   2.4366   3.3825   3.8446
     8.1141   9.1842   9.3711   9.5894  11.3224

     occupation numbers 
     1.0000   1.0000   1.0000   1.0000   1.0000   1.0000   1.0000   1.0000
     1.0000   1.0000   1.0000   1.0000   1.0000   1.0000   1.0000   1.0000
    -0.0000  -0.0000  -0.0000  -0.0000  -0.0000

          k =-0.5990-0.6869 0.0542 ( 12172 PWs)   bands (ev):

   -49.8616 -26.3020 -25.8469 -25.7618 -11.1388  -8.9253  -8.8589  -0.3333
     1.1473   1.4038   1.7368   1.7606   1.9254   2.7251   3.6346   3.8389
     7.3078   9.0308   9.1602   9.3175  11.4362

     occupation numbers 
     1.0000   1.0000   1.0000   1.0000   1.0000   1.0000   1.0000   1.0000
     1.0000   1.0000   1.0000   1.0000   1.0000   1.0000   1.0000   1.0000
    -0.0000  -0.0000  -0.0000  -0.0000  -0.0000

          k =-0.3993-0.5152 0.0542 ( 12158 PWs)   bands (ev):

   -49.8669 -26.2636 -25.7829 -25.7752 -11.5476  -9.1731  -8.8365   0.4981
     1.2755   1.4212   1.9099   2.0534   2.6100   3.1586   3.7657   3.8728
     6.5080   8.5872   8.6219   8.9994  11.1456

     occupation numbers 
     1.0000   1.0000   1.0000   1.0000   1.0000   1.0000   1.0000   1.0000
     1.0000   1.0000   1.0000   1.0000   1.0000   1.0000   1.0000   1.0000
     1.0226  -0.0000  -0.0000  -0.0000  -0.0000

          k =-0.1997-0.3435 0.0542 ( 12131 PWs)   bands (ev):

   -49.8716 -26.2120 -25.7868 -25.7310 -11.9985  -9.3787  -8.8190   0.8491
     1.6095   1.6798   2.3603   2.7932   3.3755   3.5436   3.8022   3.9116
     5.8699   8.0184   8.0339   8.7528  10.2966

     occupation numbers 
     1.0000   1.0000   1.0000   1.0000   1.0000   1.0000   1.0000   1.0000
     1.0000   1.0000   1.0000   1.0000   1.0000   1.0000   1.0000   1.0000
     1.0000  -0.0000  -0.0000  -0.0000  -0.0000

          k = 0.0000-0.1717 0.0542 ( 12115 PWs)   bands (ev):

   -49.8738 -26.1672 -25.7922 -25.7118 -12.3253  -9.4766  -8.8116   0.6755
     2.1939   2.5065   2.5755   3.2932   3.3166   3.8282   3.9971   4.2075
     5.5452   7.4607   7.5234   8.6869   9.5938

     occupation numbers 
     1.0000   1.0000   1.0000   1.0000   1.0000   1.0000   1.0000   1.0000
     1.0000   1.0000   1.0000   1.0000   1.0000   1.0000   1.0000   1.0000
     1.0000  -0.0000  -0.0000  -0.0000  -0.0000

          k = 0.3993 0.0000 0.1083 ( 12140 PWs)   bands (ev):

   -49.8691 -26.1433 -25.7872 -25.7796 -12.4004  -9.2822  -8.8351   1.0642
     2.0621   2.4189   2.6475   2.9786   3.1877   3.5180   3.8266   3.9872
     6.4255   6.9824   7.1606   8.9393  10.0071

     occupation numbers 
     1.0000   1.0000   1.0000   1.0000   1.0000   1.0000   1.0000   1.0000
     1.0000   1.0000   1.0000   1.0000   1.0000   1.0000   1.0000   1.0000
     1.0284  -0.0100  -0.0001  -0.0000  -0.0000

          k = 0.5990 0.1717 0.1083 ( 12167 PWs)   bands (ev):

   -49.8643 -26.1558 -25.8526 -25.7672 -12.2497  -9.0721  -8.8491   1.3255
     1.6853   1.8959   2.2334   2.6538   2.9535   3.1334   3.8205   3.9993
     7.0128   7.1834   7.2759   9.3892  10.3850

     occupation numbers 
     1.0000   1.0000   1.0000   1.0000   1.0000   1.0000   1.0000   1.0000
     1.0000   1.0000   1.0000   1.0000   1.0000   1.0000   1.0000   1.0000
    -0.0054  -0.0000  -0.0000  -0.0000  -0.0000

          k = 0.7986 0.3435 0.1083 ( 12170 PWs)   bands (ev):

   -49.8599 -26.1972 -25.9035 -25.7559 -11.9074  -8.9047  -8.8170   1.0298
     1.4274   1.6270   1.7868   1.9604   2.4976   2.7788   3.7560   4.0989
     7.4690   7.7097   8.0852   9.7394  10.8131

     occupation numbers 
     1.0000   1.0000   1.0000   1.0000   1.0000   1.0000   1.0000   1.0000
     1.0000   1.0000   1.0000   1.0000   1.0000   1.0000   1.0000   1.0000
    -0.0000  -0.0000  -0.0000  -0.0000  -0.0000

          k = 0.9983 0.5152 0.1083 ( 12171 PWs)   bands (ev):

   -49.8574 -26.2509 -25.9212 -25.7502 -11.4768  -8.9033  -8.6995   0.5499
     0.8674   1.0057   1.4827   1.9722   2.4597   2.7008   3.4657   4.0096
     8.1980   8.4787   8.4907   9.7618  11.0644

     occupation numbers 
     1.0000   1.0000   1.0000   1.0000   1.0000   1.0000   1.0000   1.0000
     1.0000   1.0000   1.0000   1.0000   1.0000   1.0000   1.0000   1.0000
    -0.0000  -0.0000  -0.0000  -0.0000  -0.0000

          k = 1.1980 0.6869 0.1083 ( 12179 PWs)   bands (ev):

   -49.8580 -26.2970 -25.8994 -25.7523 -11.1130  -8.9040  -8.7172  -0.3135
     0.7842   1.1024   1.3859   1.9050   2.4473   2.5737   3.4197   3.8252
     8.1300   8.9192   9.1368   9.5296  11.1996

     occupation numbers 
     1.0000   1.0000   1.0000   1.0000   1.0000   1.0000   1.0000   1.0000
     1.0000   1.0000   1.0000   1.0000   1.0000   1.0000   1.0000   1.0000
    -0.0000  -0.0000  -0.0000  -0.0000  -0.0000

          k =-0.5990-0.8586 0.1083 ( 12174 PWs)   bands (ev):

   -49.8613 -26.3188 -25.8462 -25.7611 -10.9849  -8.8896  -8.8780  -0.6576
     1.0055   1.2855   1.6875   1.7081   2.1120   2.8018   3.6108   3.6935
     7.3498   9.1386   9.3367   9.4437  11.4214

     occupation numbers 
     1.0000   1.0000   1.0000   1.0000   1.0000   1.0000   1.0000   1.0000
     1.0000   1.0000   1.0000   1.0000   1.0000   1.0000   1.0000   1.0000
    -0.0000  -0.0000  -0.0000  -0.0000  -0.0000

          k =-0.3993-0.6869 0.1083 ( 12185 PWs)   bands (ev):

   -49.8661 -26.3082 -25.7812 -25.7735 -11.1701  -9.1062  -8.8655  -0.3572
     1.1121   1.4229   1.6204   1.9877   2.5796   3.1216   3.5869   3.8327
     6.5662   8.8747   9.2093   9.2933  11.3507

     occupation numbers 
     1.0000   1.0000   1.0000   1.0000   1.0000   1.0000   1.0000   1.0000
     1.0000   1.0000   1.0000   1.0000   1.0000   1.0000   1.0000   1.0000
     0.9290  -0.0000  -0.0000  -0.0000  -0.0000

          k =-0.1997-0.5152 0.1083 ( 12132 PWs)   bands (ev):

   -49.8705 -26.2684 -25.7847 -25.7291 -11.5743  -9.3092  -8.8429   0.4740
     0.9575   1.2747   2.3019   2.4401   3.1108   3.5159   3.6411   3.9277
     5.9251   8.6759   8.7691   8.8254  10.7172

     occupation numbers 
     1.0000   1.0000   1.0000   1.0000   1.0000   1.0000   1.0000   1.0000
     1.0000   1.0000   1.0000   1.0000   1.0000   1.0000   1.0000   1.0000
     1.0000  -0.0000  -0.0000  -0.0000  -0.0000

          k = 0.0000-0.3435 0.1083 ( 12124 PWs)   bands (ev):

   -49.8730 -26.2137 -25.7905 -25.7103 -12.0091  -9.4222  -8.8294   0.7633
     1.5913   1.6503   2.5459   3.0250   3.2852   3.5849   3.9162   4.0831
     5.5859   8.0529   8.1204   8.7375  10.0708

     occupation numbers 
     1.0000   1.0000   1.0000   1.0000   1.0000   1.0000   1.0000   1.0000
     1.0000   1.0000   1.0000   1.0000   1.0000   1.0000   1.0000   1.0000
     1.0000  -0.0000  -0.0000  -0.0000  -0.0000

          k = 0.1997-0.1717 0.1083 ( 12128 PWs)   bands (ev):

   -49.8724 -26.1655 -25.7885 -25.7326 -12.3142  -9.4126  -8.8272   0.8193
     2.2357   2.3517   2.5869   3.1138   3.2436   3.6640   3.9128   4.0596
     5.8396   7.3857   7.4927   8.7251   9.8930

     occupation numbers 
     1.0000   1.0000   1.0000   1.0000   1.0000   1.0000   1.0000   1.0000
     1.0000   1.0000   1.0000   1.0000   1.0000   1.0000   1.0000   1.0000
     1.0000  -0.0000  -0.0000  -0.0000  -0.0000

          k = 0.5990 0.0000 0.1625 ( 12144 PWs)   bands (ev):

   -49.8647 -26.1381 -25.8532 -25.7678 -12.3644  -9.0872  -8.8493   1.2694
     1.6054   1.9594   2.3370   3.0560   3.3853   3.4658   3.7133   3.7908
     6.8424   6.9420   7.2261   9.3267  10.0471

     occupation numbers 
     1.0000   1.0000   1.0000   1.0000   1.0000   1.0000   1.0000   1.0000
     1.0000   1.0000   1.0000   1.0000   1.0000   1.0000   1.0000   1.0000
    -0.0310  -0.0194  -0.0000  -0.0000  -0.0000

          k = 0.7986 0.1717 0.1625 ( 12183 PWs)   bands (ev):

   -49.8607 -26.1515 -25.9054 -25.7576 -12.2208  -8.9443  -8.8188   0.9611
     1.4237   1.8721   2.0026   2.7870   2.9262   3.3120   3.8001   3.9432
     6.9420   7.0031   8.0470   9.6923  10.2337

     occupation numbers 
     1.0000   1.0000   1.0000   1.0000   1.0000   1.0000   1.0000   1.0000
     1.0000   1.0000   1.0000   1.0000   1.0000   1.0000   1.0000   1.0000
    -0.0194  -0.0067  -0.0000  -0.0000  -0.0000

          k = 0.9983 0.3435 0.1625 ( 12171 PWs)   bands (ev):

   -49.8585 -26.1955 -25.9235 -25.7523 -11.8966  -8.9284  -8.7271   0.7627
     1.3459   1.4698   1.7604   1.9703   2.7345   3.0225   3.6665   4.0341
     7.4544   7.6643   8.4649   9.7396  10.6488

     occupation numbers 
     1.0000   1.0000   1.0000   1.0000   1.0000   1.0000   1.0000   1.0000
     1.0000   1.0000   1.0000   1.0000   1.0000   1.0000   1.0000   1.0000
    -0.0000  -0.0000  -0.0000  -0.0000  -0.0000

          k = 1.1980 0.5152 0.1625 ( 12179 PWs)   bands (ev):

   -49.8588 -26.2528 -25.9013 -25.7539 -11.4871  -8.9352  -8.7282   0.5455
     0.9989   1.1063   1.3254   2.0320   2.6050   2.7247   3.5577   3.9048
     8.1164   8.2726   8.5129   9.5020  10.9769

     occupation numbers 
     1.0000   1.0000   1.0000   1.0000   1.0000   1.0000   1.0000   1.0000
     1.0000   1.0000   1.0000   1.0000   1.0000   1.0000   1.0000   1.0000
    -0.0000  -0.0000  -0.0000  -0.0000  -0.0000

          k = 1.3976 0.6869 0.1625 ( 12174 PWs)   bands (ev):

   -49.8616 -26.3020 -25.8469 -25.7618 -11.1385  -8.9345  -8.8482  -0.3338
     1.0727   1.2931   1.6175   1.7105   2.2977   2.8702   3.6278   3.7106
     7.3634   8.9650   9.1954   9.2243  11.3274

     occupation numbers 
     1.0000   1.0000   1.0000   1.0000   1.0000   1.0000   1.0000   1.0000
     1.0000   1.0000   1.0000   1.0000   1.0000   1.0000   1.0000   1.0000
    -0.0000  -0.0000  -0.0000  -0.0000  -0.0000

          k =-0.3993-0.8586 0.1625 ( 12181 PWs)   bands (ev):

   -49.8658 -26.3251 -25.7806 -25.7729 -11.0151  -9.0548  -8.9041  -0.6799
     1.0214   1.3707   1.6961   1.8853   2.5927   3.0566   3.5010   3.8510
     6.6023   8.8550   9.4537   9.5076  11.4133

     occupation numbers 
     1.0000   1.0000   1.0000   1.0000   1.0000   1.0000   1.0000   1.0000
     1.0000   1.0000   1.0000   1.0000   1.0000   1.0000   1.0000   1.0000
     0.8100  -0.0000  -0.0000  -0.0000  -0.0000

          k =-0.1997-0.6869 0.1625 ( 12157 PWs)   bands (ev):

   -49.8697 -26.3133 -25.7830 -25.7276 -11.1951  -9.2368  -8.8817  -0.3763
     0.8563   1.2554   2.0321   2.3342   2.8927   3.4650   3.5379   3.9540
     5.9717   8.7952   9.3068   9.3674  11.0037

     occupation numbers 
     1.0000   1.0000   1.0000   1.0000   1.0000   1.0000   1.0000   1.0000
     1.0000   1.0000   1.0000   1.0000   1.0000   1.0000   1.0000   1.0000
     1.0000  -0.0000  -0.0000  -0.0000  -0.0000

          k =-0.0000-0.5152 0.1625 ( 12150 PWs)   bands (ev):

   -49.8719 -26.2702 -25.7883 -25.7084 -11.5843  -9.3468  -8.8610   0.4624
     0.8630   1.2679   2.5962   2.7015   2.7639   3.5326   3.9600   3.9948
     5.6327   8.7285   8.7975   8.8633  10.5276

     occupation numbers 
     1.0000   1.0000   1.0000   1.0000   1.0000   1.0000   1.0000   1.0000
     1.0000   1.0000   1.0000   1.0000   1.0000   1.0000   1.0000   1.0000
     1.0000  -0.0000  -0.0000  -0.0000  -0.0000

          k = 0.1997-0.3435 0.1625 ( 12136 PWs)   bands (ev):

   -49.8716 -26.2120 -25.7868 -25.7310 -11.9982  -9.3540  -8.8489   0.9155
     1.6029   1.7341   2.3497   2.7893   3.1598   3.5576   3.7240   4.0410
     5.8887   8.0268   8.0344   8.7542  10.3896

     occupation numbers 
     1.0000   1.0000   1.0000   1.0000   1.0000   1.0000   1.0000   1.0000
     1.0000   1.0000   1.0000   1.0000   1.0000   1.0000   1.0000   1.0000
     1.0000  -0.0000  -0.0000  -0.0000  -0.0000

          k = 0.3993-0.1717 0.1625 ( 12150 PWs)   bands (ev):

   -49.8688 -26.1612 -25.7865 -25.7790 -12.2852  -9.2565  -8.8464   1.1074
     2.0630   2.2417   2.4985   2.6207   3.1099   3.2885   3.8514   4.0517
     6.4514   7.2165   7.3832   8.9025  10.2837

     occupation numbers 
     1.0000   1.0000   1.0000   1.0000   1.0000   1.0000   1.0000   1.0000
     1.0000   1.0000   1.0000   1.0000   1.0000   1.0000   1.0000   1.0000
     1.0341  -0.0000  -0.0000  -0.0000  -0.0000

          k = 0.7986 0.0000 0.2166 ( 12180 PWs)   bands (ev):

   -49.8610 -26.1338 -25.9061 -25.7582 -12.3354  -8.9711  -8.8066   0.9130
     1.3391   2.0090   2.0545   3.1686   3.4369   3.5103   3.7071   3.8131
     6.6897   6.7513   8.0453   9.5836   9.9397

     occupation numbers 
     1.0000   1.0000   1.0000   1.0000   1.0000   1.0000   1.0000   1.0000
     1.0000   1.0000   1.0000   1.0000   1.0000   1.0000   1.0000   1.0000
     0.3860   0.1227  -0.0000  -0.0000  -0.0000

          k = 0.9983 0.1717 0.2166 ( 12176 PWs)   bands (ev):

   -49.8593 -26.1498 -25.9254 -25.7539 -12.2098  -8.9484  -8.7491   0.7073
     1.3402   1.8384   1.9511   2.8559   2.9827   3.4792   3.8518   3.8571
     6.8854   6.9308   8.4476   9.6523  10.1837

     occupation numbers 
     1.0000   1.0000   1.0000   1.0000   1.0000   1.0000   1.0000   1.0000
     1.0000   1.0000   1.0000   1.0000   1.0000   1.0000   1.0000   1.0000
    -0.0339  -0.0225  -0.0000  -0.0000  -0.0000

          k = 1.1980 0.3435 0.2166 ( 12170 PWs)   bands (ev):

   -49.8599 -26.1972 -25.9035 -25.7559 -11.9072  -8.9628  -8.7536   0.9292
     1.2796   1.4782   1.7716   2.1209   2.7488   2.9908   3.7353   3.9967
     7.4937   7.7095   8.1080   9.5161  10.6107

     occupation numbers 
     1.0000   1.0000   1.0000   1.0000   1.0000   1.0000   1.0000   1.0000
     1.0000   1.0000   1.0000   1.0000   1.0000   1.0000   1.0000   1.0000
    -0.0000  -0.0000  -0.0000  -0.0000  -0.0000

          k = 1.3976 0.5152 0.2166 ( 12163 PWs)   bands (ev):

   -49.8625 -26.2576 -25.8486 -25.7635 -11.5139  -8.9886  -8.8357   0.5222
     1.3093   1.3427   1.5736   1.8557   2.4266   2.9262   3.6732   3.8983
     7.3418   8.3855   8.5865   9.1599  11.1304

     occupation numbers 
     1.0000   1.0000   1.0000   1.0000   1.0000   1.0000   1.0000   1.0000
     1.0000   1.0000   1.0000   1.0000   1.0000   1.0000   1.0000   1.0000
    -0.0000  -0.0000  -0.0000  -0.0000  -0.0000

          k = 1.5973 0.6869 0.2166 ( 12180 PWs)   bands (ev):

   -49.8661 -26.3082 -25.7812 -25.7735 -11.1698  -9.0635  -8.9108  -0.3580
     1.0955   1.4540   1.6705   1.9555   2.5827   3.0795   3.4908   3.9304
     6.6039   8.8238   9.2360   9.2673  11.3517

     occupation numbers 
     1.0000   1.0000   1.0000   1.0000   1.0000   1.0000   1.0000   1.0000
     1.0000   1.0000   1.0000   1.0000   1.0000   1.0000   1.0000   1.0000
     0.8037  -0.0000  -0.0000  -0.0000  -0.0000

          k =-0.1997-0.8586 0.2166 ( 12166 PWs)   bands (ev):

   -49.8694 -26.3302 -25.7824 -25.7270 -11.0392  -9.1914  -8.9166  -0.6979
     0.7763   1.4000   1.8545   2.2589   2.8215   3.4288   3.5068   3.9718
     5.9942   8.8120   9.5338   9.5930  11.1235

     occupation numbers 
     1.0000   1.0000   1.0000   1.0000   1.0000   1.0000   1.0000   1.0000
     1.0000   1.0000   1.0000   1.0000   1.0000   1.0000   1.0000   1.0000
     1.0000  -0.0000  -0.0000  -0.0000  -0.0000

          k = 0.0000-0.6869 0.2166 ( 12148 PWs)   bands (ev):

   -49.8711 -26.3152 -25.7866 -25.7069 -11.2045  -9.2748  -8.9005  -0.3838
     0.7536   1.2601   2.3263   2.4671   2.6418   3.4634   3.9409   3.9734
     5.6708   8.8508   9.3046   9.4387  10.8403

     occupation numbers 
     1.0000   1.0000   1.0000   1.0000   1.0000   1.0000   1.0000   1.0000
     1.0000   1.0000   1.0000   1.0000   1.0000   1.0000   1.0000   1.0000
     1.0000  -0.0000  -0.0000  -0.0000  -0.0000

          k = 0.1997-0.5152 0.2166 ( 12155 PWs)   bands (ev):

   -49.8705 -26.2684 -25.7847 -25.7291 -11.5739  -9.2772  -8.8803   0.4703
     0.9946   1.4058   2.1841   2.4759   2.9427   3.5241   3.5688   4.0345
     5.9440   8.7118   8.7537   8.8133  10.8140

     occupation numbers 
     1.0000   1.0000   1.0000   1.0000   1.0000   1.0000   1.0000   1.0000
     1.0000   1.0000   1.0000   1.0000   1.0000   1.0000   1.0000   1.0000
     1.0000  -0.0000  -0.0000  -0.0000  -0.0000

          k = 0.3993-0.3435 0.2166 ( 12158 PWs)   bands (ev):

   -49.8680 -26.2074 -25.7849 -25.7773 -11.9700  -9.2011  -8.8619   1.1779
     1.6137   1.9051   2.0246   2.3367   2.6370   3.2665   3.7223   4.1076
     6.5075   7.8346   7.9510   8.8806  10.7835

     occupation numbers 
     1.0000   1.0000   1.0000   1.0000   1.0000   1.0000   1.0000   1.0000
     1.0000   1.0000   1.0000   1.0000   1.0000   1.0000   1.0000   1.0000
     1.0230  -0.0000  -0.0000  -0.0000  -0.0000

          k = 0.5990-0.1717 0.2166 ( 12169 PWs)   bands (ev):

   -49.8643 -26.1558 -25.8526 -25.7672 -12.2495  -9.0753  -8.8443   1.2568
     1.5453   1.9266   2.3078   2.6843   3.0210   3.2124   3.8034   4.0159
     7.0148   7.1798   7.2913   9.2503  10.2965

     occupation numbers 
     1.0000   1.0000   1.0000   1.0000   1.0000   1.0000   1.0000   1.0000
     1.0000   1.0000   1.0000   1.0000   1.0000   1.0000   1.0000   1.0000
    -0.0052  -0.0000  -0.0000  -0.0000  -0.0000

          k =-0.9983 0.0000-0.2708 ( 12202 PWs)   bands (ev):

   -49.8596 -26.1322 -25.9261 -25.7545 -12.3243  -8.9561  -8.7575   0.6853
     1.3280   1.9175   2.0335   3.3102   3.3382   3.4763   3.7580   3.9316
     6.5683   6.7211   8.4387   9.5260  10.0173

     occupation numbers 
     1.0000   1.0000   1.0000   1.0000   1.0000   1.0000   1.0000   1.0000
     1.0000   1.0000   1.0000   1.0000   1.0000   1.0000   1.0000   1.0000
     0.9233   0.2382  -0.0000  -0.0000  -0.0000

          k =-0.7986 0.1717-0.2708 ( 12180 PWs)   bands (ev):

   -49.8607 -26.1515 -25.9054 -25.7576 -12.2207  -8.9770  -8.7829   0.9034
     1.2904   1.8726   2.1106   2.7966   3.0032   3.3958   3.7762   3.9611
     6.9259   6.9961   8.0725   9.5492  10.1474

     occupation numbers 
     1.0000   1.0000   1.0000   1.0000   1.0000   1.0000   1.0000   1.0000
     1.0000   1.0000   1.0000   1.0000   1.0000   1.0000   1.0000   1.0000
    -0.0239  -0.0077  -0.0000  -0.0000  -0.0000

          k =-0.5990 0.3435-0.2708 ( 12163 PWs)   bands (ev):

   -49.8635 -26.2018 -25.8508 -25.7655 -11.9353  -9.0394  -8.8372   1.2755
     1.4557   1.6382   1.8467   2.1256   2.5749   3.0013   3.7801   4.0605
     7.2774   7.6519   7.8265   9.1872  10.7789

     occupation numbers 
     1.0000   1.0000   1.0000   1.0000   1.0000   1.0000   1.0000   1.0000
     1.0000   1.0000   1.0000   1.0000   1.0000   1.0000   1.0000   1.0000
    -0.0000  -0.0000  -0.0000  -0.0000  -0.0000

          k =-0.3993 0.5152-0.2708 ( 12180 PWs)   bands (ev):

   -49.8669 -26.2636 -25.7829 -25.7752 -11.5471  -9.1288  -8.8849   0.4931
     1.2387   1.6189   1.7364   2.1374   2.5346   3.2057   3.5522   4.0399
     6.5684   8.5589   8.6666   8.8939  11.1543

     occupation numbers 
     1.0000   1.0000   1.0000   1.0000   1.0000   1.0000   1.0000   1.0000
     1.0000   1.0000   1.0000   1.0000   1.0000   1.0000   1.0000   1.0000
     0.9232  -0.0000  -0.0000  -0.0000  -0.0000

          k =-0.1997 0.6869-0.2708 ( 12164 PWs)   bands (ev):

   -49.8697 -26.3133 -25.7830 -25.7276 -11.1948  -9.2091  -8.9129  -0.3769
     0.8525   1.4223   1.9057   2.3189   2.8350   3.4404   3.5273   4.0011
     5.9842   8.8074   9.2973   9.3697  11.0636

     occupation numbers 
     1.0000   1.0000   1.0000   1.0000   1.0000   1.0000   1.0000   1.0000
     1.0000   1.0000   1.0000   1.0000   1.0000   1.0000   1.0000   1.0000
     1.0000  -0.0000  -0.0000  -0.0000  -0.0000

          k =-1.9966-0.8586-0.2708 ( 12134 PWs)   bands (ev):

   -49.8708 -26.3322 -25.7860 -25.7063 -11.0483  -9.2423  -8.9216  -0.7047
     0.6796   1.3359   2.1354   2.3846   2.6588   3.4367   3.9220   3.9704
     5.6854   8.8705   9.5345   9.6589  10.9512

     occupation numbers 
     1.0000   1.0000   1.0000   1.0000   1.0000   1.0000   1.0000   1.0000
     1.0000   1.0000   1.0000   1.0000   1.0000   1.0000   1.0000   1.0000
     1.0000  -0.0000  -0.0000  -0.0000  -0.0000

          k = 0.3993 0.3435 0.1083 ( 12146 PWs)   bands (ev):

   -49.8680 -26.2074 -25.7849 -25.7773 -11.9703  -9.2255  -8.8348   1.1513
     1.6333   1.8473   2.0475   2.3899   2.6562   3.2100   3.8178   4.0424
     6.4638   7.8450   7.9360   8.9576  10.7772

     occupation numbers 
     1.0000   1.0000   1.0000   1.0000   1.0000   1.0000   1.0000   1.0000
     1.0000   1.0000   1.0000   1.0000   1.0000   1.0000   1.0000   1.0000
     1.0354  -0.0000  -0.0000  -0.0000  -0.0000

          k = 0.5990 0.5152 0.1083 ( 12157 PWs)   bands (ev):

   -49.8625 -26.2576 -25.8486 -25.7634 -11.5143  -8.9815  -8.8449   0.5256
     1.3963   1.6033   1.6911   1.7675   2.0401   2.7345   3.7299   3.9931
     7.2609   8.4081   8.5730   9.3403  11.3002

     occupation numbers 
     1.0000   1.0000   1.0000   1.0000   1.0000   1.0000   1.0000   1.0000
     1.0000   1.0000   1.0000   1.0000   1.0000   1.0000   1.0000   1.0000
    -0.0000  -0.0000  -0.0000  -0.0000  -0.0000

          k = 0.7986 0.6869 0.1083 ( 12163 PWs)   bands (ev):

   -49.8580 -26.2970 -25.8994 -25.7522 -11.1131  -8.8717  -8.7524  -0.3134
     0.8189   1.1518   1.6946   1.7436   2.2486   2.3781   3.4401   3.9391
     8.0840   8.9225   9.1349   9.6448  11.3538

     occupation numbers 
     1.0000   1.0000   1.0000   1.0000   1.0000   1.0000   1.0000   1.0000
     1.0000   1.0000   1.0000   1.0000   1.0000   1.0000   1.0000   1.0000
    -0.0000  -0.0000  -0.0000  -0.0000  -0.0000

          k = 0.9983 0.8586 0.1083 ( 12158 PWs)   bands (ev):

   -49.8563 -26.3117 -25.9186 -25.7480 -10.9504  -8.8749  -8.6680  -0.6326
     0.5877   0.9524   1.7699   1.8763   1.9378   2.6086   3.2473   3.8961
     8.4859   9.1493   9.3437   9.7645  11.3787

     occupation numbers 
     1.0000   1.0000   1.0000   1.0000   1.0000   1.0000   1.0000   1.0000
     1.0000   1.0000   1.0000   1.0000   1.0000   1.0000   1.0000   1.0000
    -0.0000  -0.0000  -0.0000  -0.0000  -0.0000

          k = 0.0000 0.0000 0.1083 ( 12125 PWs)   bands (ev):

   -49.8742 -26.1492 -25.7928 -25.7124 -12.4406  -9.4816  -8.8249   0.6917
     2.5074   2.7023   2.8451   3.0078   3.4226   3.8589   4.1579   4.2632
     5.5376   7.1786   7.3422   8.7015   9.4213

     occupation numbers 
     1.0000   1.0000   1.0000   1.0000   1.0000   1.0000   1.0000   1.0000
     1.0000   1.0000   1.0000   1.0000   1.0000   1.0000   1.0000   1.0000
     1.0000  -0.0000  -0.0000  -0.0000  -0.0000

          k = 0.5990 0.3435 0.1625 ( 12175 PWs)   bands (ev):

   -49.8635 -26.2018 -25.8508 -25.7655 -11.9355  -9.0357  -8.8426   1.3499
     1.5400   1.7099   1.8839   2.0529   2.3820   2.8852   3.8181   4.0881
     7.2119   7.6814   7.8216   9.3240  10.8917

     occupation numbers 
     1.0000   1.0000   1.0000   1.0000   1.0000   1.0000   1.0000   1.0000
     1.0000   1.0000   1.0000   1.0000   1.0000   1.0000   1.0000   1.0000
    -0.0000  -0.0000  -0.0000  -0.0000  -0.0000

          k = 0.7986 0.5152 0.1625 ( 12175 PWs)   bands (ev):

   -49.8588 -26.2528 -25.9013 -25.7539 -11.4872  -8.8944  -8.7730   0.5469
     1.0943   1.1154   1.6051   1.8924   2.4091   2.4725   3.5790   4.0376
     8.0141   8.3214   8.5081   9.6674  11.1747

     occupation numbers 
     1.0000   1.0000   1.0000   1.0000   1.0000   1.0000   1.0000   1.0000
     1.0000   1.0000   1.0000   1.0000   1.0000   1.0000   1.0000   1.0000
    -0.0000  -0.0000  -0.0000  -0.0000  -0.0000

          k = 0.9983 0.6869 0.1625 ( 12172 PWs)   bands (ev):

   -49.8566 -26.2950 -25.9194 -25.7486 -11.1032  -8.8828  -8.6768  -0.3056
     0.6949   0.9167   1.6596   1.8970   2.1210   2.6427   3.2810   3.9462
     8.4819   8.8809   9.1113   9.7472  11.2985

     occupation numbers 
     1.0000   1.0000   1.0000   1.0000   1.0000   1.0000   1.0000   1.0000
     1.0000   1.0000   1.0000   1.0000   1.0000   1.0000   1.0000   1.0000
    -0.0000  -0.0000  -0.0000  -0.0000  -0.0000

          k = 1.1980 0.8586 0.1625 ( 12169 PWs)   bands (ev):

   -49.8577 -26.3136 -25.8987 -25.7516 -10.9600  -8.8788  -8.7275  -0.6395
     0.7051   1.1347   1.5583   1.7666   2.3073   2.4553   3.3688   3.8500
     8.1153   9.1691   9.3753   9.5951  11.3447

     occupation numbers 
     1.0000   1.0000   1.0000   1.0000   1.0000   1.0000   1.0000   1.0000
     1.0000   1.0000   1.0000   1.0000   1.0000   1.0000   1.0000   1.0000
    -0.0000  -0.0000  -0.0000  -0.0000  -0.0000

          k =-0.5990-0.6869 0.1625 ( 12176 PWs)   bands (ev):

   -49.8616 -26.3020 -25.8469 -25.7618 -11.1388  -8.9277  -8.8561  -0.3334
     1.1195   1.4290   1.6271   1.7197   2.0800   2.7637   3.6307   3.8090
     7.3205   8.9853   9.1815   9.3150  11.4299

     occupation numbers 
     1.0000   1.0000   1.0000   1.0000   1.0000   1.0000   1.0000   1.0000
     1.0000   1.0000   1.0000   1.0000   1.0000   1.0000   1.0000   1.0000
    -0.0000  -0.0000  -0.0000  -0.0000  -0.0000

          k =-0.3993-0.5152 0.1625 ( 12172 PWs)   bands (ev):

   -49.8669 -26.2636 -25.7829 -25.7752 -11.5474  -9.1578  -8.8533   0.4962
     1.2418   1.5124   1.8275   2.1275   2.5418   3.1953   3.6559   3.9641
     6.5305   8.5688   8.6493   8.9547  11.1520

     occupation numbers 
     1.0000   1.0000   1.0000   1.0000   1.0000   1.0000   1.0000   1.0000
     1.0000   1.0000   1.0000   1.0000   1.0000   1.0000   1.0000   1.0000
     0.9994  -0.0000  -0.0000  -0.0000  -0.0000

          k = 0.0000-0.1717 0.1625 ( 12102 PWs)   bands (ev):

   -49.8738 -26.1672 -25.7922 -25.7118 -12.3250  -9.4480  -8.8477   0.7713
     2.2134   2.5358   2.5721   3.2177   3.3071   3.6590   4.0435   4.1590
     5.5586   7.4605   7.5449   8.7480   9.7140

     occupation numbers 
     1.0000   1.0000   1.0000   1.0000   1.0000   1.0000   1.0000   1.0000
     1.0000   1.0000   1.0000   1.0000   1.0000   1.0000   1.0000   1.0000
     1.0000  -0.0000  -0.0000  -0.0000  -0.0000

          k = 0.1997 0.0000 0.1625 ( 12126 PWs)   bands (ev):

   -49.8728 -26.1475 -25.7892 -25.7331 -12.4293  -9.4119  -8.8471   0.8507
     2.3564   2.6389   2.8622   3.0936   3.1940   3.7447   3.9998   4.0828
     5.8467   7.1099   7.3193   8.7147   9.7115

     occupation numbers 
     1.0000   1.0000   1.0000   1.0000   1.0000   1.0000   1.0000   1.0000
     1.0000   1.0000   1.0000   1.0000   1.0000   1.0000   1.0000   1.0000
     1.0000  -0.0004  -0.0000  -0.0000  -0.0000

          k = 0.7986 0.3435 0.2166 ( 12174 PWs)   bands (ev):

   -49.8599 -26.1972 -25.9035 -25.7559 -11.9073  -8.9368  -8.7825   0.9758
     1.3716   1.5560   1.7745   2.0177   2.6301   2.8746   3.7430   4.0589
     7.4821   7.7092   8.0913   9.6358  10.7280

     occupation numbers 
     1.0000   1.0000   1.0000   1.0000   1.0000   1.0000   1.0000   1.0000
     1.0000   1.0000   1.0000   1.0000   1.0000   1.0000   1.0000   1.0000
    -0.0000  -0.0000  -0.0000  -0.0000  -0.0000

          k = 0.9983 0.5152 0.2166 ( 12175 PWs)   bands (ev):

   -49.8574 -26.2509 -25.9212 -25.7502 -11.4768  -8.9033  -8.6995   0.5493
     0.8627   0.9968   1.5525   1.8911   2.4466   2.7601   3.4303   4.0248
     8.2131   8.4766   8.4831   9.7379  11.0741

     occupation numbers 
     1.0000   1.0000   1.0000   1.0000   1.0000   1.0000   1.0000   1.0000
     1.0000   1.0000   1.0000   1.0000   1.0000   1.0000   1.0000   1.0000
    -0.0000  -0.0000  -0.0000  -0.0000  -0.0000

          k = 1.1980 0.6869 0.2166 ( 12177 PWs)   bands (ev):

   -49.8580 -26.2970 -25.8994 -25.7522 -11.1130  -8.8954  -8.7266  -0.3135
     0.8020   1.0920   1.4885   1.8433   2.3912   2.5366   3.4125   3.8684
     8.1176   8.9095   9.1377   9.5683  11.2631

     occupation numbers 
     1.0000   1.0000   1.0000   1.0000   1.0000   1.0000   1.0000   1.0000
     1.0000   1.0000   1.0000   1.0000   1.0000   1.0000   1.0000   1.0000
    -0.0000  -0.0000  -0.0000  -0.0000  -0.0000

          k = 1.3976 0.8586 0.2166 ( 12177 PWs)   bands (ev):

   -49.8613 -26.3188 -25.8462 -25.7611 -10.9849  -8.8896  -8.8780  -0.6576
     0.9963   1.3302   1.6389   1.6847   2.1549   2.7994   3.6302   3.6696
     7.3495   9.0991   9.3868   9.4370  11.4510

     occupation numbers 
     1.0000   1.0000   1.0000   1.0000   1.0000   1.0000   1.0000   1.0000
     1.0000   1.0000   1.0000   1.0000   1.0000   1.0000   1.0000   1.0000
    -0.0000  -0.0000  -0.0000  -0.0000  -0.0000

          k =-0.3993-0.6869 0.2166 ( 12179 PWs)   bands (ev):

   -49.8661 -26.3082 -25.7812 -25.7735 -11.1700  -9.0894  -8.8834  -0.3575
     1.0915   1.4813   1.6071   1.9866   2.5660   3.1002   3.5491   3.8804
     6.5830   8.8509   9.2299   9.2727  11.3517

     occupation numbers 
     1.0000   1.0000   1.0000   1.0000   1.0000   1.0000   1.0000   1.0000
     1.0000   1.0000   1.0000   1.0000   1.0000   1.0000   1.0000   1.0000
     0.8796  -0.0000  -0.0000  -0.0000  -0.0000

          k =-0.0000-0.3435 0.2166 ( 12157 PWs)   bands (ev):

   -49.8730 -26.2137 -25.7905 -25.7103 -12.0086  -9.3822  -8.8784   0.8785
     1.5915   1.7240   2.5824   2.9724   3.0205   3.4770   4.0184   4.0801
     5.5955   8.0524   8.1196   8.8093  10.2374

     occupation numbers 
     1.0000   1.0000   1.0000   1.0000   1.0000   1.0000   1.0000   1.0000
     1.0000   1.0000   1.0000   1.0000   1.0000   1.0000   1.0000   1.0000
     1.0000  -0.0000  -0.0000  -0.0000  -0.0000

          k = 0.1997-0.1717 0.2166 ( 12136 PWs)   bands (ev):

   -49.8724 -26.1655 -25.7886 -25.7326 -12.3137  -9.3743  -8.8736   0.9398
     2.2435   2.3604   2.5896   3.0361   3.1912   3.5694   3.8895   4.0613
     5.8756   7.3793   7.5236   8.7366  10.0099

     occupation numbers 
     1.0000   1.0000   1.0000   1.0000   1.0000   1.0000   1.0000   1.0000
     1.0000   1.0000   1.0000   1.0000   1.0000   1.0000   1.0000   1.0000
     1.0000  -0.0000  -0.0000  -0.0000  -0.0000

          k = 0.3993 0.0000 0.2166 ( 12146 PWs)   bands (ev):

   -49.8691 -26.1433 -25.7872 -25.7797 -12.4001  -9.2570  -8.8634   1.1127
     2.0788   2.2637   2.6825   2.9245   3.2866   3.5386   3.8685   3.9405
     6.4762   6.9502   7.1867   8.8388  10.0038

     occupation numbers 
     1.0000   1.0000   1.0000   1.0000   1.0000   1.0000   1.0000   1.0000
     1.0000   1.0000   1.0000   1.0000   1.0000   1.0000   1.0000   1.0000
     1.0350  -0.0172  -0.0000  -0.0000  -0.0000

          k = 0.9983 0.3435 0.2708 ( 12160 PWs)   bands (ev):

   -49.8585 -26.1955 -25.9235 -25.7523 -11.8966  -8.9284  -8.7271   0.7520
     1.3486   1.5284   1.7535   1.9090   2.7292   3.0578   3.6516   4.0367
     7.4590   7.6649   8.4614   9.7196  10.6705

     occupation numbers 
     1.0000   1.0000   1.0000   1.0000   1.0000   1.0000   1.0000   1.0000
     1.0000   1.0000   1.0000   1.0000   1.0000   1.0000   1.0000   1.0000
    -0.0000  -0.0000  -0.0000  -0.0000  -0.0000

          k = 1.1980 0.5152 0.2708 ( 12171 PWs)   bands (ev):

   -49.8588 -26.2528 -25.9013 -25.7539 -11.4872  -8.9175  -8.7479   0.5461
     1.0409   1.1075   1.4571   1.9615   2.5016   2.6212   3.5621   3.9779
     8.0659   8.2931   8.5103   9.5842  11.0806

     occupation numbers 
     1.0000   1.0000   1.0000   1.0000   1.0000   1.0000   1.0000   1.0000
     1.0000   1.0000   1.0000   1.0000   1.0000   1.0000   1.0000   1.0000
    -0.0000  -0.0000  -0.0000  -0.0000  -0.0000

          k = 1.3976 0.6869 0.2708 ( 12176 PWs)   bands (ev):

   -49.8616 -26.3020 -25.8469 -25.7618 -11.1386  -8.9313  -8.8520  -0.3336
     1.0903   1.3773   1.6375   1.6646   2.2124   2.8192   3.6274   3.7601
     7.3416   8.9542   9.1954   9.2856  11.3934

     occupation numbers 
     1.0000   1.0000   1.0000   1.0000   1.0000   1.0000   1.0000   1.0000
     1.0000   1.0000   1.0000   1.0000   1.0000   1.0000   1.0000   1.0000
    -0.0000  -0.0000  -0.0000  -0.0000  -0.0000

          k = 1.5973 0.8586 0.2708 ( 12178 PWs)   bands (ev):

   -49.8658 -26.3251 -25.7806 -25.7729 -11.0151  -9.0548  -8.9041  -0.6799
     1.0112   1.3906   1.6964   1.8761   2.5996   3.0303   3.5255   3.8454
     6.6026   8.8536   9.4622   9.4992  11.4128

     occupation numbers 
     1.0000   1.0000   1.0000   1.0000   1.0000   1.0000   1.0000   1.0000
     1.0000   1.0000   1.0000   1.0000   1.0000   1.0000   1.0000   1.0000
     0.8089  -0.0000  -0.0000  -0.0000  -0.0000

          k = 0.0000-0.5152 0.2708 ( 12146 PWs)   bands (ev):

   -49.8719 -26.2702 -25.7884 -25.7084 -11.5838  -9.3017  -8.9141   0.4579
     0.9421   1.4150   2.4749   2.6283   2.7017   3.4071   3.9352   4.1099
     5.6412   8.7169   8.8450   8.8764  10.6826

     occupation numbers 
     1.0000   1.0000   1.0000   1.0000   1.0000   1.0000   1.0000   1.0000
     1.0000   1.0000   1.0000   1.0000   1.0000   1.0000   1.0000   1.0000
     1.0000  -0.0000  -0.0000  -0.0000  -0.0000

          k = 0.1997-0.3435 0.2708 ( 12151 PWs)   bands (ev):

   -49.8716 -26.2120 -25.7869 -25.7310 -11.9976  -9.3065  -8.9047   1.0391
     1.6050   1.8207   2.2871   2.7806   2.9769   3.4704   3.6488   4.1618
     5.9192   8.0332   8.0355   8.7787  10.5234

     occupation numbers 
     1.0000   1.0000   1.0000   1.0000   1.0000   1.0000   1.0000   1.0000
     1.0000   1.0000   1.0000   1.0000   1.0000   1.0000   1.0000   1.0000
     1.0000  -0.0000  -0.0000  -0.0000  -0.0000

          k = 0.3993-0.1717 0.2708 ( 12145 PWs)   bands (ev):

   -49.8688 -26.1612 -25.7865 -25.7790 -12.2848  -9.2246  -8.8818   1.1687
     1.9885   2.2263   2.4594   2.6307   3.1424   3.3295   3.8211   4.0651
     6.5126   7.1935   7.4026   8.8034  10.2717

     occupation numbers 
[...]

   -49.8738 -26.1672 -25.7923 -25.7118 -12.3237  -9.3161  -9.0034   1.1892
     2.2421   2.5471   2.6488   2.7557   3.2600   3.4977   3.9919   4.0045
     5.5848   7.4602   7.6265   8.9448  10.0680

     occupation numbers 
     1.0000   1.0000   1.0000   1.0000   1.0000   1.0000   1.0000   1.0000
     1.0000   1.0000   1.0000   1.0000   1.0000   1.0000   1.0000   1.0000
     1.0000  -0.0000  -0.0000  -0.0000  -0.0000

          k = 0.1997 0.0000 0.3791 ( 12139 PWs)   bands (ev):

   -49.8728 -26.1475 -25.7893 -25.7331 -12.4282  -9.2928  -8.9858   1.2387
     2.1396   2.6331   2.7929   3.0645   3.3219   3.5786   3.8712   3.9040
     5.9245   7.0919   7.4159   8.7941   9.8925

     occupation numbers 
     1.0000   1.0000   1.0000   1.0000   1.0000   1.0000   1.0000   1.0000
     1.0000   1.0000   1.0000   1.0000   1.0000   1.0000   1.0000   1.0000
     1.0000  -0.0007  -0.0000  -0.0000  -0.0000

          k =-1.9966-0.3435-0.1083 ( 12184 PWs)   bands (ev):

   -49.8730 -26.2137 -25.7905 -25.7103 -12.0075  -9.2367  -9.0436   1.2140
     1.6542   1.9014   2.3618   2.6804   3.0031   3.1685   3.8677   4.2736
     5.6160   8.0788   8.1185   8.9687  10.5862

     occupation numbers 
     1.0000   1.0000   1.0000   1.0000   1.0000   1.0000   1.0000   1.0000
     1.0000   1.0000   1.0000   1.0000   1.0000   1.0000   1.0000   1.0000
     1.0000  -0.0000  -0.0000  -0.0000  -0.0000

          k =-1.7969-0.1717-0.1083 ( 12146 PWs)   bands (ev):

   -49.8724 -26.1655 -25.7886 -25.7326 -12.3127  -9.2406  -9.0252   1.3562
     1.9982   2.4554   2.5449   2.9317   3.0944   3.4857   3.7576   4.0289
     5.9412   7.3711   7.5815   8.8284  10.1910

     occupation numbers 
     1.0000   1.0000   1.0000   1.0000   1.0000   1.0000   1.0000   1.0000
     1.0000   1.0000   1.0000   1.0000   1.0000   1.0000   1.0000   1.0000
     1.0000  -0.0000  -0.0000  -0.0000  -0.0000

          k =-1.5973 0.0000-0.1083 ( 12149 PWs)   bands (ev):

   -49.8691 -26.1433 -25.7872 -25.7797 -12.3993  -9.1804  -8.9471   1.3107
     1.7473   2.3123   2.6732   2.8570   3.5142   3.6448   3.7761   3.8633
     6.5989   6.8988   7.2246   8.6812   9.9312

     occupation numbers 
     1.0000   1.0000   1.0000   1.0000   1.0000   1.0000   1.0000   1.0000
     1.0000   1.0000   1.0000   1.0000   1.0000   1.0000   1.0000   1.0000
     0.8230  -0.0312  -0.0000  -0.0000  -0.0000

          k = 0.0000 1.2021-0.0542 ( 12199 PWs)   bands (ev):

   -49.8719 -26.2702 -25.7884 -25.7084 -11.5830  -9.1692  -9.0594   0.4526
     1.2458   1.4274   2.3353   2.6885   2.6996   2.9335   3.8341   4.3479
     5.6509   8.7229   8.8585   8.9606  10.8854

     occupation numbers 
     1.0000   1.0000   1.0000   1.0000   1.0000   1.0000   1.0000   1.0000
     1.0000   1.0000   1.0000   1.0000   1.0000   1.0000   1.0000   1.0000
     1.0000  -0.0000  -0.0000  -0.0000  -0.0000

          k =-1.7969-0.3435-0.0542 ( 12166 PWs)   bands (ev):

   -49.8716 -26.2120 -25.7869 -25.7310 -11.9968  -9.1636  -9.0610   1.3182
     1.7039   1.9017   2.0000   2.7124   2.9583   3.2676   3.5046   4.2878
     5.9675   8.0336   8.0365   8.8609  10.7022

     occupation numbers 
     1.0000   1.0000   1.0000   1.0000   1.0000   1.0000   1.0000   1.0000
     1.0000   1.0000   1.0000   1.0000   1.0000   1.0000   1.0000   1.0000
     1.0000  -0.0000  -0.0000  -0.0000  -0.0000

          k =-1.5973-0.1717-0.0542 ( 12148 PWs)   bands (ev):

   -49.8688 -26.1612 -25.7865 -25.7791 -12.2841  -9.1505  -8.9618   1.3805
     1.6436   2.2765   2.4952   2.6129   3.2871   3.3315   3.6960   4.1007
     6.6187   7.1711   7.4148   8.6875  10.2052

     occupation numbers 
     1.0000   1.0000   1.0000   1.0000   1.0000   1.0000   1.0000   1.0000
     1.0000   1.0000   1.0000   1.0000   1.0000   1.0000   1.0000   1.0000
     0.7407  -0.0001  -0.0000  -0.0000  -0.0000

          k =-1.3976 0.0000-0.0542 ( 12172 PWs)   bands (ev):

   -49.8647 -26.1381 -25.8532 -25.7679 -12.3638  -9.0964  -8.8349   1.1148
     1.2831   2.0538   2.5473   2.9638   3.6139   3.6336   3.7904   3.8737
     6.7327   6.9316   7.3787   8.8685   9.7849

     occupation numbers 
     1.0000   1.0000   1.0000   1.0000   1.0000   1.0000   1.0000   1.0000
     1.0000   1.0000   1.0000   1.0000   1.0000   1.0000   1.0000   1.0000
     0.1902  -0.0223  -0.0000  -0.0000  -0.0000

          k =-0.0000 1.0304-0.0000 ( 12163 PWs)   bands (ev):

   -49.8711 -26.3152 -25.7867 -25.7069 -11.2038  -9.1877  -8.9972  -0.3852
     0.9821   1.1654   2.4660   2.5270   2.6849   2.7889   3.8673   4.2833
     5.6730   8.9229   9.3072   9.4373  10.9376

     occupation numbers 
     1.0000   1.0000   1.0000   1.0000   1.0000   1.0000   1.0000   1.0000
     1.0000   1.0000   1.0000   1.0000   1.0000   1.0000   1.0000   1.0000
     1.0000  -0.0000  -0.0000  -0.0000  -0.0000

          k = 0.1997 1.2021-0.0000 ( 12188 PWs)   bands (ev):

   -49.8706 -26.2684 -25.7848 -25.7291 -11.5729  -9.1038  -9.0678   0.4624
     1.3860   1.3988   2.0362   2.4011   2.9637   3.1270   3.4047   4.3104
     5.9890   8.6391   8.7825   8.9200  11.0215

     occupation numbers 
     1.0000   1.0000   1.0000   1.0000   1.0000   1.0000   1.0000   1.0000
     1.0000   1.0000   1.0000   1.0000   1.0000   1.0000   1.0000   1.0000
     1.0000  -0.0000  -0.0000  -0.0000  -0.0000

          k =-1.5973-0.3435-0.0000 ( 12148 PWs)   bands (ev):

   -49.8680 -26.2074 -25.7849 -25.7774 -11.9691  -9.1002  -8.9700   1.4127
     1.4333   1.8220   2.1021   2.1550   2.9345   3.1754   3.5213   4.2172
     6.6334   7.8381   7.9387   8.7373  10.7321

     occupation numbers 
     1.0000   1.0000   1.0000   1.0000   1.0000   1.0000   1.0000   1.0000
     1.0000   1.0000   1.0000   1.0000   1.0000   1.0000   1.0000   1.0000
     0.6725  -0.0000  -0.0000  -0.0000  -0.0000

          k =-1.3976-0.1717-0.0000 ( 12171 PWs)   bands (ev):

   -49.8643 -26.1558 -25.8526 -25.7672 -12.2490  -9.0831  -8.8323   1.1284
     1.2944   1.9226   2.4727   2.7027   3.1970   3.4612   3.7398   4.0491
     6.9872   7.1857   7.3905   8.8742  10.0539

     occupation numbers 
     1.0000   1.0000   1.0000   1.0000   1.0000   1.0000   1.0000   1.0000
     1.0000   1.0000   1.0000   1.0000   1.0000   1.0000   1.0000   1.0000
    -0.0091  -0.0000  -0.0000  -0.0000  -0.0000

          k =-1.1980 0.0000-0.0000 ( 12181 PWs)   bands (ev):

   -49.8610 -26.1338 -25.9061 -25.7582 -12.3351  -9.0249  -8.7453   0.8316
     1.0558   1.9915   2.3458   3.1160   3.4850   3.6392   3.7749   3.9450
     6.6667   6.6745   8.1253   9.3433   9.6603

     occupation numbers 
     1.0000   1.0000   1.0000   1.0000   1.0000   1.0000   1.0000   1.0000
     1.0000   1.0000   1.0000   1.0000   1.0000   1.0000   1.0000   1.0000
     0.5042   0.4641  -0.0000  -0.0000  -0.0000

          k = 0.0000 0.0000 0.4332 ( 12116 PWs)   bands (ev):

   -49.8742 -26.1492 -25.7929 -25.7124 -12.4389  -9.2866  -9.0540   1.3242
     2.2661   2.6722   2.7593   3.3232   3.3264   3.3446   3.8259   4.0686
     5.5762   7.1794   7.5054   8.9860   9.8567

     occupation numbers 
     1.0000   1.0000   1.0000   1.0000   1.0000   1.0000   1.0000   1.0000
     1.0000   1.0000   1.0000   1.0000   1.0000   1.0000   1.0000   1.0000
     1.0000  -0.0000  -0.0000  -0.0000  -0.0000

          k =-1.9966-0.1717-0.0542 ( 12155 PWs)   bands (ev):

   -49.8738 -26.1672 -25.7923 -25.7118 -12.3234  -9.2292  -9.0976   1.4070
     2.1630   2.5085   2.6315   2.6927   3.2368   3.4785   3.9578   3.9639
     5.5887   7.4602   7.6545   9.0055  10.1643

     occupation numbers 
     1.0000   1.0000   1.0000   1.0000   1.0000   1.0000   1.0000   1.0000
     1.0000   1.0000   1.0000   1.0000   1.0000   1.0000   1.0000   1.0000
     1.0000  -0.0000  -0.0000  -0.0000  -0.0000

          k =-1.7969 0.0000-0.0542 ( 12131 PWs)   bands (ev):

   -49.8728 -26.1476 -25.7893 -25.7331 -12.4278  -9.2219  -9.0628   1.4849
     1.8950   2.6910   2.7796   3.0104   3.4217   3.5535   3.7690   3.8596
     5.9405   7.0887   7.4430   8.8387   9.9229

     occupation numbers 
     1.0000   1.0000   1.0000   1.0000   1.0000   1.0000   1.0000   1.0000
     1.0000   1.0000   1.0000   1.0000   1.0000   1.0000   1.0000   1.0000
     1.0000  -0.0008  -0.0000  -0.0000  -0.0000

          k = 0.0000 1.3738 0.0000 ( 12161 PWs)   bands (ev):

   -49.8730 -26.2137 -25.7905 -25.7103 -12.0073  -9.1532  -9.1305   1.2863
     1.7129   1.9108   2.2364   2.7007   2.9981   3.1051   3.8408   4.2969
     5.6192   8.0864   8.1184   8.9959  10.6426

     occupation numbers 
     1.0000   1.0000   1.0000   1.0000   1.0000   1.0000   1.0000   1.0000
     1.0000   1.0000   1.0000   1.0000   1.0000   1.0000   1.0000   1.0000
     1.0000  -0.0000  -0.0000  -0.0000  -0.0000

          k =-1.7969-0.1717 0.0000 ( 12155 PWs)   bands (ev):

   -49.8724 -26.1655 -25.7886 -25.7326 -12.3125  -9.1884  -9.0804   1.5147
     1.8493   2.4900   2.5204   2.9557   3.0583   3.4749   3.7322   4.0199
     5.9503   7.3701   7.5907   8.8513  10.2122

     occupation numbers 
     1.0000   1.0000   1.0000   1.0000   1.0000   1.0000   1.0000   1.0000
     1.0000   1.0000   1.0000   1.0000   1.0000   1.0000   1.0000   1.0000
     1.0000  -0.0000  -0.0000  -0.0000  -0.0000

          k =-1.5973 0.0000 0.0000 ( 12141 PWs)   bands (ev):

   -49.8691 -26.1433 -25.7872 -25.7797 -12.3992  -9.1610  -8.9678   1.3967
     1.6298   2.3387   2.6652   2.8484   3.5903   3.6803   3.7079   3.8406
     6.6208   6.8915   7.2296   8.6625   9.9114

     occupation numbers 
     1.0000   1.0000   1.0000   1.0000   1.0000   1.0000   1.0000   1.0000
     1.0000   1.0000   1.0000   1.0000   1.0000   1.0000   1.0000   1.0000
     0.7313  -0.0327  -0.0000  -0.0000  -0.0000

          k =-1.9966-1.7173-0.5415 ( 12132 PWs)   bands (ev):

   -49.8742 -26.1492 -25.7929 -25.7124 -12.4387  -9.2223  -9.1222   1.4809
     2.1146   2.6980   2.7539   3.3041   3.3090   3.3847   3.7620   4.0476
     5.5763   7.1795   7.5242   9.0195   9.8981

     occupation numbers 
     1.0000   1.0000   1.0000   1.0000   1.0000   1.0000   1.0000   1.0000
     1.0000   1.0000   1.0000   1.0000   1.0000   1.0000   1.0000   1.0000
     1.0000  -0.0000  -0.0000  -0.0000  -0.0000

     the Fermi energy is     6.6675 ev

!    total energy              =    -534.96734401 Ry

     total all-electron energy =     -9636.857587 Ry
     estimated scf accuracy    <          2.8E-11 Ry
     smearing contrib. (-TS)   =      -0.00010161 Ry
     internal energy E=F+TS    =    -534.96724240 Ry

     The total energy is F=E-TS. E is the sum of the following terms:
     one-electron contribution =     -93.92890159 Ry
     hartree contribution      =      61.19777118 Ry
     xc contribution           =     -39.53678468 Ry
     ewald contribution        =    -135.48921389 Ry
     one-center paw contrib.   =    -327.21011342 Ry
      -> PAW hartree energy AE =      29.12636962 Ry
      -> PAW hartree energy PS =     -29.09629244 Ry
      -> PAW xc energy AE      =     -17.04324015 Ry
      -> PAW xc energy PS      =       7.41909214 Ry
      -> total E_H with PAW    =      61.22784836 Ry
      -> total E_XC with PAW   =     -49.16093270 Ry

     convergence has been achieved in  13 iterations

     Forces acting on atoms (cartesian axes, Ry/au):

     atom    1 type  1   force =    -0.00000000   -0.00000000    0.00000000
     atom    2 type  2   force =    -0.00000000   -0.00000000    0.03592302
     atom    3 type  2   force =     0.00000000    0.00000000   -0.03592302
     atom    4 type  3   force =    -0.00000000   -0.00000000    0.00000000
     The non-local contrib.  to forces
     atom    1 type  1   force =     0.00000000    0.00000000    0.00000000
     atom    2 type  2   force =     0.00000000    0.00000000    0.06493966
     atom    3 type  2   force =     0.00000000    0.00000000   -0.06493966
     atom    4 type  3   force =     0.00000000    0.00000000    0.00000000
     The ionic contribution  to forces
     atom    1 type  1   force =    -0.00000000   -0.00000000    0.00000000
     atom    2 type  2   force =     0.00000001    0.00000000  -10.07462875
     atom    3 type  2   force =    -0.00000001   -0.00000000   10.07462875
     atom    4 type  3   force =    -0.00000000   -0.00000000    0.00000000
     The local contribution  to forces
     atom    1 type  1   force =     0.00000000    0.00000000    0.00000000
     atom    2 type  2   force =     0.00000002   -0.00000003   10.04410856
     atom    3 type  2   force =    -0.00000002    0.00000003  -10.04410856
     atom    4 type  3   force =     0.00000000    0.00000000    0.00000000
     The core correction contribution to forces
     atom    1 type  1   force =     0.00000000    0.00000000    0.00000000
     atom    2 type  2   force =    -0.00000000    0.00000000    0.00150060
     atom    3 type  2   force =     0.00000000   -0.00000000   -0.00150060
     atom    4 type  3   force =     0.00000000    0.00000000    0.00000000
     The Hubbard contrib.    to forces
     atom    1 type  1   force =     0.00000000    0.00000000    0.00000000
     atom    2 type  2   force =     0.00000000    0.00000000    0.00000000
     atom    3 type  2   force =     0.00000000    0.00000000    0.00000000
     atom    4 type  3   force =     0.00000000    0.00000000    0.00000000
     The SCF correction term to forces
     atom    1 type  1   force =    -0.00000000   -0.00000000    0.00000000
     atom    2 type  2   force =    -0.00000000    0.00000000    0.00000295
     atom    3 type  2   force =     0.00000000   -0.00000000   -0.00000295
     atom    4 type  3   force =    -0.00000000    0.00000000    0.00000000

     Total force =     0.050803     Total SCF correction =     0.000004


     Computing stress (Cartesian axis) and pressure

          total   stress  (Ry/bohr**3)                   (kbar)     P=      -39.01
  -0.00028069   0.00000000   0.00000000          -41.29        0.00        0.00
  -0.00000000  -0.00025703   0.00000000           -0.00      -37.81        0.00
   0.00000000   0.00000000  -0.00025782            0.00        0.00      -37.93

     kinetic stress (kbar)  14780.23      0.00      0.00
                                0.00  14773.84      0.00
                                0.00      0.00  14795.50

     local   stress (kbar) -18930.31      0.00      0.00
                                0.00 -24135.98      0.00
                                0.00      0.00   4068.79

     nonloc. stress (kbar)   8008.65      0.00      0.00
                               -0.00   7931.71      0.00
                               -0.00      0.00   8006.97

     hartree stress (kbar)   8385.59      0.00     -0.00
                                0.00  10084.97     -0.00
                               -0.00     -0.00  -2040.58

     exc-cor stress (kbar)  -1130.81     -0.00     -0.00
                               -0.00  -1122.12     -0.00
                               -0.00     -0.00  -1130.39

     corecor stress (kbar)  -2029.51     -0.00      0.00
                               -0.00  -2028.79      0.00
                                0.00      0.00  -2029.52

     ewald   stress (kbar)  -9125.13      0.00     -0.00
                                0.00  -5541.44     -0.00
                               -0.00     -0.00 -21708.70

     hubbard stress (kbar)      0.00      0.00      0.00
                                0.00      0.00      0.00
                                0.00      0.00      0.00

     DFT-D   stress (kbar)      0.00      0.00      0.00
                                0.00      0.00      0.00
                                0.00      0.00      0.00

     XDM     stress (kbar)      0.00      0.00      0.00
                                0.00      0.00      0.00
                                0.00      0.00      0.00

     dft-nl  stress (kbar)      0.00      0.00      0.00
                                0.00      0.00      0.00
                                0.00      0.00      0.00

     TS-vdW  stress (kbar)      0.00      0.00      0.00
                                0.00      0.00      0.00
                                0.00      0.00      0.00



     Writing output data file /zfs_data/gutierre/Scratch/Cl2NbO/convergence/cutoff/10x10x10/120/tmp/Cl2NbO.save/
 
     init_run     :      4.41s CPU      4.59s WALL (       1 calls)
     electrons    :    110.74s CPU    113.63s WALL (       1 calls)
     forces       :      0.89s CPU      0.90s WALL (       1 calls)
     stress       :      2.11s CPU      2.11s WALL (       1 calls)

     Called by init_run:
     wfcinit      :      3.21s CPU      3.31s WALL (       1 calls)
     wfcinit:atom :      0.02s CPU      0.02s WALL (     171 calls)
     wfcinit:wfcr :      3.09s CPU      3.18s WALL (     171 calls)
     potinit      :      0.37s CPU      0.39s WALL (       1 calls)
     hinit0       :      0.47s CPU      0.49s WALL (       1 calls)

     Called by electrons:
     c_bands      :     88.06s CPU     90.34s WALL (      13 calls)
     sum_band     :     19.47s CPU     20.01s WALL (      13 calls)
     v_of_rho     :      1.27s CPU      1.29s WALL (      14 calls)
     v_h          :      0.10s CPU      0.10s WALL (      14 calls)
     v_xc         :      1.33s CPU      1.35s WALL (      16 calls)
     newd         :      1.07s CPU      1.12s WALL (      14 calls)
     PAW_pot      :      0.74s CPU      0.75s WALL (      14 calls)
     mix_rho      :      0.18s CPU      0.19s WALL (      13 calls)

     Called by c_bands:
     init_us_2    :      1.22s CPU      1.28s WALL (    4959 calls)
     cegterg      :     85.46s CPU     87.62s WALL (    2223 calls)

     Called by sum_band:
     sum_band:wei :      0.08s CPU      0.08s WALL (      13 calls)
     sum_band:loo :     18.20s CPU     18.64s WALL (      13 calls)
     sum_band:buf :      0.17s CPU      0.18s WALL (    2223 calls)
     sum_band:ini :      0.58s CPU      0.60s WALL (    2223 calls)
     sum_band:cal :      0.60s CPU      0.61s WALL (    2223 calls)
     sum_band:bec :      0.06s CPU      0.07s WALL (    2223 calls)
     addusdens    :      1.04s CPU      1.13s WALL (      13 calls)
     addusd:skk   :      0.01s CPU      0.01s WALL (      39 calls)
     addusd:dgemm :      0.29s CPU      0.35s WALL (      39 calls)
     addusd:qvan2 :      0.70s CPU      0.72s WALL (      39 calls)

     Called by *egterg:
     cdiaghg      :      4.71s CPU      4.91s WALL (    8056 calls)
     cegterg:over :      1.62s CPU      1.67s WALL (    5833 calls)
     cegterg:upda :      0.49s CPU      0.51s WALL (    5833 calls)
     cegterg:last :      0.80s CPU      0.81s WALL (    4371 calls)
     h_psi        :     78.59s CPU     80.52s WALL (    8227 calls)
     s_psi        :      0.56s CPU      0.57s WALL (    8227 calls)
     g_psi        :      0.10s CPU      0.11s WALL (    5833 calls)

     Called by h_psi:
     h_psi:calbec :      1.91s CPU      1.96s WALL (    8227 calls)
     vloc_psi     :     75.51s CPU     77.37s WALL (    8227 calls)
     add_vuspsi   :      0.87s CPU      0.90s WALL (    8227 calls)

     General routines
     calbec       :      2.58s CPU      2.65s WALL (   11305 calls)
     fft          :      1.09s CPU      1.10s WALL (     205 calls)
     ffts         :      0.02s CPU      0.02s WALL (      27 calls)
     fftw         :     82.93s CPU     85.04s WALL (  280087 calls)
     interpolate  :      0.10s CPU      0.10s WALL (      14 calls)
 
     Parallel routines
     fft_scatt_xy :     10.84s CPU     11.04s WALL (  280319 calls)
     fft_scatt_yz :     36.45s CPU     37.39s WALL (  280319 calls)

     PAW routines
     PAW_pot      :      0.74s CPU      0.75s WALL (      14 calls)
     PAW_symme    :      0.03s CPU      0.03s WALL (      27 calls)
 
     PWSCF        :   1m59.47s CPU   2m 4.16s WALL

 
   This run was terminated on:  16:23:11  18May2022            

=------------------------------------------------------------------------------=
   JOB DONE.
=------------------------------------------------------------------------------=
