
     Program PWSCF v.6.7MaX starts on 18May2022 at 17:37:34 

     This program is part of the open-source Quantum ESPRESSO suite
     for quantum simulation of materials; please cite
         "P. Giannozzi et al., J. Phys.:Condens. Matter 21 395502 (2009);
         "P. Giannozzi et al., J. Phys.:Condens. Matter 29 465901 (2017);
          URL http://www.quantum-espresso.org", 
     in publications or presentations arising from this work. More details at
     http://www.quantum-espresso.org/quote

     Parallel version (MPI), running on    48 processors

     MPI processes distributed on     1 nodes
     R & G space division:  proc/nbgrp/npool/nimage =      48
     Waiting for input...
     Reading input from standard input

     Current dimensions of program PWSCF are:
     Max number of different atomic species (ntypx) = 10
     Max number of k-points (npk) =  40000
     Max angular momentum in pseudopotentials (lmaxx) =  3
     file O.pbe-nl-kjpaw_psl.1.0.0.UPF: wavefunction(s)  2S 2P renormalized
     file Cl.pbe-nl-kjpaw_psl.1.0.0.UPF: wavefunction(s)  3S renormalized
     file Nb.pbe-spn-kjpaw_psl.1.0.0.UPF: wavefunction(s)  4S 4P 4D renormalized

     Subspace diagonalization in iterative solution of the eigenvalue problem:
     a serial algorithm will be used

     Message from routine setup:
     using ibrav=0 with symmetry is DISCOURAGED, use correct ibrav instead
 
     Parallelization info
     --------------------
     sticks:   dense  smooth     PW     G-vecs:    dense   smooth      PW
     Min         226      90     28                 8011     2025     357
     Max         227      91     29                 8013     2026     359
     Sum       10861    4353   1363               384583    97215   17183
 


     bravais-lattice index     =            0
     lattice parameter (alat)  =      12.6717  a.u.
     unit-cell volume          =     547.9313 (a.u.)^3
     number of atoms/cell      =            4
     number of atomic types    =            3
     number of electrons       =        33.00
     number of Kohn-Sham states=           21
     kinetic-energy cutoff     =     120.0000  Ry
     charge density cutoff     =    1200.0000  Ry
     scf convergence threshold =      1.0E-10
     mixing beta               =       0.7000
     number of iterations used =            8  plain     mixing
     Exchange-correlation= SLA  PW   PBX  PBC
                           (   1   4   3   4   0   0   0)

     celldm(1)=  12.671676  celldm(2)=   0.000000  celldm(3)=   0.000000
     celldm(4)=   0.000000  celldm(5)=   0.000000  celldm(6)=   0.000000

     crystal axes: (cart. coord. in units of alat)
               a(1) = (  -0.250426   0.291161   0.923316 )  
               a(2) = (   0.250426  -0.291161   0.923316 )  
               a(3) = (   0.250426   0.291161  -0.923316 )  

     reciprocal axes: (cart. coord. in units 2 pi/alat)
               b(1) = (  0.000000  1.717261  0.541527 )  
               b(2) = (  1.996594  0.000000  0.541527 )  
               b(3) = (  1.996594  1.717261  0.000000 )  


     PseudoPot. # 1 for O  read from file:
     /zfs_data/gutierre/Scratch/Cl2NbO/smearing/12x12x12/0.016/pseudo/O.pbe-nl-kjpaw_psl.1.0.0.UPF
     MD5 check sum: df3ddea38124b4e5de5e1084591730e4
     Pseudo is Projector augmented-wave + core cor, Zval =  6.0
     Generated using 'atomic' code by A. Dal Corso  v.6.7MaX
     Shape of augmentation charge: PSQ
     Using radial grid of 1095 points,  4 beta functions with: 
                l(1) =   0
                l(2) =   0
                l(3) =   1
                l(4) =   1
     Q(r) pseudized with 0 coefficients 


     PseudoPot. # 2 for Cl read from file:
     /zfs_data/gutierre/Scratch/Cl2NbO/smearing/12x12x12/0.016/pseudo/Cl.pbe-nl-kjpaw_psl.1.0.0.UPF
     MD5 check sum: 8cf6bde52c08f6236e0f72a8870677af
     Pseudo is Projector augmented-wave + core cor, Zval =  7.0
     Generated using 'atomic' code by A. Dal Corso  v.6.7MaX
     Shape of augmentation charge: PSQ
     Using radial grid of 1157 points,  4 beta functions with: 
                l(1) =   0
                l(2) =   0
                l(3) =   1
                l(4) =   1
     Q(r) pseudized with 0 coefficients 


     PseudoPot. # 3 for Nb read from file:
     /zfs_data/gutierre/Scratch/Cl2NbO/smearing/12x12x12/0.016/pseudo/Nb.pbe-spn-kjpaw_psl.1.0.0.UPF
     MD5 check sum: 1ec1a3aa7bf3cbf7f7e0d720422bce7a
     Pseudo is Projector augmented-wave + core cor, Zval = 13.0
     Generated using 'atomic' code by A. Dal Corso  v.6.7MaX
     Shape of augmentation charge: PSQ
     Using radial grid of 1227 points,  6 beta functions with: 
                l(1) =   0
                l(2) =   0
                l(3) =   1
                l(4) =   1
                l(5) =   2
                l(6) =   2
     Q(r) pseudized with 0 coefficients 


     atomic species   valence    mass     pseudopotential
        O              6.00    15.99940     O ( 1.00)
        Cl             7.00    35.45150     Cl( 1.00)
        Nb            13.00    92.90637     Nb( 1.00)

      8 Sym. Ops., with inversion, found


                                    s                        frac. trans.

      isym =  1     identity                                     

 cryst.   s( 1) = (     1          0          0      )
                  (     0          1          0      )
                  (     0          0          1      )

 cart.    s( 1) = (  1.0000000  0.0000000  0.0000000 )
                  (  0.0000000  1.0000000  0.0000000 )
                  (  0.0000000  0.0000000  1.0000000 )


      isym =  2     180 deg rotation - cart. axis [0,0,1]        

 cryst.   s( 2) = (     0          1          0      )
                  (     1          0          0      )
                  (    -1         -1         -1      )

 cart.    s( 2) = ( -1.0000000  0.0000000  0.0000000 )
                  (  0.0000000 -1.0000000  0.0000000 )
                  (  0.0000000  0.0000000  1.0000000 )


      isym =  3     180 deg rotation - cart. axis [0,1,0]        

 cryst.   s( 3) = (     0          0          1      )
                  (    -1         -1         -1      )
                  (     1          0          0      )

 cart.    s( 3) = ( -1.0000000  0.0000000  0.0000000 )
                  (  0.0000000  1.0000000  0.0000000 )
                  (  0.0000000  0.0000000 -1.0000000 )


      isym =  4     180 deg rotation - cart. axis [1,0,0]        

 cryst.   s( 4) = (    -1         -1         -1      )
                  (     0          0          1      )
                  (     0          1          0      )

 cart.    s( 4) = (  1.0000000  0.0000000  0.0000000 )
                  (  0.0000000 -1.0000000  0.0000000 )
                  (  0.0000000  0.0000000 -1.0000000 )


      isym =  5     inversion                                    

 cryst.   s( 5) = (    -1          0          0      )
                  (     0         -1          0      )
                  (     0          0         -1      )

 cart.    s( 5) = ( -1.0000000  0.0000000  0.0000000 )
                  (  0.0000000 -1.0000000  0.0000000 )
                  (  0.0000000  0.0000000 -1.0000000 )


      isym =  6     inv. 180 deg rotation - cart. axis [0,0,1]   

 cryst.   s( 6) = (     0         -1          0      )
                  (    -1          0          0      )
                  (     1          1          1      )

 cart.    s( 6) = (  1.0000000  0.0000000  0.0000000 )
                  (  0.0000000  1.0000000  0.0000000 )
                  (  0.0000000  0.0000000 -1.0000000 )


      isym =  7     inv. 180 deg rotation - cart. axis [0,1,0]   

 cryst.   s( 7) = (     0          0         -1      )
                  (     1          1          1      )
                  (    -1          0          0      )

 cart.    s( 7) = (  1.0000000  0.0000000  0.0000000 )
                  (  0.0000000 -1.0000000  0.0000000 )
                  (  0.0000000  0.0000000  1.0000000 )


      isym =  8     inv. 180 deg rotation - cart. axis [1,0,0]   

 cryst.   s( 8) = (     1          1          1      )
                  (     0          0         -1      )
                  (     0         -1          0      )

 cart.    s( 8) = ( -1.0000000  0.0000000  0.0000000 )
                  (  0.0000000  1.0000000  0.0000000 )
                  (  0.0000000  0.0000000  1.0000000 )


   Cartesian axes

     site n.     atom                  positions (alat units)
         1           O   tau(   1) = (   0.0000000   0.2911613   0.0000000  )
         2           Cl  tau(   2) = (  -0.0000000   0.2911613   0.6365338  )
         3           Cl  tau(   3) = (   0.2504264  -0.0000000   0.2867819  )
         4           Nb  tau(   4) = (   0.0000000   0.0000000   0.0000000  )

   Crystallographic axes

     site n.     atom                  positions (cryst. coord.)
         1           O   tau(   1) = (  0.5000000  0.0000000  0.5000000  )
         2           Cl  tau(   2) = (  0.8447000  0.3447000  0.5000000  )
         3           Cl  tau(   3) = (  0.1553000  0.6553000  0.5000000  )
         4           Nb  tau(   4) = (  0.0000000  0.0000000  0.0000000  )

     number of k points=   280  Methfessel-Paxton smearing, width (Ry)=  0.0160
                       cart. coord. in units 2pi/alat
        k(    1) = (   0.0000000   0.0000000   0.0000000), wk =   0.0011574
        k(    2) = (   0.1663829   0.1431051   0.0000000), wk =   0.0046296
        k(    3) = (   0.3327657   0.2862102   0.0000000), wk =   0.0046296
        k(    4) = (   0.4991486   0.4293153   0.0000000), wk =   0.0046296
        k(    5) = (   0.6655314   0.5724204   0.0000000), wk =   0.0046296
        k(    6) = (   0.8319143   0.7155256   0.0000000), wk =   0.0046296
        k(    7) = (  -0.9982971  -0.8586307   0.0000000), wk =   0.0023148
        k(    8) = (   0.1663829   0.0000000   0.0451272), wk =   0.0046296
        k(    9) = (   0.3327657   0.1431051   0.0451272), wk =   0.0092593
        k(   10) = (   0.4991486   0.2862102   0.0451272), wk =   0.0092593
        k(   11) = (   0.6655314   0.4293153   0.0451272), wk =   0.0092593
        k(   12) = (   0.8319143   0.5724204   0.0451272), wk =   0.0092593
        k(   13) = (   0.9982971   0.7155256   0.0451272), wk =   0.0092593
        k(   14) = (  -0.8319143  -0.8586307   0.0451272), wk =   0.0092593
        k(   15) = (  -0.6655314  -0.7155256   0.0451272), wk =   0.0092593
        k(   16) = (  -0.4991486  -0.5724204   0.0451272), wk =   0.0092593
        k(   17) = (  -0.3327657  -0.4293153   0.0451272), wk =   0.0092593
        k(   18) = (  -0.1663829  -0.2862102   0.0451272), wk =   0.0092593
        k(   19) = (  -0.0000000  -0.1431051   0.0451272), wk =   0.0046296
        k(   20) = (   0.3327657   0.0000000   0.0902544), wk =   0.0046296
        k(   21) = (   0.4991486   0.1431051   0.0902544), wk =   0.0092593
        k(   22) = (   0.6655314   0.2862102   0.0902544), wk =   0.0092593
        k(   23) = (   0.8319143   0.4293153   0.0902544), wk =   0.0092593
        k(   24) = (   0.9982971   0.5724204   0.0902544), wk =   0.0092593
        k(   25) = (   1.1646800   0.7155256   0.0902544), wk =   0.0092593
        k(   26) = (  -0.6655314  -0.8586307   0.0902544), wk =   0.0092593
        k(   27) = (  -0.4991486  -0.7155256   0.0902544), wk =   0.0092593
        k(   28) = (  -0.3327657  -0.5724204   0.0902544), wk =   0.0092593
        k(   29) = (  -0.1663829  -0.4293153   0.0902544), wk =   0.0092593
        k(   30) = (   0.0000000  -0.2862102   0.0902544), wk =   0.0046296
        k(   31) = (   0.1663829  -0.1431051   0.0902544), wk =   0.0092593
        k(   32) = (   0.4991486   0.0000000   0.1353817), wk =   0.0046296
        k(   33) = (   0.6655314   0.1431051   0.1353817), wk =   0.0092593
        k(   34) = (   0.8319143   0.2862102   0.1353817), wk =   0.0092593
        k(   35) = (   0.9982971   0.4293153   0.1353817), wk =   0.0092593
        k(   36) = (   1.1646800   0.5724204   0.1353817), wk =   0.0092593
        k(   37) = (   1.3310629   0.7155256   0.1353817), wk =   0.0092593
        k(   38) = (  -0.4991486  -0.8586307   0.1353817), wk =   0.0092593
        k(   39) = (  -0.3327657  -0.7155256   0.1353817), wk =   0.0092593
        k(   40) = (  -0.1663829  -0.5724204   0.1353817), wk =   0.0092593
        k(   41) = (   0.0000000  -0.4293153   0.1353817), wk =   0.0046296
        k(   42) = (   0.1663829  -0.2862102   0.1353817), wk =   0.0092593
        k(   43) = (   0.3327657  -0.1431051   0.1353817), wk =   0.0092593
        k(   44) = (   0.6655314   0.0000000   0.1805089), wk =   0.0046296
        k(   45) = (   0.8319143   0.1431051   0.1805089), wk =   0.0092593
        k(   46) = (   0.9982971   0.2862102   0.1805089), wk =   0.0092593
        k(   47) = (   1.1646800   0.4293153   0.1805089), wk =   0.0092593
        k(   48) = (   1.3310629   0.5724204   0.1805089), wk =   0.0092593
        k(   49) = (   1.4974457   0.7155256   0.1805089), wk =   0.0092593
        k(   50) = (  -0.3327657  -0.8586307   0.1805089), wk =   0.0092593
        k(   51) = (  -0.1663829  -0.7155256   0.1805089), wk =   0.0092593
        k(   52) = (  -0.0000000  -0.5724204   0.1805089), wk =   0.0046296
        k(   53) = (   0.1663829  -0.4293153   0.1805089), wk =   0.0092593
        k(   54) = (   0.3327657  -0.2862102   0.1805089), wk =   0.0092593
        k(   55) = (   0.4991486  -0.1431051   0.1805089), wk =   0.0092593
        k(   56) = (   0.8319143   0.0000000   0.2256361), wk =   0.0046296
        k(   57) = (   0.9982971   0.1431051   0.2256361), wk =   0.0092593
        k(   58) = (   1.1646800   0.2862102   0.2256361), wk =   0.0092593
        k(   59) = (   1.3310629   0.4293153   0.2256361), wk =   0.0092593
        k(   60) = (   1.4974457   0.5724204   0.2256361), wk =   0.0092593
        k(   61) = (   1.6638286   0.7155256   0.2256361), wk =   0.0092593
        k(   62) = (  -0.1663829  -0.8586307   0.2256361), wk =   0.0092593
        k(   63) = (   0.0000000  -0.7155256   0.2256361), wk =   0.0046296
        k(   64) = (   0.1663829  -0.5724204   0.2256361), wk =   0.0092593
        k(   65) = (   0.3327657  -0.4293153   0.2256361), wk =   0.0092593
        k(   66) = (   0.4991486  -0.2862102   0.2256361), wk =   0.0092593
        k(   67) = (   0.6655314  -0.1431051   0.2256361), wk =   0.0092593
        k(   68) = (  -0.9982971   0.0000000  -0.2707633), wk =   0.0023148
        k(   69) = (  -0.8319143   0.1431051  -0.2707633), wk =   0.0092593
        k(   70) = (  -0.6655314   0.2862102  -0.2707633), wk =   0.0092593
        k(   71) = (  -0.4991486   0.4293153  -0.2707633), wk =   0.0092593
        k(   72) = (  -0.3327657   0.5724204  -0.2707633), wk =   0.0092593
        k(   73) = (  -0.1663829   0.7155256  -0.2707633), wk =   0.0092593
        k(   74) = (  -1.9965943  -0.8586307  -0.2707633), wk =   0.0023148
        k(   75) = (   0.3327657   0.2862102   0.0902544), wk =   0.0092593
        k(   76) = (   0.4991486   0.4293153   0.0902544), wk =   0.0092593
        k(   77) = (   0.6655314   0.5724204   0.0902544), wk =   0.0092593
        k(   78) = (   0.8319143   0.7155256   0.0902544), wk =   0.0092593
        k(   79) = (   0.9982971   0.8586307   0.0902544), wk =   0.0046296
        k(   80) = (  -0.0000000  -0.0000000   0.0902544), wk =   0.0023148
        k(   81) = (   0.4991486   0.2862102   0.1353817), wk =   0.0092593
        k(   82) = (   0.6655314   0.4293153   0.1353817), wk =   0.0092593
        k(   83) = (   0.8319143   0.5724204   0.1353817), wk =   0.0092593
        k(   84) = (   0.9982971   0.7155256   0.1353817), wk =   0.0092593
        k(   85) = (   1.1646800   0.8586307   0.1353817), wk =   0.0092593
        k(   86) = (  -0.6655314  -0.7155256   0.1353817), wk =   0.0092593
        k(   87) = (  -0.4991486  -0.5724204   0.1353817), wk =   0.0092593
        k(   88) = (  -0.3327657  -0.4293153   0.1353817), wk =   0.0092593
        k(   89) = (   0.0000000  -0.1431051   0.1353817), wk =   0.0046296
        k(   90) = (   0.1663829  -0.0000000   0.1353817), wk =   0.0046296
        k(   91) = (   0.6655314   0.2862102   0.1805089), wk =   0.0092593
        k(   92) = (   0.8319143   0.4293153   0.1805089), wk =   0.0092593
        k(   93) = (   0.9982971   0.5724204   0.1805089), wk =   0.0092593
        k(   94) = (   1.1646800   0.7155256   0.1805089), wk =   0.0092593
        k(   95) = (   1.3310629   0.8586307   0.1805089), wk =   0.0092593
        k(   96) = (  -0.4991486  -0.7155256   0.1805089), wk =   0.0092593
        k(   97) = (  -0.3327657  -0.5724204   0.1805089), wk =   0.0092593
        k(   98) = (   0.0000000  -0.2862102   0.1805089), wk =   0.0046296
        k(   99) = (   0.1663829  -0.1431051   0.1805089), wk =   0.0092593
        k(  100) = (   0.3327657  -0.0000000   0.1805089), wk =   0.0046296
        k(  101) = (   0.8319143   0.2862102   0.2256361), wk =   0.0092593
        k(  102) = (   0.9982971   0.4293153   0.2256361), wk =   0.0092593
        k(  103) = (   1.1646800   0.5724204   0.2256361), wk =   0.0092593
        k(  104) = (   1.3310629   0.7155256   0.2256361), wk =   0.0092593
        k(  105) = (   1.4974457   0.8586307   0.2256361), wk =   0.0092593
        k(  106) = (  -0.3327657  -0.7155256   0.2256361), wk =   0.0092593
        k(  107) = (  -0.0000000  -0.4293153   0.2256361), wk =   0.0046296
        k(  108) = (   0.1663829  -0.2862102   0.2256361), wk =   0.0092593
        k(  109) = (   0.3327657  -0.1431051   0.2256361), wk =   0.0092593
        k(  110) = (   0.4991486  -0.0000000   0.2256361), wk =   0.0046296
        k(  111) = (   0.9982971   0.2862102   0.2707633), wk =   0.0046296
        k(  112) = (   1.1646800   0.4293153   0.2707633), wk =   0.0092593
        k(  113) = (   1.3310629   0.5724204   0.2707633), wk =   0.0092593
        k(  114) = (   1.4974457   0.7155256   0.2707633), wk =   0.0092593
        k(  115) = (   1.6638286   0.8586307   0.2707633), wk =   0.0046296
        k(  116) = (   0.0000000  -0.5724204   0.2707633), wk =   0.0046296
        k(  117) = (   0.1663829  -0.4293153   0.2707633), wk =   0.0092593
        k(  118) = (   0.3327657  -0.2862102   0.2707633), wk =   0.0092593
        k(  119) = (   0.4991486  -0.1431051   0.2707633), wk =   0.0092593
        k(  120) = (   0.6655314  -0.0000000   0.2707633), wk =   0.0046296
        k(  121) = (  -0.6655314   0.4293153  -0.2256361), wk =   0.0092593
        k(  122) = (  -0.4991486   0.5724204  -0.2256361), wk =   0.0092593
        k(  123) = (  -1.9965943  -0.7155256  -0.2256361), wk =   0.0046296
        k(  124) = (  -1.8302114  -0.5724204  -0.2256361), wk =   0.0092593
        k(  125) = (  -1.6638286  -0.4293153  -0.2256361), wk =   0.0092593
        k(  126) = (  -1.4974457  -0.2862102  -0.2256361), wk =   0.0092593
        k(  127) = (  -1.3310629  -0.1431051  -0.2256361), wk =   0.0092593
        k(  128) = (  -1.1646800  -0.0000000  -0.2256361), wk =   0.0046296
        k(  129) = (  -0.4991486   0.4293153  -0.1805089), wk =   0.0092593
        k(  130) = (   0.0000000   0.8586307  -0.1805089), wk =   0.0046296
        k(  131) = (  -1.8302114  -0.7155256  -0.1805089), wk =   0.0092593
        k(  132) = (  -1.6638286  -0.5724204  -0.1805089), wk =   0.0092593
        k(  133) = (  -1.4974457  -0.4293153  -0.1805089), wk =   0.0092593
        k(  134) = (  -1.3310629  -0.2862102  -0.1805089), wk =   0.0092593
        k(  135) = (  -1.1646800  -0.1431051  -0.1805089), wk =   0.0092593
        k(  136) = (  -0.9982971  -0.0000000  -0.1805089), wk =   0.0046296
        k(  137) = (  -0.0000000   0.7155256  -0.1353817), wk =   0.0046296
        k(  138) = (   0.1663829   0.8586307  -0.1353817), wk =   0.0092593
        k(  139) = (  -1.6638286  -0.7155256  -0.1353817), wk =   0.0092593
        k(  140) = (  -1.4974457  -0.5724204  -0.1353817), wk =   0.0092593
        k(  141) = (  -1.3310629  -0.4293153  -0.1353817), wk =   0.0092593
        k(  142) = (  -1.1646800  -0.2862102  -0.1353817), wk =   0.0092593
        k(  143) = (  -0.9982971  -0.1431051  -0.1353817), wk =   0.0092593
        k(  144) = (  -0.8319143  -0.0000000  -0.1353817), wk =   0.0046296
        k(  145) = (   0.0000000   0.5724204  -0.0902544), wk =   0.0046296
        k(  146) = (   0.1663829   0.7155256  -0.0902544), wk =   0.0092593
        k(  147) = (   0.3327657   0.8586307  -0.0902544), wk =   0.0092593
        k(  148) = (  -1.4974457  -0.7155256  -0.0902544), wk =   0.0092593
        k(  149) = (  -1.3310629  -0.5724204  -0.0902544), wk =   0.0092593
        k(  150) = (  -1.1646800  -0.4293153  -0.0902544), wk =   0.0092593
        k(  151) = (  -0.9982971  -0.2862102  -0.0902544), wk =   0.0092593
        k(  152) = (  -0.8319143  -0.1431051  -0.0902544), wk =   0.0092593
        k(  153) = (  -0.6655314  -0.0000000  -0.0902544), wk =   0.0046296
        k(  154) = (   0.0000000   0.4293153  -0.0451272), wk =   0.0046296
        k(  155) = (   0.1663829   0.5724204  -0.0451272), wk =   0.0092593
        k(  156) = (   0.3327657   0.7155256  -0.0451272), wk =   0.0092593
        k(  157) = (   0.4991486   0.8586307  -0.0451272), wk =   0.0092593
        k(  158) = (  -1.3310629  -0.7155256  -0.0451272), wk =   0.0092593
        k(  159) = (  -1.1646800  -0.5724204  -0.0451272), wk =   0.0092593
        k(  160) = (  -0.9982971  -0.4293153  -0.0451272), wk =   0.0092593
        k(  161) = (  -0.8319143  -0.2862102  -0.0451272), wk =   0.0092593
        k(  162) = (  -0.6655314  -0.1431051  -0.0451272), wk =   0.0092593
        k(  163) = (  -0.4991486  -0.0000000  -0.0451272), wk =   0.0046296
        k(  164) = (  -0.0000000   0.2862102  -0.0000000), wk =   0.0023148
        k(  165) = (   0.1663829   0.4293153  -0.0000000), wk =   0.0046296
        k(  166) = (   0.3327657   0.5724204  -0.0000000), wk =   0.0046296
        k(  167) = (   0.4991486   0.7155256  -0.0000000), wk =   0.0046296
        k(  168) = (   0.6655314   0.8586307  -0.0000000), wk =   0.0046296
        k(  169) = (  -1.1646800  -0.7155256  -0.0000000), wk =   0.0046296
        k(  170) = (  -0.9982971  -0.5724204  -0.0000000), wk =   0.0046296
        k(  171) = (  -0.8319143  -0.4293153  -0.0000000), wk =   0.0046296
        k(  172) = (  -0.6655314  -0.2862102  -0.0000000), wk =   0.0046296
        k(  173) = (  -0.4991486  -0.1431051  -0.0000000), wk =   0.0046296
        k(  174) = (  -0.3327657  -0.0000000  -0.0000000), wk =   0.0023148
        k(  175) = (   0.6655314   0.5724204   0.1805089), wk =   0.0092593
        k(  176) = (   0.8319143   0.7155256   0.1805089), wk =   0.0092593
        k(  177) = (   0.9982971   0.8586307   0.1805089), wk =   0.0046296
        k(  178) = (   0.0000000   0.0000000   0.1805089), wk =   0.0023148
        k(  179) = (   0.8319143   0.5724204   0.2256361), wk =   0.0092593
        k(  180) = (   0.9982971   0.7155256   0.2256361), wk =   0.0092593
        k(  181) = (   1.1646800   0.8586307   0.2256361), wk =   0.0092593
        k(  182) = (   1.3310629   1.0017358   0.2256361), wk =   0.0092593
        k(  183) = (   0.0000000  -0.1431051   0.2256361), wk =   0.0046296
        k(  184) = (   0.1663829   0.0000000   0.2256361), wk =   0.0046296
        k(  185) = (   0.9982971   0.5724204   0.2707633), wk =   0.0046296
        k(  186) = (   1.1646800   0.7155256   0.2707633), wk =   0.0092593
        k(  187) = (   1.3310629   0.8586307   0.2707633), wk =   0.0046296
        k(  188) = (  -0.0000000  -0.2862102   0.2707633), wk =   0.0046296
        k(  189) = (   0.1663829  -0.1431051   0.2707633), wk =   0.0092593
        k(  190) = (   0.3327657   0.0000000   0.2707633), wk =   0.0046296
        k(  191) = (   0.0000000  -0.4293153   0.3158905), wk =   0.0046296
        k(  192) = (   0.1663829  -0.2862102   0.3158905), wk =   0.0092593
        k(  193) = (   0.3327657  -0.1431051   0.3158905), wk =   0.0092593
        k(  194) = (   0.4991486   0.0000000   0.3158905), wk =   0.0046296
        k(  195) = (  -1.9965943  -0.5724204  -0.1805089), wk =   0.0046296
        k(  196) = (  -1.8302114  -0.4293153  -0.1805089), wk =   0.0092593
        k(  197) = (  -1.6638286  -0.2862102  -0.1805089), wk =   0.0092593
        k(  198) = (  -1.4974457  -0.1431051  -0.1805089), wk =   0.0092593
        k(  199) = (  -1.3310629   0.0000000  -0.1805089), wk =   0.0046296
        k(  200) = (   0.0000000   1.0017358  -0.1353817), wk =   0.0046296
        k(  201) = (  -1.8302114  -0.5724204  -0.1353817), wk =   0.0092593
        k(  202) = (  -1.6638286  -0.4293153  -0.1353817), wk =   0.0092593
        k(  203) = (  -1.4974457  -0.2862102  -0.1353817), wk =   0.0092593
        k(  204) = (  -1.3310629  -0.1431051  -0.1353817), wk =   0.0092593
        k(  205) = (  -1.1646800   0.0000000  -0.1353817), wk =   0.0046296
        k(  206) = (  -0.0000000   0.8586307  -0.0902544), wk =   0.0046296
        k(  207) = (   0.1663829   1.0017358  -0.0902544), wk =   0.0092593
        k(  208) = (  -1.6638286  -0.5724204  -0.0902544), wk =   0.0092593
        k(  209) = (  -1.4974457  -0.4293153  -0.0902544), wk =   0.0092593
        k(  210) = (  -1.3310629  -0.2862102  -0.0902544), wk =   0.0092593
        k(  211) = (  -1.1646800  -0.1431051  -0.0902544), wk =   0.0092593
        k(  212) = (  -0.9982971   0.0000000  -0.0902544), wk =   0.0046296
        k(  213) = (   0.0000000   0.7155256  -0.0451272), wk =   0.0046296
        k(  214) = (   0.1663829   0.8586307  -0.0451272), wk =   0.0092593
        k(  215) = (   0.3327657   1.0017358  -0.0451272), wk =   0.0092593
        k(  216) = (  -1.4974457  -0.5724204  -0.0451272), wk =   0.0092593
        k(  217) = (  -1.3310629  -0.4293153  -0.0451272), wk =   0.0092593
        k(  218) = (  -1.1646800  -0.2862102  -0.0451272), wk =   0.0092593
        k(  219) = (  -0.9982971  -0.1431051  -0.0451272), wk =   0.0092593
        k(  220) = (  -0.8319143   0.0000000  -0.0451272), wk =   0.0046296
        k(  221) = (   0.0000000   0.5724204   0.0000000), wk =   0.0023148
        k(  222) = (   0.1663829   0.7155256   0.0000000), wk =   0.0046296
        k(  223) = (   0.3327657   0.8586307   0.0000000), wk =   0.0046296
        k(  224) = (   0.4991486   1.0017358   0.0000000), wk =   0.0046296
        k(  225) = (  -1.3310629  -0.5724204   0.0000000), wk =   0.0046296
        k(  226) = (  -1.1646800  -0.4293153   0.0000000), wk =   0.0046296
        k(  227) = (  -0.9982971  -0.2862102   0.0000000), wk =   0.0046296
        k(  228) = (  -0.8319143  -0.1431051   0.0000000), wk =   0.0046296
        k(  229) = (  -0.6655314   0.0000000   0.0000000), wk =   0.0023148
        k(  230) = (   0.9982971   0.8586307   0.2707633), wk =   0.0023148
        k(  231) = (   0.0000000   0.0000000   0.2707633), wk =   0.0023148
        k(  232) = (  -0.0000000  -0.1431051   0.3158905), wk =   0.0046296
        k(  233) = (   0.1663829   0.0000000   0.3158905), wk =   0.0046296
        k(  234) = (   0.0000000  -0.2862102   0.3610178), wk =   0.0046296
        k(  235) = (   0.1663829  -0.1431051   0.3610178), wk =   0.0092593
        k(  236) = (   0.3327657   0.0000000   0.3610178), wk =   0.0046296
        k(  237) = (  -1.9965943  -0.4293153  -0.1353817), wk =   0.0046296
        k(  238) = (  -1.8302114  -0.2862102  -0.1353817), wk =   0.0092593
        k(  239) = (  -1.6638286  -0.1431051  -0.1353817), wk =   0.0092593
        k(  240) = (  -1.4974457   0.0000000  -0.1353817), wk =   0.0046296
        k(  241) = (   0.0000000   1.1448409  -0.0902544), wk =   0.0046296
        k(  242) = (  -1.8302114  -0.4293153  -0.0902544), wk =   0.0092593
        k(  243) = (  -1.6638286  -0.2862102  -0.0902544), wk =   0.0092593
        k(  244) = (  -1.4974457  -0.1431051  -0.0902544), wk =   0.0092593
        k(  245) = (  -1.3310629   0.0000000  -0.0902544), wk =   0.0046296
        k(  246) = (  -0.0000000   1.0017358  -0.0451272), wk =   0.0046296
        k(  247) = (   0.1663829   1.1448409  -0.0451272), wk =   0.0092593
        k(  248) = (  -1.6638286  -0.4293153  -0.0451272), wk =   0.0092593
        k(  249) = (  -1.4974457  -0.2862102  -0.0451272), wk =   0.0092593
        k(  250) = (  -1.3310629  -0.1431051  -0.0451272), wk =   0.0092593
        k(  251) = (  -1.1646800   0.0000000  -0.0451272), wk =   0.0046296
        k(  252) = (   0.0000000   0.8586307   0.0000000), wk =   0.0023148
        k(  253) = (   0.1663829   1.0017358   0.0000000), wk =   0.0046296
        k(  254) = (   0.3327657   1.1448409   0.0000000), wk =   0.0046296
        k(  255) = (  -1.4974457  -0.4293153   0.0000000), wk =   0.0046296
        k(  256) = (  -1.3310629  -0.2862102   0.0000000), wk =   0.0046296
        k(  257) = (  -1.1646800  -0.1431051   0.0000000), wk =   0.0046296
        k(  258) = (  -0.9982971   0.0000000   0.0000000), wk =   0.0023148
        k(  259) = (  -0.0000000  -0.0000000   0.3610178), wk =   0.0023148
        k(  260) = (   0.0000000  -0.1431051   0.4061450), wk =   0.0046296
        k(  261) = (   0.1663829  -0.0000000   0.4061450), wk =   0.0046296
        k(  262) = (  -1.9965943  -0.2862102  -0.0902544), wk =   0.0046296
        k(  263) = (  -1.8302114  -0.1431051  -0.0902544), wk =   0.0092593
        k(  264) = (  -1.6638286  -0.0000000  -0.0902544), wk =   0.0046296
        k(  265) = (   0.0000000   1.2879460  -0.0451272), wk =   0.0046296
        k(  266) = (  -1.8302114  -0.2862102  -0.0451272), wk =   0.0092593
        k(  267) = (  -1.6638286  -0.1431051  -0.0451272), wk =   0.0092593
        k(  268) = (  -1.4974457  -0.0000000  -0.0451272), wk =   0.0046296
        k(  269) = (  -0.0000000   1.1448409  -0.0000000), wk =   0.0023148
        k(  270) = (   0.1663829   1.2879460  -0.0000000), wk =   0.0046296
        k(  271) = (  -1.6638286  -0.2862102  -0.0000000), wk =   0.0046296
        k(  272) = (  -1.4974457  -0.1431051  -0.0000000), wk =   0.0046296
        k(  273) = (  -1.3310629  -0.0000000  -0.0000000), wk =   0.0023148
        k(  274) = (   0.0000000   0.0000000   0.4512722), wk =   0.0023148
        k(  275) = (  -1.9965943  -0.1431051  -0.0451272), wk =   0.0046296
        k(  276) = (  -1.8302114   0.0000000  -0.0451272), wk =   0.0046296
        k(  277) = (   0.0000000   1.4310511   0.0000000), wk =   0.0023148
        k(  278) = (  -1.8302114  -0.1431051   0.0000000), wk =   0.0046296
        k(  279) = (  -1.6638286   0.0000000   0.0000000), wk =   0.0023148
        k(  280) = (  -1.9965943  -1.7172613  -0.5415266), wk =   0.0011574

                       cryst. coord.
        k(    1) = (   0.0000000   0.0000000   0.0000000), wk =   0.0011574
        k(    2) = (  -0.0000000   0.0000000   0.0833333), wk =   0.0046296
        k(    3) = (  -0.0000000   0.0000000   0.1666667), wk =   0.0046296
        k(    4) = (   0.0000000   0.0000000   0.2500000), wk =   0.0046296
        k(    5) = (  -0.0000000   0.0000000   0.3333333), wk =   0.0046296
        k(    6) = (  -0.0000000   0.0000000   0.4166667), wk =   0.0046296
        k(    7) = (   0.0000000   0.0000000  -0.5000000), wk =   0.0023148
        k(    8) = (   0.0000000   0.0833333  -0.0000000), wk =   0.0046296
        k(    9) = (   0.0000000   0.0833333   0.0833333), wk =   0.0092593
        k(   10) = (  -0.0000000   0.0833333   0.1666667), wk =   0.0092593
        k(   11) = (   0.0000000   0.0833333   0.2500000), wk =   0.0092593
        k(   12) = (  -0.0000000   0.0833333   0.3333333), wk =   0.0092593
        k(   13) = (  -0.0000000   0.0833333   0.4166667), wk =   0.0092593
        k(   14) = (   0.0000000   0.0833333  -0.5000000), wk =   0.0092593
        k(   15) = (   0.0000000   0.0833333  -0.4166667), wk =   0.0092593
        k(   16) = (   0.0000000   0.0833333  -0.3333333), wk =   0.0092593
        k(   17) = (   0.0000000   0.0833333  -0.2500000), wk =   0.0092593
        k(   18) = (   0.0000000   0.0833333  -0.1666667), wk =   0.0092593
        k(   19) = (   0.0000000   0.0833333  -0.0833333), wk =   0.0046296
        k(   20) = (   0.0000000   0.1666667  -0.0000000), wk =   0.0046296
        k(   21) = (   0.0000000   0.1666667   0.0833333), wk =   0.0092593
        k(   22) = (   0.0000000   0.1666667   0.1666667), wk =   0.0092593
        k(   23) = (   0.0000000   0.1666667   0.2500000), wk =   0.0092593
        k(   24) = (  -0.0000000   0.1666667   0.3333333), wk =   0.0092593
        k(   25) = (  -0.0000000   0.1666667   0.4166667), wk =   0.0092593
        k(   26) = (   0.0000000   0.1666667  -0.5000000), wk =   0.0092593
        k(   27) = (   0.0000000   0.1666667  -0.4166667), wk =   0.0092593
        k(   28) = (   0.0000000   0.1666667  -0.3333333), wk =   0.0092593
        k(   29) = (   0.0000000   0.1666667  -0.2500000), wk =   0.0092593
        k(   30) = (   0.0000000   0.1666667  -0.1666667), wk =   0.0046296
        k(   31) = (   0.0000000   0.1666667  -0.0833333), wk =   0.0092593
        k(   32) = (   0.0000000   0.2500000   0.0000000), wk =   0.0046296
        k(   33) = (   0.0000000   0.2500000   0.0833333), wk =   0.0092593
        k(   34) = (  -0.0000000   0.2500000   0.1666667), wk =   0.0092593
        k(   35) = (   0.0000000   0.2500000   0.2500000), wk =   0.0092593
        k(   36) = (   0.0000000   0.2500000   0.3333333), wk =   0.0092593
        k(   37) = (  -0.0000000   0.2500000   0.4166667), wk =   0.0092593
        k(   38) = (   0.0000000   0.2500000  -0.5000000), wk =   0.0092593
        k(   39) = (   0.0000000   0.2500000  -0.4166667), wk =   0.0092593
        k(   40) = (   0.0000000   0.2500000  -0.3333333), wk =   0.0092593
        k(   41) = (   0.0000000   0.2500000  -0.2500000), wk =   0.0046296
        k(   42) = (   0.0000000   0.2500000  -0.1666667), wk =   0.0092593
        k(   43) = (   0.0000000   0.2500000  -0.0833333), wk =   0.0092593
        k(   44) = (   0.0000000   0.3333333  -0.0000000), wk =   0.0046296
        k(   45) = (   0.0000000   0.3333333   0.0833333), wk =   0.0092593
        k(   46) = (   0.0000000   0.3333333   0.1666667), wk =   0.0092593
        k(   47) = (   0.0000000   0.3333333   0.2500000), wk =   0.0092593
        k(   48) = (   0.0000000   0.3333333   0.3333333), wk =   0.0092593
        k(   49) = (   0.0000000   0.3333333   0.4166667), wk =   0.0092593
        k(   50) = (   0.0000000   0.3333333  -0.5000000), wk =   0.0092593
        k(   51) = (   0.0000000   0.3333333  -0.4166667), wk =   0.0092593
        k(   52) = (   0.0000000   0.3333333  -0.3333333), wk =   0.0046296
        k(   53) = (   0.0000000   0.3333333  -0.2500000), wk =   0.0092593
        k(   54) = (   0.0000000   0.3333333  -0.1666667), wk =   0.0092593
        k(   55) = (   0.0000000   0.3333333  -0.0833333), wk =   0.0092593
        k(   56) = (  -0.0000000   0.4166667   0.0000000), wk =   0.0046296
        k(   57) = (   0.0000000   0.4166667   0.0833333), wk =   0.0092593
        k(   58) = (  -0.0000000   0.4166667   0.1666667), wk =   0.0092593
        k(   59) = (  -0.0000000   0.4166667   0.2500000), wk =   0.0092593
        k(   60) = (  -0.0000000   0.4166667   0.3333333), wk =   0.0092593
        k(   61) = (  -0.0000000   0.4166667   0.4166667), wk =   0.0092593
        k(   62) = (   0.0000000   0.4166667  -0.5000000), wk =   0.0092593
        k(   63) = (   0.0000000   0.4166667  -0.4166667), wk =   0.0046296
        k(   64) = (   0.0000000   0.4166667  -0.3333333), wk =   0.0092593
        k(   65) = (  -0.0000000   0.4166667  -0.2500000), wk =   0.0092593
        k(   66) = (  -0.0000000   0.4166667  -0.1666667), wk =   0.0092593
        k(   67) = (  -0.0000000   0.4166667  -0.0833333), wk =   0.0092593
        k(   68) = (   0.0000000  -0.5000000   0.0000000), wk =   0.0023148
        k(   69) = (   0.0000000  -0.5000000   0.0833333), wk =   0.0092593
        k(   70) = (   0.0000000  -0.5000000   0.1666667), wk =   0.0092593
        k(   71) = (   0.0000000  -0.5000000   0.2500000), wk =   0.0092593
        k(   72) = (   0.0000000  -0.5000000   0.3333333), wk =   0.0092593
        k(   73) = (  -0.0000000  -0.5000000   0.4166667), wk =   0.0092593
        k(   74) = (   0.0000000  -0.5000000  -0.5000000), wk =   0.0023148
        k(   75) = (   0.0833333   0.0833333   0.0833333), wk =   0.0092593
        k(   76) = (   0.0833333   0.0833333   0.1666667), wk =   0.0092593
        k(   77) = (   0.0833333   0.0833333   0.2500000), wk =   0.0092593
        k(   78) = (   0.0833333   0.0833333   0.3333333), wk =   0.0092593
        k(   79) = (   0.0833333   0.0833333   0.4166667), wk =   0.0046296
        k(   80) = (   0.0833333   0.0833333  -0.0833333), wk =   0.0023148
        k(   81) = (   0.0833333   0.1666667   0.0833333), wk =   0.0092593
        k(   82) = (   0.0833333   0.1666667   0.1666667), wk =   0.0092593
        k(   83) = (   0.0833333   0.1666667   0.2500000), wk =   0.0092593
        k(   84) = (   0.0833333   0.1666667   0.3333333), wk =   0.0092593
        k(   85) = (   0.0833333   0.1666667   0.4166667), wk =   0.0092593
        k(   86) = (   0.0833333   0.1666667  -0.5000000), wk =   0.0092593
        k(   87) = (   0.0833333   0.1666667  -0.4166667), wk =   0.0092593
        k(   88) = (   0.0833333   0.1666667  -0.3333333), wk =   0.0092593
        k(   89) = (   0.0833333   0.1666667  -0.1666667), wk =   0.0046296
        k(   90) = (   0.0833333   0.1666667  -0.0833333), wk =   0.0046296
        k(   91) = (   0.0833333   0.2500000   0.0833333), wk =   0.0092593
        k(   92) = (   0.0833333   0.2500000   0.1666667), wk =   0.0092593
        k(   93) = (   0.0833333   0.2500000   0.2500000), wk =   0.0092593
        k(   94) = (   0.0833333   0.2500000   0.3333333), wk =   0.0092593
        k(   95) = (   0.0833333   0.2500000   0.4166667), wk =   0.0092593
        k(   96) = (   0.0833333   0.2500000  -0.5000000), wk =   0.0092593
        k(   97) = (   0.0833333   0.2500000  -0.4166667), wk =   0.0092593
        k(   98) = (   0.0833333   0.2500000  -0.2500000), wk =   0.0046296
        k(   99) = (   0.0833333   0.2500000  -0.1666667), wk =   0.0092593
        k(  100) = (   0.0833333   0.2500000  -0.0833333), wk =   0.0046296
        k(  101) = (   0.0833333   0.3333333   0.0833333), wk =   0.0092593
        k(  102) = (   0.0833333   0.3333333   0.1666667), wk =   0.0092593
        k(  103) = (   0.0833333   0.3333333   0.2500000), wk =   0.0092593
        k(  104) = (   0.0833333   0.3333333   0.3333333), wk =   0.0092593
        k(  105) = (   0.0833333   0.3333333   0.4166667), wk =   0.0092593
        k(  106) = (   0.0833333   0.3333333  -0.5000000), wk =   0.0092593
        k(  107) = (   0.0833333   0.3333333  -0.3333333), wk =   0.0046296
        k(  108) = (   0.0833333   0.3333333  -0.2500000), wk =   0.0092593
        k(  109) = (   0.0833333   0.3333333  -0.1666667), wk =   0.0092593
        k(  110) = (   0.0833333   0.3333333  -0.0833333), wk =   0.0046296
        k(  111) = (   0.0833333   0.4166667   0.0833333), wk =   0.0046296
        k(  112) = (   0.0833333   0.4166667   0.1666667), wk =   0.0092593
        k(  113) = (   0.0833333   0.4166667   0.2500000), wk =   0.0092593
        k(  114) = (   0.0833333   0.4166667   0.3333333), wk =   0.0092593
        k(  115) = (   0.0833333   0.4166667   0.4166667), wk =   0.0046296
        k(  116) = (   0.0833333   0.4166667  -0.4166667), wk =   0.0046296
        k(  117) = (   0.0833333   0.4166667  -0.3333333), wk =   0.0092593
        k(  118) = (   0.0833333   0.4166667  -0.2500000), wk =   0.0092593
        k(  119) = (   0.0833333   0.4166667  -0.1666667), wk =   0.0092593
        k(  120) = (   0.0833333   0.4166667  -0.0833333), wk =   0.0046296
        k(  121) = (   0.0833333  -0.5000000   0.1666667), wk =   0.0092593
        k(  122) = (   0.0833333  -0.5000000   0.2500000), wk =   0.0092593
        k(  123) = (   0.0833333  -0.5000000  -0.5000000), wk =   0.0046296
        k(  124) = (   0.0833333  -0.5000000  -0.4166667), wk =   0.0092593
        k(  125) = (   0.0833333  -0.5000000  -0.3333333), wk =   0.0092593
        k(  126) = (   0.0833333  -0.5000000  -0.2500000), wk =   0.0092593
        k(  127) = (   0.0833333  -0.5000000  -0.1666667), wk =   0.0092593
        k(  128) = (   0.0833333  -0.5000000  -0.0833333), wk =   0.0046296
        k(  129) = (   0.0833333  -0.4166667   0.1666667), wk =   0.0092593
        k(  130) = (   0.0833333  -0.4166667   0.4166667), wk =   0.0046296
        k(  131) = (   0.0833333  -0.4166667  -0.5000000), wk =   0.0092593
        k(  132) = (   0.0833333  -0.4166667  -0.4166667), wk =   0.0092593
        k(  133) = (   0.0833333  -0.4166667  -0.3333333), wk =   0.0092593
        k(  134) = (   0.0833333  -0.4166667  -0.2500000), wk =   0.0092593
        k(  135) = (   0.0833333  -0.4166667  -0.1666667), wk =   0.0092593
        k(  136) = (   0.0833333  -0.4166667  -0.0833333), wk =   0.0046296
        k(  137) = (   0.0833333  -0.3333333   0.3333333), wk =   0.0046296
        k(  138) = (   0.0833333  -0.3333333   0.4166667), wk =   0.0092593
        k(  139) = (   0.0833333  -0.3333333  -0.5000000), wk =   0.0092593
        k(  140) = (   0.0833333  -0.3333333  -0.4166667), wk =   0.0092593
        k(  141) = (   0.0833333  -0.3333333  -0.3333333), wk =   0.0092593
        k(  142) = (   0.0833333  -0.3333333  -0.2500000), wk =   0.0092593
        k(  143) = (   0.0833333  -0.3333333  -0.1666667), wk =   0.0092593
        k(  144) = (   0.0833333  -0.3333333  -0.0833333), wk =   0.0046296
        k(  145) = (   0.0833333  -0.2500000   0.2500000), wk =   0.0046296
        k(  146) = (   0.0833333  -0.2500000   0.3333333), wk =   0.0092593
        k(  147) = (   0.0833333  -0.2500000   0.4166667), wk =   0.0092593
        k(  148) = (   0.0833333  -0.2500000  -0.5000000), wk =   0.0092593
        k(  149) = (   0.0833333  -0.2500000  -0.4166667), wk =   0.0092593
        k(  150) = (   0.0833333  -0.2500000  -0.3333333), wk =   0.0092593
        k(  151) = (   0.0833333  -0.2500000  -0.2500000), wk =   0.0092593
        k(  152) = (   0.0833333  -0.2500000  -0.1666667), wk =   0.0092593
        k(  153) = (   0.0833333  -0.2500000  -0.0833333), wk =   0.0046296
        k(  154) = (   0.0833333  -0.1666667   0.1666667), wk =   0.0046296
        k(  155) = (   0.0833333  -0.1666667   0.2500000), wk =   0.0092593
        k(  156) = (   0.0833333  -0.1666667   0.3333333), wk =   0.0092593
        k(  157) = (   0.0833333  -0.1666667   0.4166667), wk =   0.0092593
        k(  158) = (   0.0833333  -0.1666667  -0.5000000), wk =   0.0092593
        k(  159) = (   0.0833333  -0.1666667  -0.4166667), wk =   0.0092593
        k(  160) = (   0.0833333  -0.1666667  -0.3333333), wk =   0.0092593
        k(  161) = (   0.0833333  -0.1666667  -0.2500000), wk =   0.0092593
        k(  162) = (   0.0833333  -0.1666667  -0.1666667), wk =   0.0092593
        k(  163) = (   0.0833333  -0.1666667  -0.0833333), wk =   0.0046296
        k(  164) = (   0.0833333  -0.0833333   0.0833333), wk =   0.0023148
        k(  165) = (   0.0833333  -0.0833333   0.1666667), wk =   0.0046296
        k(  166) = (   0.0833333  -0.0833333   0.2500000), wk =   0.0046296
        k(  167) = (   0.0833333  -0.0833333   0.3333333), wk =   0.0046296
        k(  168) = (   0.0833333  -0.0833333   0.4166667), wk =   0.0046296
        k(  169) = (   0.0833333  -0.0833333  -0.5000000), wk =   0.0046296
        k(  170) = (   0.0833333  -0.0833333  -0.4166667), wk =   0.0046296
        k(  171) = (   0.0833333  -0.0833333  -0.3333333), wk =   0.0046296
        k(  172) = (   0.0833333  -0.0833333  -0.2500000), wk =   0.0046296
        k(  173) = (   0.0833333  -0.0833333  -0.1666667), wk =   0.0046296
        k(  174) = (   0.0833333  -0.0833333  -0.0833333), wk =   0.0023148
        k(  175) = (   0.1666667   0.1666667   0.1666667), wk =   0.0092593
        k(  176) = (   0.1666667   0.1666667   0.2500000), wk =   0.0092593
        k(  177) = (   0.1666667   0.1666667   0.3333333), wk =   0.0046296
        k(  178) = (   0.1666667   0.1666667  -0.1666667), wk =   0.0023148
        k(  179) = (   0.1666667   0.2500000   0.1666667), wk =   0.0092593
        k(  180) = (   0.1666667   0.2500000   0.2500000), wk =   0.0092593
        k(  181) = (   0.1666667   0.2500000   0.3333333), wk =   0.0092593
        k(  182) = (   0.1666667   0.2500000   0.4166667), wk =   0.0092593
        k(  183) = (   0.1666667   0.2500000  -0.2500000), wk =   0.0046296
        k(  184) = (   0.1666667   0.2500000  -0.1666667), wk =   0.0046296
        k(  185) = (   0.1666667   0.3333333   0.1666667), wk =   0.0046296
        k(  186) = (   0.1666667   0.3333333   0.2500000), wk =   0.0092593
        k(  187) = (   0.1666667   0.3333333   0.3333333), wk =   0.0046296
        k(  188) = (   0.1666667   0.3333333  -0.3333333), wk =   0.0046296
        k(  189) = (   0.1666667   0.3333333  -0.2500000), wk =   0.0092593
        k(  190) = (   0.1666667   0.3333333  -0.1666667), wk =   0.0046296
        k(  191) = (   0.1666667   0.4166667  -0.4166667), wk =   0.0046296
        k(  192) = (   0.1666667   0.4166667  -0.3333333), wk =   0.0092593
        k(  193) = (   0.1666667   0.4166667  -0.2500000), wk =   0.0092593
        k(  194) = (   0.1666667   0.4166667  -0.1666667), wk =   0.0046296
        k(  195) = (   0.1666667  -0.5000000  -0.5000000), wk =   0.0046296
        k(  196) = (   0.1666667  -0.5000000  -0.4166667), wk =   0.0092593
        k(  197) = (   0.1666667  -0.5000000  -0.3333333), wk =   0.0092593
        k(  198) = (   0.1666667  -0.5000000  -0.2500000), wk =   0.0092593
        k(  199) = (   0.1666667  -0.5000000  -0.1666667), wk =   0.0046296
        k(  200) = (   0.1666667  -0.4166667   0.4166667), wk =   0.0046296
        k(  201) = (   0.1666667  -0.4166667  -0.5000000), wk =   0.0092593
        k(  202) = (   0.1666667  -0.4166667  -0.4166667), wk =   0.0092593
        k(  203) = (   0.1666667  -0.4166667  -0.3333333), wk =   0.0092593
        k(  204) = (   0.1666667  -0.4166667  -0.2500000), wk =   0.0092593
        k(  205) = (   0.1666667  -0.4166667  -0.1666667), wk =   0.0046296
        k(  206) = (   0.1666667  -0.3333333   0.3333333), wk =   0.0046296
        k(  207) = (   0.1666667  -0.3333333   0.4166667), wk =   0.0092593
        k(  208) = (   0.1666667  -0.3333333  -0.5000000), wk =   0.0092593
        k(  209) = (   0.1666667  -0.3333333  -0.4166667), wk =   0.0092593
        k(  210) = (   0.1666667  -0.3333333  -0.3333333), wk =   0.0092593
        k(  211) = (   0.1666667  -0.3333333  -0.2500000), wk =   0.0092593
        k(  212) = (   0.1666667  -0.3333333  -0.1666667), wk =   0.0046296
        k(  213) = (   0.1666667  -0.2500000   0.2500000), wk =   0.0046296
        k(  214) = (   0.1666667  -0.2500000   0.3333333), wk =   0.0092593
        k(  215) = (   0.1666667  -0.2500000   0.4166667), wk =   0.0092593
        k(  216) = (   0.1666667  -0.2500000  -0.5000000), wk =   0.0092593
        k(  217) = (   0.1666667  -0.2500000  -0.4166667), wk =   0.0092593
        k(  218) = (   0.1666667  -0.2500000  -0.3333333), wk =   0.0092593
        k(  219) = (   0.1666667  -0.2500000  -0.2500000), wk =   0.0092593
        k(  220) = (   0.1666667  -0.2500000  -0.1666667), wk =   0.0046296
        k(  221) = (   0.1666667  -0.1666667   0.1666667), wk =   0.0023148
        k(  222) = (   0.1666667  -0.1666667   0.2500000), wk =   0.0046296
        k(  223) = (   0.1666667  -0.1666667   0.3333333), wk =   0.0046296
        k(  224) = (   0.1666667  -0.1666667   0.4166667), wk =   0.0046296
        k(  225) = (   0.1666667  -0.1666667  -0.5000000), wk =   0.0046296
        k(  226) = (   0.1666667  -0.1666667  -0.4166667), wk =   0.0046296
        k(  227) = (   0.1666667  -0.1666667  -0.3333333), wk =   0.0046296
        k(  228) = (   0.1666667  -0.1666667  -0.2500000), wk =   0.0046296
        k(  229) = (   0.1666667  -0.1666667  -0.1666667), wk =   0.0023148
        k(  230) = (   0.2500000   0.2500000   0.2500000), wk =   0.0023148
        k(  231) = (   0.2500000   0.2500000  -0.2500000), wk =   0.0023148
        k(  232) = (   0.2500000   0.3333333  -0.3333333), wk =   0.0046296
        k(  233) = (   0.2500000   0.3333333  -0.2500000), wk =   0.0046296
        k(  234) = (   0.2500000   0.4166667  -0.4166667), wk =   0.0046296
        k(  235) = (   0.2500000   0.4166667  -0.3333333), wk =   0.0092593
        k(  236) = (   0.2500000   0.4166667  -0.2500000), wk =   0.0046296
        k(  237) = (   0.2500000  -0.5000000  -0.5000000), wk =   0.0046296
        k(  238) = (   0.2500000  -0.5000000  -0.4166667), wk =   0.0092593
        k(  239) = (   0.2500000  -0.5000000  -0.3333333), wk =   0.0092593
        k(  240) = (   0.2500000  -0.5000000  -0.2500000), wk =   0.0046296
        k(  241) = (   0.2500000  -0.4166667   0.4166667), wk =   0.0046296
        k(  242) = (   0.2500000  -0.4166667  -0.5000000), wk =   0.0092593
        k(  243) = (   0.2500000  -0.4166667  -0.4166667), wk =   0.0092593
        k(  244) = (   0.2500000  -0.4166667  -0.3333333), wk =   0.0092593
        k(  245) = (   0.2500000  -0.4166667  -0.2500000), wk =   0.0046296
        k(  246) = (   0.2500000  -0.3333333   0.3333333), wk =   0.0046296
        k(  247) = (   0.2500000  -0.3333333   0.4166667), wk =   0.0092593
        k(  248) = (   0.2500000  -0.3333333  -0.5000000), wk =   0.0092593
        k(  249) = (   0.2500000  -0.3333333  -0.4166667), wk =   0.0092593
        k(  250) = (   0.2500000  -0.3333333  -0.3333333), wk =   0.0092593
        k(  251) = (   0.2500000  -0.3333333  -0.2500000), wk =   0.0046296
        k(  252) = (   0.2500000  -0.2500000   0.2500000), wk =   0.0023148
        k(  253) = (   0.2500000  -0.2500000   0.3333333), wk =   0.0046296
        k(  254) = (   0.2500000  -0.2500000   0.4166667), wk =   0.0046296
        k(  255) = (   0.2500000  -0.2500000  -0.5000000), wk =   0.0046296
        k(  256) = (   0.2500000  -0.2500000  -0.4166667), wk =   0.0046296
        k(  257) = (   0.2500000  -0.2500000  -0.3333333), wk =   0.0046296
        k(  258) = (   0.2500000  -0.2500000  -0.2500000), wk =   0.0023148
        k(  259) = (   0.3333333   0.3333333  -0.3333333), wk =   0.0023148
        k(  260) = (   0.3333333   0.4166667  -0.4166667), wk =   0.0046296
        k(  261) = (   0.3333333   0.4166667  -0.3333333), wk =   0.0046296
        k(  262) = (   0.3333333  -0.5000000  -0.5000000), wk =   0.0046296
        k(  263) = (   0.3333333  -0.5000000  -0.4166667), wk =   0.0092593
        k(  264) = (   0.3333333  -0.5000000  -0.3333333), wk =   0.0046296
        k(  265) = (   0.3333333  -0.4166667   0.4166667), wk =   0.0046296
        k(  266) = (   0.3333333  -0.4166667  -0.5000000), wk =   0.0092593
        k(  267) = (   0.3333333  -0.4166667  -0.4166667), wk =   0.0092593
        k(  268) = (   0.3333333  -0.4166667  -0.3333333), wk =   0.0046296
        k(  269) = (   0.3333333  -0.3333333   0.3333333), wk =   0.0023148
        k(  270) = (   0.3333333  -0.3333333   0.4166667), wk =   0.0046296
        k(  271) = (   0.3333333  -0.3333333  -0.5000000), wk =   0.0046296
        k(  272) = (   0.3333333  -0.3333333  -0.4166667), wk =   0.0046296
        k(  273) = (   0.3333333  -0.3333333  -0.3333333), wk =   0.0023148
        k(  274) = (   0.4166667   0.4166667  -0.4166667), wk =   0.0023148
        k(  275) = (   0.4166667  -0.5000000  -0.5000000), wk =   0.0046296
        k(  276) = (   0.4166667  -0.5000000  -0.4166667), wk =   0.0046296
        k(  277) = (   0.4166667  -0.4166667   0.4166667), wk =   0.0023148
        k(  278) = (   0.4166667  -0.4166667  -0.5000000), wk =   0.0046296
        k(  279) = (   0.4166667  -0.4166667  -0.4166667), wk =   0.0023148
        k(  280) = (  -0.5000000  -0.5000000  -0.5000000), wk =   0.0011574

     Dense  grid:   384583 G-vectors     FFT dimensions: ( 144, 144, 144)

     Smooth grid:    97215 G-vectors     FFT dimensions: (  90,  90,  90)

     Dynamical RAM for                 wfc:       0.08 MB

     Dynamical RAM for     wfc (w. buffer):      22.78 MB

     Dynamical RAM for           str. fact:       0.37 MB

     Dynamical RAM for           local pot:       0.00 MB

     Dynamical RAM for          nlocal pot:       0.16 MB

     Dynamical RAM for                qrad:       8.33 MB

     Dynamical RAM for          rho,v,vnew:       1.79 MB

     Dynamical RAM for               rhoin:       0.60 MB

     Dynamical RAM for            rho*nmix:       1.96 MB

     Dynamical RAM for           G-vectors:       0.47 MB

     Dynamical RAM for          h,s,v(r/c):       0.08 MB

     Dynamical RAM for          <psi|beta>:       0.01 MB

     Dynamical RAM for                 psi:       0.16 MB

     Dynamical RAM for                hpsi:       0.16 MB

     Dynamical RAM for                spsi:       0.16 MB

     Dynamical RAM for      wfcinit/wfcrot:       0.21 MB

     Dynamical RAM for           addusdens:      22.98 MB

     Dynamical RAM for          addusforce:      23.30 MB

     Dynamical RAM for         addusstress:      24.57 MB

     Estimated static dynamical RAM per process >      39.32 MB

     Estimated max dynamical RAM per process >      63.90 MB

     Estimated total dynamical RAM >       3.00 GB

     Initial potential from superposition of free atoms

     starting charge   32.99867, renormalised to   33.00000
     Starting wfcs are   25 randomized atomic wfcs
     Checking if some PAW data can be deallocated... 
       PAW data deallocated on   36 nodes for type:  1
       PAW data deallocated on   24 nodes for type:  2
       PAW data deallocated on   36 nodes for type:  3

     total cpu time spent up to now is        7.0 secs

     Self-consistent Calculation

     iteration #  1     ecut=   120.00 Ry     beta= 0.70
     Davidson diagonalization with overlap
     ethr =  1.00E-02,  avg # of iterations =  2.3

     total cpu time spent up to now is       20.5 secs

     total energy              =    -534.52789483 Ry
     estimated scf accuracy    <       0.76267841 Ry

     iteration #  2     ecut=   120.00 Ry     beta= 0.70
     Davidson diagonalization with overlap
     ethr =  2.31E-03,  avg # of iterations =  3.7

     total cpu time spent up to now is       36.5 secs

     total energy              =    -533.60073953 Ry
     estimated scf accuracy    <       8.54954533 Ry

     iteration #  3     ecut=   120.00 Ry     beta= 0.70
     Davidson diagonalization with overlap
     ethr =  2.31E-03,  avg # of iterations =  3.5

     total cpu time spent up to now is       51.3 secs

     total energy              =    -534.97568319 Ry
     estimated scf accuracy    <       0.12712632 Ry

     iteration #  4     ecut=   120.00 Ry     beta= 0.70
     Davidson diagonalization with overlap
     ethr =  3.85E-04,  avg # of iterations =  1.4

     total cpu time spent up to now is       63.4 secs

     total energy              =    -534.96768531 Ry
     estimated scf accuracy    <       0.06160663 Ry

     iteration #  5     ecut=   120.00 Ry     beta= 0.70
     Davidson diagonalization with overlap
     ethr =  1.87E-04,  avg # of iterations =  1.5

     total cpu time spent up to now is       75.5 secs

     total energy              =    -534.96488588 Ry
     estimated scf accuracy    <       0.02240061 Ry

     iteration #  6     ecut=   120.00 Ry     beta= 0.70
     Davidson diagonalization with overlap
     ethr =  6.79E-05,  avg # of iterations =  2.0

     total cpu time spent up to now is       87.9 secs

     total energy              =    -534.96701712 Ry
     estimated scf accuracy    <       0.00093220 Ry

     iteration #  7     ecut=   120.00 Ry     beta= 0.70
     Davidson diagonalization with overlap
     ethr =  2.82E-06,  avg # of iterations =  3.2

     total cpu time spent up to now is      103.3 secs

     total energy              =    -534.96728398 Ry
     estimated scf accuracy    <       0.00020026 Ry

     iteration #  8     ecut=   120.00 Ry     beta= 0.70
     Davidson diagonalization with overlap
     ethr =  6.07E-07,  avg # of iterations =  1.6

     total cpu time spent up to now is      115.3 secs

     total energy              =    -534.96728983 Ry
     estimated scf accuracy    <       0.00002690 Ry

     iteration #  9     ecut=   120.00 Ry     beta= 0.70
     Davidson diagonalization with overlap
     ethr =  8.15E-08,  avg # of iterations =  2.4

     total cpu time spent up to now is      129.0 secs

     total energy              =    -534.96729717 Ry
     estimated scf accuracy    <       0.00000154 Ry

     iteration # 10     ecut=   120.00 Ry     beta= 0.70
     Davidson diagonalization with overlap
     ethr =  4.66E-09,  avg # of iterations =  3.4

     total cpu time spent up to now is      144.0 secs

     total energy              =    -534.96729762 Ry
     estimated scf accuracy    <       0.00000002 Ry

     iteration # 11     ecut=   120.00 Ry     beta= 0.70
     Davidson diagonalization with overlap
     ethr =  5.00E-11,  avg # of iterations =  5.0

     total cpu time spent up to now is      164.3 secs

     total energy              =    -534.96729764 Ry
     estimated scf accuracy    <          1.1E-09 Ry

     iteration # 12     ecut=   120.00 Ry     beta= 0.70
     Davidson diagonalization with overlap
     ethr =  3.28E-12,  avg # of iterations =  2.7

     total cpu time spent up to now is      179.3 secs

     total energy              =    -534.96729764 Ry
     estimated scf accuracy    <          3.7E-10 Ry

     iteration # 13     ecut=   120.00 Ry     beta= 0.70
     Davidson diagonalization with overlap
     ethr =  1.12E-12,  avg # of iterations =  2.0

     total cpu time spent up to now is      192.9 secs

     End of self-consistent calculation

          k = 0.0000 0.0000 0.0000 ( 12131 PWs)   bands (ev):

   -49.8586 -26.0940 -25.8008 -25.7181 -12.4006  -9.5098  -8.8202   0.6253
     2.4740   2.7317   2.8754   2.9882   3.4510   3.9427   4.1980   4.2854
     5.5086   7.1997   7.3401   8.6507   9.3762

     occupation numbers 
     1.0000   1.0000   1.0000   1.0000   1.0000   1.0000   1.0000   1.0000
     1.0000   1.0000   1.0000   1.0000   1.0000   1.0000   1.0000   1.0000
     1.0000  -0.0101  -0.0008  -0.0000  -0.0000

          k = 0.1664 0.1431 0.0000 ( 12121 PWs)   bands (ev):

   -49.8574 -26.1055 -25.7977 -25.7323 -12.3120  -9.4605  -8.8236   0.7210
     2.3215   2.3746   2.7324   3.2154   3.2406   3.8863   3.9017   4.0972
     5.7269   7.3517   7.4501   8.6889   9.7203

     occupation numbers 
     1.0000   1.0000   1.0000   1.0000   1.0000   1.0000   1.0000   1.0000
     1.0000   1.0000   1.0000   1.0000   1.0000   1.0000   1.0000   1.0000
     1.0000  -0.0007  -0.0001  -0.0000  -0.0000

          k = 0.3328 0.2862 0.0000 ( 12128 PWs)   bands (ev):

   -49.8541 -26.1364 -25.7895 -25.7708 -12.0637  -9.3222  -8.8337   0.9906
     1.9443   2.0292   2.1391   2.6734   3.0643   3.2575   3.8813   4.0081
     6.2004   7.7015   7.7677   8.8623  10.4796

     occupation numbers 
     1.0000   1.0000   1.0000   1.0000   1.0000   1.0000   1.0000   1.0000
     1.0000   1.0000   1.0000   1.0000   1.0000   1.0000   1.0000   1.0000
     1.0005  -0.0000  -0.0000  -0.0000  -0.0000

          k = 0.4991 0.4293 0.0000 ( 12152 PWs)   bands (ev):

   -49.8496 -26.1776 -25.8229 -25.7783 -11.7067  -9.1235  -8.8498   1.0882
     1.4059   1.7263   1.9045   1.9992   2.1930   2.9310   3.8428   4.0124
     6.8137   8.1499   8.2574   9.1632  11.1405

     occupation numbers 
     1.0000   1.0000   1.0000   1.0000   1.0000   1.0000   1.0000   1.0000
     1.0000   1.0000   1.0000   1.0000   1.0000   1.0000   1.0000   1.0000
     0.3734  -0.0000  -0.0000  -0.0000  -0.0000

          k = 0.6655 0.5724 0.0000 ( 12170 PWs)   bands (ev):

   -49.8452 -26.2177 -25.8742 -25.7671 -11.3244  -8.9114  -8.8684   0.2498
     1.2291   1.5025   1.6665   1.7731   1.9829   2.5127   3.6525   4.0028
     7.5194   8.6253   8.8060   9.4606  11.3741

     occupation numbers 
     1.0000   1.0000   1.0000   1.0000   1.0000   1.0000   1.0000   1.0000
     1.0000   1.0000   1.0000   1.0000   1.0000   1.0000   1.0000   1.0000
    -0.0000  -0.0000  -0.0000  -0.0000  -0.0000

          k = 0.8319 0.7155 0.0000 ( 12159 PWs)   bands (ev):

   -49.8419 -26.2463 -25.9113 -25.7589 -11.0246  -8.8836  -8.7455  -0.3621
     0.7661   1.0996   1.6840   1.8091   2.1469   2.3916   3.4001   3.9355
     8.1762   9.0124   9.2198   9.6763  11.3674

     occupation numbers 
     1.0000   1.0000   1.0000   1.0000   1.0000   1.0000   1.0000   1.0000
     1.0000   1.0000   1.0000   1.0000   1.0000   1.0000   1.0000   1.0000
    -0.0000  -0.0000  -0.0000  -0.0000  -0.0000

          k =-0.9983-0.8586 0.0000 ( 12140 PWs)   bands (ev):

   -49.8407 -26.2566 -25.9248 -25.7559 -10.9098  -8.8895  -8.6821  -0.5859
     0.5973   0.9601   1.7522   1.8387   1.9741   2.5832   3.2732   3.8796
     8.4686   9.1693   9.3590   9.7696  11.3984

     occupation numbers 
     1.0000   1.0000   1.0000   1.0000   1.0000   1.0000   1.0000   1.0000
     1.0000   1.0000   1.0000   1.0000   1.0000   1.0000   1.0000   1.0000
    -0.0000  -0.0000  -0.0000  -0.0000  -0.0000

          k = 0.1664 0.0000 0.0451 ( 12128 PWs)   bands (ev):

   -49.8576 -26.0928 -25.7982 -25.7327 -12.3927  -9.4692  -8.8262   0.7129
     2.3672   2.7037   2.9126   3.0107   3.3051   3.9129   4.0396   4.1609
     5.7180   7.1581   7.3136   8.6825   9.5689

     occupation numbers 
     1.0000   1.0000   1.0000   1.0000   1.0000   1.0000   1.0000   1.0000
     1.0000   1.0000   1.0000   1.0000   1.0000   1.0000   1.0000   1.0000
     1.0000  -0.0171  -0.0015  -0.0000  -0.0000

          k = 0.3328 0.1431 0.0451 ( 12145 PWs)   bands (ev):

   -49.8547 -26.1023 -25.7907 -25.7720 -12.2907  -9.3509  -8.8350   0.9450
     2.1315   2.3673   2.7460   2.8008   3.1677   3.4405   3.8752   4.0701
     6.1762   7.2353   7.3670   8.8463  10.0996

     occupation numbers 
     1.0000   1.0000   1.0000   1.0000   1.0000   1.0000   1.0000   1.0000
     1.0000   1.0000   1.0000   1.0000   1.0000   1.0000   1.0000   1.0000
     1.0003  -0.0059  -0.0005  -0.0000  -0.0000

          k = 0.4991 0.2862 0.0451 ( 12149 PWs)   bands (ev):

   -49.8505 -26.1319 -25.8246 -25.7800 -12.0351  -9.1653  -8.8496   1.2750
     1.9009   1.9885   2.0795   2.2041   2.5739   2.9979   3.8783   4.0857
     6.7719   7.5562   7.6682   9.1728  10.7647

     occupation numbers 
     1.0000   1.0000   1.0000   1.0000   1.0000   1.0000   1.0000   1.0000
     1.0000   1.0000   1.0000   1.0000   1.0000   1.0000   1.0000   1.0000
     0.5341  -0.0000  -0.0000  -0.0000  -0.0000

          k = 0.6655 0.4293 0.0451 ( 12177 PWs)   bands (ev):

   -49.8460 -26.1729 -25.8760 -25.7687 -11.6789  -8.9565  -8.8662   1.1090
     1.3860   1.5938   1.7408   1.8970   2.0854   2.6003   3.7667   4.1036
     7.4537   8.0382   8.1877   9.5125  11.1728

     occupation numbers 
     1.0000   1.0000   1.0000   1.0000   1.0000   1.0000   1.0000   1.0000
     1.0000   1.0000   1.0000   1.0000   1.0000   1.0000   1.0000   1.0000
    -0.0001  -0.0000  -0.0000  -0.0000  -0.0000

          k = 0.8319 0.5724 0.0451 ( 12171 PWs)   bands (ev):

   -49.8425 -26.2141 -25.9127 -25.7601 -11.3048  -8.8871  -8.7746   0.2662
     0.9772   1.0770   1.7151   1.8336   2.2644   2.3746   3.5093   4.0359
     8.1225   8.5532   8.7617   9.7234  11.2933

     occupation numbers 
     1.0000   1.0000   1.0000   1.0000   1.0000   1.0000   1.0000   1.0000
     1.0000   1.0000   1.0000   1.0000   1.0000   1.0000   1.0000   1.0000
    -0.0000  -0.0000  -0.0000  -0.0000  -0.0000

          k = 0.9983 0.7155 0.0451 ( 12167 PWs)   bands (ev):

   -49.8409 -26.2449 -25.9253 -25.7563 -11.0177  -8.8950  -8.6883  -0.3568
     0.6656   0.9450   1.6271   1.9315   2.0742   2.5953   3.3065   3.9107
     8.4641   8.9805   9.1974   9.7608  11.3423

     occupation numbers 
     1.0000   1.0000   1.0000   1.0000   1.0000   1.0000   1.0000   1.0000
     1.0000   1.0000   1.0000   1.0000   1.0000   1.0000   1.0000   1.0000
    -0.0000  -0.0000  -0.0000  -0.0000  -0.0000

          k =-0.8319-0.8586 0.0451 ( 12162 PWs)   bands (ev):

   -49.8417 -26.2580 -25.9108 -25.7584 -10.9166  -8.8922  -8.7240  -0.5908
     0.6829   1.0913   1.5273   1.8727   2.1977   2.4664   3.3500   3.8597
     8.2023   9.1952   9.3824   9.6298  11.3312

     occupation numbers 
     1.0000   1.0000   1.0000   1.0000   1.0000   1.0000   1.0000   1.0000
     1.0000   1.0000   1.0000   1.0000   1.0000   1.0000   1.0000   1.0000
    -0.0000  -0.0000  -0.0000  -0.0000  -0.0000

          k =-0.6655-0.7155 0.0451 ( 12161 PWs)   bands (ev):

   -49.8445 -26.2500 -25.8729 -25.7659 -11.0434  -8.8828  -8.8650  -0.3765
     1.0080   1.4677   1.5148   1.7488   2.0562   2.5448   3.5620   3.8704
     7.5661   9.0872   9.2578   9.3952  11.4149

     occupation numbers 
     1.0000   1.0000   1.0000   1.0000   1.0000   1.0000   1.0000   1.0000
     1.0000   1.0000   1.0000   1.0000   1.0000   1.0000   1.0000   1.0000
    -0.0000  -0.0000  -0.0000  -0.0000  -0.0000

          k =-0.4991-0.5724 0.0451 ( 12173 PWs)   bands (ev):

   -49.8488 -26.2226 -25.8212 -25.7766 -11.3510  -9.0733  -8.8590   0.2280
     1.4230   1.5129   1.6116   1.8963   2.1528   2.9297   3.7607   3.8705
     6.8656   8.7489   8.8309   9.1504  11.3585

     occupation numbers 
     1.0000   1.0000   1.0000   1.0000   1.0000   1.0000   1.0000   1.0000
     1.0000   1.0000   1.0000   1.0000   1.0000   1.0000   1.0000   1.0000
     0.1961  -0.0000  -0.0000  -0.0000  -0.0000

          k =-0.3328-0.4293 0.0451 ( 12143 PWs)   bands (ev):

   -49.8533 -26.1823 -25.7878 -25.7693 -11.7344  -9.2751  -8.8411   1.0096
     1.1615   1.5517   2.1265   2.3255   2.9152   3.2719   3.8063   3.9086
     6.2465   8.3080   8.3245   8.8758  10.8438

     occupation numbers 
     1.0000   1.0000   1.0000   1.0000   1.0000   1.0000   1.0000   1.0000
     1.0000   1.0000   1.0000   1.0000   1.0000   1.0000   1.0000   1.0000
     1.0014  -0.0000  -0.0000  -0.0000  -0.0000

          k =-0.1664-0.2862 0.0451 ( 12113 PWs)   bands (ev):

   -49.8568 -26.1397 -25.7965 -25.7312 -12.0846  -9.4268  -8.8289   0.7730
     1.8493   2.0140   2.3852   3.0075   3.4082   3.6369   3.8511   3.9561
     5.7601   7.8396   7.8427   8.7097  10.0782

     occupation numbers 
     1.0000   1.0000   1.0000   1.0000   1.0000   1.0000   1.0000   1.0000
     1.0000   1.0000   1.0000   1.0000   1.0000   1.0000   1.0000   1.0000
     1.0000  -0.0000  -0.0000  -0.0000  -0.0000

          k =-0.0000-0.1431 0.0451 ( 12110 PWs)   bands (ev):

   -49.8584 -26.1066 -25.8003 -25.7177 -12.3198  -9.4961  -8.8240   0.6493
     2.3036   2.4843   2.7254   3.2259   3.3747   3.8733   4.0432   4.2227
     5.5228   7.4006   7.4816   8.6642   9.5415

     occupation numbers 
     1.0000   1.0000   1.0000   1.0000   1.0000   1.0000   1.0000   1.0000
     1.0000   1.0000   1.0000   1.0000   1.0000   1.0000   1.0000   1.0000
     1.0000  -0.0002  -0.0000  -0.0000  -0.0000

          k = 0.3328 0.0000 0.0903 ( 12143 PWs)   bands (ev):

   -49.8550 -26.0897 -25.7912 -25.7724 -12.3711  -9.3561  -8.8418   0.9419
     2.1371   2.5738   2.8289   2.9787   3.1180   3.6404   3.8801   4.0560
     6.1800   7.0513   7.2305   8.8239   9.9262

     occupation numbers 
     1.0000   1.0000   1.0000   1.0000   1.0000   1.0000   1.0000   1.0000
     1.0000   1.0000   1.0000   1.0000   1.0000   1.0000   1.0000   1.0000
     1.0003  -0.0354  -0.0064  -0.0000  -0.0000

          k = 0.4991 0.1431 0.0903 ( 12159 PWs)   bands (ev):

   -49.8511 -26.0980 -25.8258 -25.7812 -12.2615  -9.1915  -8.8540   1.2165
     1.9154   2.0823   2.3598   2.7663   3.1305   3.1996   3.8314   4.0113
     6.7630   7.1134   7.2357   9.1521  10.3214

     occupation numbers 
     1.0000   1.0000   1.0000   1.0000   1.0000   1.0000   1.0000   1.0000
     1.0000   1.0000   1.0000   1.0000   1.0000   1.0000   1.0000   1.0000
     0.5687  -0.0264  -0.0059  -0.0000  -0.0000

          k = 0.6655 0.2862 0.0903 ( 12171 PWs)   bands (ev):

   -49.8468 -26.1274 -25.8778 -25.7704 -12.0065  -8.9986  -8.8664   1.3220
     1.5537   1.7695   2.0614   2.1940   2.4491   2.8697   3.8449   4.0994
     7.2761   7.5513   7.6057   9.5255  10.7620

     occupation numbers 
     1.0000   1.0000   1.0000   1.0000   1.0000   1.0000   1.0000   1.0000
     1.0000   1.0000   1.0000   1.0000   1.0000   1.0000   1.0000   1.0000
    -0.0030  -0.0000  -0.0000  -0.0000  -0.0000

          k = 0.8319 0.4293 0.0903 ( 12169 PWs)   bands (ev):

   -49.8433 -26.1694 -25.9145 -25.7617 -11.6585  -8.9044  -8.8005   0.9528
     1.1888   1.3292   1.6179   1.9054   2.4461   2.5805   3.6535   4.1031
     7.8150   8.1261   8.2141   9.7502  11.0392

     occupation numbers 
     1.0000   1.0000   1.0000   1.0000   1.0000   1.0000   1.0000   1.0000
     1.0000   1.0000   1.0000   1.0000   1.0000   1.0000   1.0000   1.0000
    -0.0000  -0.0000  -0.0000  -0.0000  -0.0000

          k = 0.9983 0.5724 0.0903 ( 12177 PWs)   bands (ev):

   -49.8415 -26.2127 -25.9267 -25.7575 -11.2976  -8.9100  -8.7049   0.2722
     0.8266   0.9471   1.5092   1.9562   2.3522   2.6438   3.4052   3.9842
     8.4095   8.5323   8.7433   9.7501  11.1745

     occupation numbers 
     1.0000   1.0000   1.0000   1.0000   1.0000   1.0000   1.0000   1.0000
     1.0000   1.0000   1.0000   1.0000   1.0000   1.0000   1.0000   1.0000
    -0.0000  -0.0000  -0.0000  -0.0000  -0.0000

          k = 1.1647 0.7155 0.0903 ( 12179 PWs)   bands (ev):

   -49.8419 -26.2463 -25.9113 -25.7589 -11.0245  -8.9103  -8.7162  -0.3622
     0.7406   1.0500   1.4167   1.9347   2.3342   2.5658   3.3707   3.8440
     8.2157   9.0068   9.2197   9.5798  11.2339

     occupation numbers 
     1.0000   1.0000   1.0000   1.0000   1.0000   1.0000   1.0000   1.0000
     1.0000   1.0000   1.0000   1.0000   1.0000   1.0000   1.0000   1.0000
    -0.0000  -0.0000  -0.0000  -0.0000  -0.0000

          k =-0.6655-0.8586 0.0903 ( 12179 PWs)   bands (ev):

   -49.8443 -26.2618 -25.8724 -25.7654 -10.9349  -8.8999  -8.8356  -0.6041
     0.9091   1.3520   1.4831   1.7294   2.1982   2.6252   3.5325   3.7606
     7.5991   9.2181   9.3608   9.4401  11.3800

     occupation numbers 
     1.0000   1.0000   1.0000   1.0000   1.0000   1.0000   1.0000   1.0000
     1.0000   1.0000   1.0000   1.0000   1.0000   1.0000   1.0000   1.0000
    -0.0000  -0.0000  -0.0000  -0.0000  -0.0000

          k =-0.4991-0.7155 0.0903 ( 12183 PWs)   bands (ev):

   -49.8482 -26.2551 -25.8200 -25.7754 -11.0687  -9.0226  -8.8805  -0.3957
     1.2367   1.3379   1.6363   1.8629   2.1449   2.9524   3.6640   3.7615
     6.9127   8.9978   9.2280   9.3529  11.4519

     occupation numbers 
     1.0000   1.0000   1.0000   1.0000   1.0000   1.0000   1.0000   1.0000
     1.0000   1.0000   1.0000   1.0000   1.0000   1.0000   1.0000   1.0000
     0.0772  -0.0000  -0.0000  -0.0000  -0.0000

          k =-0.3328-0.5724 0.0903 ( 12156 PWs)   bands (ev):

   -49.8524 -26.2276 -25.7861 -25.7677 -11.3774  -9.2180  -8.8604   0.2067
     1.1339   1.3057   1.9492   2.1372   2.8494   3.2294   3.6321   3.8896
     6.2976   8.7612   8.9101   9.0090  11.1132

     occupation numbers 
     1.0000   1.0000   1.0000   1.0000   1.0000   1.0000   1.0000   1.0000
     1.0000   1.0000   1.0000   1.0000   1.0000   1.0000   1.0000   1.0000
     1.0037  -0.0000  -0.0000  -0.0000  -0.0000

          k =-0.1664-0.4293 0.0903 ( 12130 PWs)   bands (ev):

   -49.8559 -26.1858 -25.7948 -25.7297 -11.7545  -9.3739  -8.8446   0.8390
     1.0962   1.4458   2.3915   2.6800   3.2343   3.5612   3.7577   3.9245
     5.8035   8.3875   8.4570   8.7446  10.4593

     occupation numbers 
     1.0000   1.0000   1.0000   1.0000   1.0000   1.0000   1.0000   1.0000
     1.0000   1.0000   1.0000   1.0000   1.0000   1.0000   1.0000   1.0000
     1.0000  -0.0000  -0.0000  -0.0000  -0.0000

          k = 0.0000-0.2862 0.0903 ( 12119 PWs)   bands (ev):

   -49.8577 -26.1409 -25.7991 -25.7166 -12.0922  -9.4572  -8.8361   0.7149
     1.8217   2.0094   2.5128   3.1630   3.3913   3.6134   3.9244   4.1096
     5.5543   7.8689   7.9007   8.7011   9.9139

     occupation numbers 
     1.0000   1.0000   1.0000   1.0000   1.0000   1.0000   1.0000   1.0000
     1.0000   1.0000   1.0000   1.0000   1.0000   1.0000   1.0000   1.0000
     1.0000  -0.0000  -0.0000  -0.0000  -0.0000

          k = 0.1664-0.1431 0.0903 ( 12119 PWs)   bands (ev):

   -49.8574 -26.1055 -25.7977 -25.7323 -12.3119  -9.4511  -8.8354   0.7518
     2.3282   2.3772   2.7309   3.1881   3.2449   3.7815   3.9654   4.0875
     5.7371   7.3494   7.4606   8.6927   9.7602

     occupation numbers 
     1.0000   1.0000   1.0000   1.0000   1.0000   1.0000   1.0000   1.0000
     1.0000   1.0000   1.0000   1.0000   1.0000   1.0000   1.0000   1.0000
     1.0000  -0.0007  -0.0000  -0.0000  -0.0000

          k = 0.4991 0.0000 0.1354 ( 12156 PWs)   bands (ev):

   -49.8513 -26.0854 -25.8262 -25.7816 -12.3418  -9.1976  -8.8592   1.1909
     1.9306   2.0319   2.4825   3.0382   3.3255   3.4509   3.7777   3.9027
     6.7916   6.9252   7.0801   9.1075  10.0963

     occupation numbers 
     1.0000   1.0000   1.0000   1.0000   1.0000   1.0000   1.0000   1.0000
     1.0000   1.0000   1.0000   1.0000   1.0000   1.0000   1.0000   1.0000
     0.4576   0.0535  -0.0326  -0.0000  -0.0000

          k = 0.6655 0.1431 0.1354 ( 12168 PWs)   bands (ev):

   -49.8474 -26.0936 -25.8791 -25.7716 -12.2325  -9.0303  -8.8649   1.2558
     1.4874   1.8965   2.1632   2.8101   3.0869   3.2625   3.8000   3.9468
     6.9600   7.0626   7.5034   9.4957  10.2738

     occupation numbers 
     1.0000   1.0000   1.0000   1.0000   1.0000   1.0000   1.0000   1.0000
     1.0000   1.0000   1.0000   1.0000   1.0000   1.0000   1.0000   1.0000
     0.0042  -0.0348  -0.0000  -0.0000  -0.0000

          k = 0.8319 0.2862 0.1354 ( 12172 PWs)   bands (ev):

   -49.8442 -26.1241 -25.9164 -25.7633 -11.9855  -8.9321  -8.8149   0.9214
     1.4524   1.6727   1.9327   2.2101   2.6396   3.0072   3.7864   4.0606
     7.2725   7.4547   8.1580   9.7398  10.6084

     occupation numbers 
     1.0000   1.0000   1.0000   1.0000   1.0000   1.0000   1.0000   1.0000
     1.0000   1.0000   1.0000   1.0000   1.0000   1.0000   1.0000   1.0000
    -0.0032  -0.0001  -0.0000  -0.0000  -0.0000

          k = 0.9983 0.4293 0.1354 ( 12163 PWs)   bands (ev):

   -49.8423 -26.1682 -25.9286 -25.7591 -11.6510  -8.9304  -8.7273   0.7726
     1.2072   1.2180   1.4341   1.9587   2.6309   2.8145   3.5575   4.0442
     7.8393   8.1028   8.4590   9.7386  10.8894

     occupation numbers 
     1.0000   1.0000   1.0000   1.0000   1.0000   1.0000   1.0000   1.0000
     1.0000   1.0000   1.0000   1.0000   1.0000   1.0000   1.0000   1.0000
    -0.0000  -0.0000  -0.0000  -0.0000  -0.0000

          k = 1.1647 0.5724 0.1354 ( 12188 PWs)   bands (ev):

   -49.8425 -26.2141 -25.9127 -25.7601 -11.3046  -8.9342  -8.7230   0.2660
     0.9091   1.0224   1.3459   2.0146   2.5051   2.6761   3.4659   3.8950
     8.2153   8.5170   8.7665   9.5458  11.0706

     occupation numbers 
     1.0000   1.0000   1.0000   1.0000   1.0000   1.0000   1.0000   1.0000
     1.0000   1.0000   1.0000   1.0000   1.0000   1.0000   1.0000   1.0000
    -0.0000  -0.0000  -0.0000  -0.0000  -0.0000

          k = 1.3311 0.7155 0.1354 ( 12175 PWs)   bands (ev):

   -49.8445 -26.2500 -25.8729 -25.7659 -11.0431  -8.9287  -8.8169  -0.3767
     0.9550   1.3025   1.4324   1.7588   2.3481   2.7080   3.5750   3.7204
     7.6144   9.0481   9.2726   9.3036  11.2987

     occupation numbers 
     1.0000   1.0000   1.0000   1.0000   1.0000   1.0000   1.0000   1.0000
     1.0000   1.0000   1.0000   1.0000   1.0000   1.0000   1.0000   1.0000
    -0.0000  -0.0000  -0.0000  -0.0000  -0.0000

          k =-0.4991-0.8586 0.1354 ( 12184 PWs)   bands (ev):

   -49.8480 -26.2669 -25.8195 -25.7750 -10.9596  -8.9818  -8.9111  -0.6223
     1.1699   1.2140   1.7282   1.8068   2.1878   2.9722   3.5789   3.7457
     6.9446   8.9626   9.4060   9.5010  11.4630

     occupation numbers 
     1.0000   1.0000   1.0000   1.0000   1.0000   1.0000   1.0000   1.0000
     1.0000   1.0000   1.0000   1.0000   1.0000   1.0000   1.0000   1.0000
     0.0230  -0.0000  -0.0000  -0.0000  -0.0000

          k =-0.3328-0.7155 0.1354 ( 12177 PWs)   bands (ev):

   -49.8518 -26.2602 -25.7849 -25.7665 -11.0937  -9.1616  -8.8912  -0.4146
     1.0012   1.3593   1.7446   2.0659   2.8316   3.1264   3.5234   3.8894
     6.3403   8.8035   9.3535   9.3909  11.2762

     occupation numbers 
     1.0000   1.0000   1.0000   1.0000   1.0000   1.0000   1.0000   1.0000
     1.0000   1.0000   1.0000   1.0000   1.0000   1.0000   1.0000   1.0000
     1.0074  -0.0000  -0.0000  -0.0000  -0.0000

          k =-0.1664-0.5724 0.1354 ( 12144 PWs)   bands (ev):

   -49.8551 -26.2312 -25.7931 -25.7281 -11.3966  -9.3117  -8.8717   0.1908
     0.9060   1.2166   2.2868   2.4596   2.9697   3.5111   3.6622   3.9564
     5.8465   8.7563   8.9742   9.0498  10.7752

     occupation numbers 
     1.0000   1.0000   1.0000   1.0000   1.0000   1.0000   1.0000   1.0000
     1.0000   1.0000   1.0000   1.0000   1.0000   1.0000   1.0000   1.0000
     1.0000  -0.0000  -0.0000  -0.0000  -0.0000

          k = 0.0000-0.4293 0.1354 ( 12137 PWs)   bands (ev):

   -49.8569 -26.1871 -25.7974 -25.7151 -11.7618  -9.3997  -8.8577   0.7867
     1.0878   1.4320   2.5531   2.8892   3.0188   3.5576   3.9480   4.0192
     5.5924   8.4074   8.5194   8.7522  10.3179

     occupation numbers 
     1.0000   1.0000   1.0000   1.0000   1.0000   1.0000   1.0000   1.0000
     1.0000   1.0000   1.0000   1.0000   1.0000   1.0000   1.0000   1.0000
     1.0000  -0.0000  -0.0000  -0.0000  -0.0000

          k = 0.1664-0.2862 0.1354 ( 12127 PWs)   bands (ev):

   -49.8568 -26.1397 -25.7965 -25.7312 -12.0844  -9.4086  -8.8513   0.8280
     1.8698   2.0188   2.3914   3.0005   3.2680   3.5842   3.8456   4.0273
     5.7731   7.8390   7.8507   8.7195  10.1543

     occupation numbers 
     1.0000   1.0000   1.0000   1.0000   1.0000   1.0000   1.0000   1.0000
     1.0000   1.0000   1.0000   1.0000   1.0000   1.0000   1.0000   1.0000
     1.0000  -0.0000  -0.0000  -0.0000  -0.0000

          k = 0.3328-0.1431 0.1354 ( 12136 PWs)   bands (ev):

   -49.8547 -26.1023 -25.7908 -25.7720 -12.2905  -9.3362  -8.8523   0.9822
     2.1405   2.3512   2.7428   2.7506   3.1683   3.4466   3.8843   4.0592
     6.2016   7.2224   7.3849   8.8057  10.1285

     occupation numbers 
     1.0000   1.0000   1.0000   1.0000   1.0000   1.0000   1.0000   1.0000
     1.0000   1.0000   1.0000   1.0000   1.0000   1.0000   1.0000   1.0000
     1.0005  -0.0073  -0.0003  -0.0000  -0.0000

          k = 0.6655 0.0000 0.1805 ( 12170 PWs)   bands (ev):

   -49.8477 -26.0812 -25.8795 -25.7720 -12.3126  -9.0466  -8.8588   1.2134
     1.4056   1.9664   2.2253   3.1131   3.4099   3.5508   3.7186   3.7504
     6.8204   6.8738   7.4965   9.4358  10.0205

     occupation numbers 
     1.0000   1.0000   1.0000   1.0000   1.0000   1.0000   1.0000   1.0000
     1.0000   1.0000   1.0000   1.0000   1.0000   1.0000   1.0000   1.0000
     0.3486   0.1723  -0.0000  -0.0000  -0.0000

          k = 0.8319 0.1431 0.1805 ( 12182 PWs)   bands (ev):

   -49.8448 -26.0904 -25.9177 -25.7645 -12.2112  -8.9601  -8.8168   0.8658
     1.3880   1.9144   1.9639   2.9269   3.0724   3.4485   3.7735   3.9148
     6.8804   6.9156   8.1399   9.6741  10.1572

     occupation numbers 
     1.0000   1.0000   1.0000   1.0000   1.0000   1.0000   1.0000   1.0000
     1.0000   1.0000   1.0000   1.0000   1.0000   1.0000   1.0000   1.0000
     0.1539   0.0714  -0.0000  -0.0000  -0.0000

          k = 0.9983 0.2862 0.1805 ( 12170 PWs)   bands (ev):

   -49.8432 -26.1229 -25.9304 -25.7608 -11.9778  -8.9505  -8.7495   0.7276
     1.3514   1.6014   1.9397   2.2082   2.8027   3.1945   3.7303   4.0078
     7.2522   7.4144   8.4428   9.7090  10.4989

[...]

   -49.8584 -26.1066 -25.8004 -25.7177 -12.3180  -9.3124  -9.0421   1.2382
     2.2617   2.6437   2.6445   2.8013   3.2945   3.5589   3.9288   4.0143
     5.5669   7.4005   7.6095   8.9486  10.0455

     occupation numbers 
     1.0000   1.0000   1.0000   1.0000   1.0000   1.0000   1.0000   1.0000
     1.0000   1.0000   1.0000   1.0000   1.0000   1.0000   1.0000   1.0000
     1.0000  -0.0002  -0.0000  -0.0000  -0.0000

          k = 0.1664-0.0000 0.4061 ( 12140 PWs)   bands (ev):

   -49.8576 -26.0928 -25.7983 -25.7327 -12.3910  -9.2980  -9.0276   1.2756
     2.1222   2.6550   2.7987   3.1348   3.3399   3.5399   3.8626   3.9426
     5.8203   7.1368   7.4635   8.8303   9.9075

     occupation numbers 
     1.0000   1.0000   1.0000   1.0000   1.0000   1.0000   1.0000   1.0000
     1.0000   1.0000   1.0000   1.0000   1.0000   1.0000   1.0000   1.0000
     1.0000  -0.0214  -0.0000  -0.0000  -0.0000

          k =-1.9966-0.2862-0.0903 ( 12171 PWs)   bands (ev):

   -49.8578 -26.1409 -25.7991 -25.7166 -12.0903  -9.2487  -9.0772   1.2842
     1.9933   2.1027   2.3575   2.6669   3.1229   3.2403   3.8777   4.2189
     5.5897   7.8991   7.9236   8.9656  10.4747

     occupation numbers 
     1.0000   1.0000   1.0000   1.0000   1.0000   1.0000   1.0000   1.0000
     1.0000   1.0000   1.0000   1.0000   1.0000   1.0000   1.0000   1.0000
     1.0000  -0.0000  -0.0000  -0.0000  -0.0000

          k =-1.8302-0.1431-0.0903 ( 12141 PWs)   bands (ev):

   -49.8574 -26.1055 -25.7978 -25.7323 -12.3102  -9.2551  -9.0618   1.3724
     2.0139   2.5476   2.6426   2.9960   3.1146   3.5623   3.8366   3.9507
     5.8309   7.3361   7.5762   8.8563  10.1273

     occupation numbers 
     1.0000   1.0000   1.0000   1.0000   1.0000   1.0000   1.0000   1.0000
     1.0000   1.0000   1.0000   1.0000   1.0000   1.0000   1.0000   1.0000
     1.0000  -0.0009  -0.0000  -0.0000  -0.0000

          k =-1.6638-0.0000-0.0903 ( 12135 PWs)   bands (ev):

   -49.8550 -26.0897 -25.7913 -25.7724 -12.3697  -9.2141  -9.0014   1.3753
     1.7632   2.5115   2.7202   2.8443   3.4825   3.6984   3.7934   3.8271
     6.3530   6.9822   7.3266   8.6762   9.9595

     occupation numbers 
     1.0000   1.0000   1.0000   1.0000   1.0000   1.0000   1.0000   1.0000
     1.0000   1.0000   1.0000   1.0000   1.0000   1.0000   1.0000   1.0000
     1.0089  -0.0156  -0.0011  -0.0000  -0.0000

          k = 0.0000 1.2879-0.0451 ( 12182 PWs)   bands (ev):

   -49.8569 -26.1871 -25.7974 -25.7151 -11.7601  -9.1814  -9.1026   0.9824
     1.4002   1.6518   2.2771   2.6788   2.8748   2.9984   3.8157   4.3557
     5.6188   8.4125   8.5178   8.9609  10.8004

     occupation numbers 
     1.0000   1.0000   1.0000   1.0000   1.0000   1.0000   1.0000   1.0000
     1.0000   1.0000   1.0000   1.0000   1.0000   1.0000   1.0000   1.0000
     1.0000  -0.0000  -0.0000  -0.0000  -0.0000

          k =-1.8302-0.2862-0.0451 ( 12164 PWs)   bands (ev):

   -49.8568 -26.1397 -25.7966 -25.7312 -12.0827  -9.1946  -9.0922   1.3845
     1.9372   2.0760   2.1468   2.8895   2.9133   3.3054   3.6371   4.2379
     5.8507   7.8367   7.8907   8.8760  10.5497

     occupation numbers 
     1.0000   1.0000   1.0000   1.0000   1.0000   1.0000   1.0000   1.0000
     1.0000   1.0000   1.0000   1.0000   1.0000   1.0000   1.0000   1.0000
     1.0000  -0.0000  -0.0000  -0.0000  -0.0000

          k =-1.6638-0.1431-0.0451 ( 12133 PWs)   bands (ev):

   -49.8547 -26.1023 -25.7908 -25.7720 -12.2891  -9.1872  -9.0179   1.4619
     1.6558   2.5012   2.5656   2.7000   3.2834   3.4582   3.7305   4.0389
     6.3653   7.1792   7.4478   8.6879  10.1620

     occupation numbers 
     1.0000   1.0000   1.0000   1.0000   1.0000   1.0000   1.0000   1.0000
     1.0000   1.0000   1.0000   1.0000   1.0000   1.0000   1.0000   1.0000
     1.0106  -0.0133  -0.0001  -0.0000  -0.0000

          k =-1.4974-0.0000-0.0451 ( 12169 PWs)   bands (ev):

   -49.8513 -26.0854 -25.8262 -25.7817 -12.3409  -9.1458  -8.9125   1.2069
     1.5167   2.1187   2.6255   2.9200   3.6518   3.6608   3.7253   3.8987
     6.8179   6.9743   7.1023   8.6971   9.8814

     occupation numbers 
     1.0000   1.0000   1.0000   1.0000   1.0000   1.0000   1.0000   1.0000
     1.0000   1.0000   1.0000   1.0000   1.0000   1.0000   1.0000   1.0000
     0.3577  -0.0095  -0.0287  -0.0000  -0.0000

          k =-0.0000 1.1448-0.0000 ( 12185 PWs)   bands (ev):

   -49.8561 -26.2325 -25.7957 -25.7136 -11.4022  -9.1745  -9.0662   0.1778
     1.2273   1.2510   2.3950   2.6367   2.6767   2.8414   3.8221   4.3480
     5.6434   8.9354   8.9611   9.1041  10.9297

     occupation numbers 
     1.0000   1.0000   1.0000   1.0000   1.0000   1.0000   1.0000   1.0000
     1.0000   1.0000   1.0000   1.0000   1.0000   1.0000   1.0000   1.0000
     1.0000  -0.0000  -0.0000  -0.0000  -0.0000

          k = 0.1664 1.2879-0.0000 ( 12190 PWs)   bands (ev):

   -49.8559 -26.1858 -25.7949 -25.7297 -11.7528  -9.1233  -9.1206   0.9983
     1.4772   1.6394   2.0381   2.6317   2.8936   3.1617   3.5162   4.3423
     5.8719   8.3748   8.4601   8.8903  10.8818

     occupation numbers 
     1.0000   1.0000   1.0000   1.0000   1.0000   1.0000   1.0000   1.0000
     1.0000   1.0000   1.0000   1.0000   1.0000   1.0000   1.0000   1.0000
     1.0000  -0.0000  -0.0000  -0.0000  -0.0000

          k =-1.6638-0.2862-0.0000 ( 12170 PWs)   bands (ev):

   -49.8541 -26.1364 -25.7896 -25.7708 -12.0621  -9.1478  -9.0264   1.5026
     1.5453   2.0986   2.2250   2.4402   3.1182   3.1404   3.5526   4.2369
     6.3775   7.6827   7.7972   8.7210  10.5921

     occupation numbers 
     1.0000   1.0000   1.0000   1.0000   1.0000   1.0000   1.0000   1.0000
     1.0000   1.0000   1.0000   1.0000   1.0000   1.0000   1.0000   1.0000
     1.0125  -0.0000  -0.0000  -0.0000  -0.0000

          k =-1.4974-0.1431-0.0000 ( 12160 PWs)   bands (ev):

   -49.8511 -26.0980 -25.8258 -25.7812 -12.2605  -9.1341  -8.9131   1.2211
     1.5104   2.0557   2.5483   2.7599   3.3401   3.4519   3.7325   4.0709
     6.9750   7.0150   7.2559   8.7049  10.0799

     occupation numbers 
     1.0000   1.0000   1.0000   1.0000   1.0000   1.0000   1.0000   1.0000
     1.0000   1.0000   1.0000   1.0000   1.0000   1.0000   1.0000   1.0000
    -0.0101  -0.0313  -0.0042  -0.0000  -0.0000

          k =-1.3311-0.0000-0.0000 ( 12151 PWs)   bands (ev):

   -49.8477 -26.0812 -25.8795 -25.7721 -12.3121  -9.0872  -8.8104   1.0491
     1.0875   2.0371   2.4933   3.0261   3.6032   3.6583   3.8496   3.8647
     6.7136   6.8502   7.6303   8.9816   9.7452

     occupation numbers 
     1.0000   1.0000   1.0000   1.0000   1.0000   1.0000   1.0000   1.0000
     1.0000   1.0000   1.0000   1.0000   1.0000   1.0000   1.0000   1.0000
     0.7478   0.2446  -0.0000  -0.0000  -0.0000

          k = 0.0000 0.0000 0.4513 ( 12116 PWs)   bands (ev):

   -49.8586 -26.0940 -25.8009 -25.7181 -12.3985  -9.2858  -9.0836   1.3488
     2.2174   2.6617   2.7760   3.3284   3.3443   3.3589   3.8272   4.0707
     5.5600   7.2007   7.5281   8.9788   9.8895

     occupation numbers 
     1.0000   1.0000   1.0000   1.0000   1.0000   1.0000   1.0000   1.0000
     1.0000   1.0000   1.0000   1.0000   1.0000   1.0000   1.0000   1.0000
     1.0000  -0.0100  -0.0000  -0.0000  -0.0000

          k =-1.9966-0.1431-0.0451 ( 12151 PWs)   bands (ev):

   -49.8584 -26.1066 -25.8004 -25.7177 -12.3178  -9.2413  -9.1184   1.4125
     2.1446   2.6120   2.6762   2.7597   3.2735   3.5622   3.8902   3.9840
     5.5689   7.4005   7.6311   8.9926  10.1112

     occupation numbers 
     1.0000   1.0000   1.0000   1.0000   1.0000   1.0000   1.0000   1.0000
     1.0000   1.0000   1.0000   1.0000   1.0000   1.0000   1.0000   1.0000
     1.0000  -0.0002  -0.0000  -0.0000  -0.0000

          k =-1.8302 0.0000-0.0451 ( 12123 PWs)   bands (ev):

   -49.8576 -26.0928 -25.7983 -25.7327 -12.3907  -9.2375  -9.0928   1.4733
     1.9277   2.6944   2.7905   3.0981   3.4104   3.5099   3.7881   3.9165
     5.8283   7.1353   7.4843   8.8680   9.9376

     occupation numbers 
     1.0000   1.0000   1.0000   1.0000   1.0000   1.0000   1.0000   1.0000
     1.0000   1.0000   1.0000   1.0000   1.0000   1.0000   1.0000   1.0000
     1.0000  -0.0217  -0.0000  -0.0000  -0.0000

          k = 0.0000 1.4311 0.0000 ( 12179 PWs)   bands (ev):

   -49.8578 -26.1409 -25.7992 -25.7166 -12.0902  -9.1872  -9.1412   1.3604
     2.0402   2.1164   2.2216   2.6823   3.1173   3.2088   3.8592   4.2288
     5.5918   7.8990   7.9307   8.9860  10.5145

     occupation numbers 
     1.0000   1.0000   1.0000   1.0000   1.0000   1.0000   1.0000   1.0000
     1.0000   1.0000   1.0000   1.0000   1.0000   1.0000   1.0000   1.0000
     1.0000  -0.0000  -0.0000  -0.0000  -0.0000

          k =-1.8302-0.1431 0.0000 ( 12161 PWs)   bands (ev):

   -49.8574 -26.1055 -25.7979 -25.7323 -12.3101  -9.2124  -9.1068   1.4921
     1.9009   2.5766   2.6221   3.0327   3.0640   3.5614   3.8216   3.9355
     5.8355   7.3356   7.5845   8.8753  10.1459

     occupation numbers 
     1.0000   1.0000   1.0000   1.0000   1.0000   1.0000   1.0000   1.0000
     1.0000   1.0000   1.0000   1.0000   1.0000   1.0000   1.0000   1.0000
     1.0000  -0.0009  -0.0000  -0.0000  -0.0000

          k =-1.6638 0.0000 0.0000 ( 12135 PWs)   bands (ev):

   -49.8550 -26.0897 -25.7913 -25.7724 -12.3696  -9.1926  -9.0242   1.5143
     1.6104   2.5486   2.6913   2.8388   3.5297   3.7461   3.7493   3.7761
     6.3653   6.9787   7.3321   8.6756   9.9522

     occupation numbers 
     1.0000   1.0000   1.0000   1.0000   1.0000   1.0000   1.0000   1.0000
     1.0000   1.0000   1.0000   1.0000   1.0000   1.0000   1.0000   1.0000
     1.0106  -0.0130  -0.0010  -0.0000  -0.0000

          k =-1.9966-1.7173-0.5415 ( 12132 PWs)   bands (ev):

   -49.8586 -26.0940 -25.8009 -25.7181 -12.3984  -9.2361  -9.1361   1.4649
     2.1030   2.6799   2.7726   3.3139   3.3359   3.3835   3.7837   4.0570
     5.5600   7.2007   7.5412   9.0024   9.9186

     occupation numbers 
     1.0000   1.0000   1.0000   1.0000   1.0000   1.0000   1.0000   1.0000
     1.0000   1.0000   1.0000   1.0000   1.0000   1.0000   1.0000   1.0000
     1.0000  -0.0100  -0.0000  -0.0000  -0.0000

     the Fermi energy is     6.7807 ev

!    total energy              =    -534.96729764 Ry

     total all-electron energy =     -9636.857540 Ry
     estimated scf accuracy    <          7.0E-12 Ry
     smearing contrib. (-TS)   =      -0.00029978 Ry
     internal energy E=F+TS    =    -534.96699786 Ry

     The total energy is F=E-TS. E is the sum of the following terms:
     one-electron contribution =     -93.94395828 Ry
     hartree contribution      =      61.21176842 Ry
     xc contribution           =     -39.53542354 Ry
     ewald contribution        =    -135.48921389 Ry
     one-center paw contrib.   =    -327.21017057 Ry
      -> PAW hartree energy AE =      29.09737648 Ry
      -> PAW hartree energy PS =     -29.06730975 Ry
      -> PAW xc energy AE      =     -17.03886720 Ry
      -> PAW xc energy PS      =       7.41472991 Ry
      -> total E_H with PAW    =      61.24183515 Ry
      -> total E_XC with PAW   =     -49.15956083 Ry

     convergence has been achieved in  13 iterations

     Forces acting on atoms (cartesian axes, Ry/au):

     atom    1 type  1   force =     0.00000000    0.00000000    0.00000000
     atom    2 type  2   force =     0.00000000    0.00000000    0.03626259
     atom    3 type  2   force =     0.00000000    0.00000000   -0.03626259
     atom    4 type  3   force =    -0.00000000   -0.00000000    0.00000000
     The non-local contrib.  to forces
     atom    1 type  1   force =    -0.00000000   -0.00000000   -0.00000000
     atom    2 type  2   force =     0.00000000    0.00000000    0.06477422
     atom    3 type  2   force =     0.00000000    0.00000000   -0.06477422
     atom    4 type  3   force =     0.00000000    0.00000000    0.00000000
     The ionic contribution  to forces
     atom    1 type  1   force =    -0.00000000   -0.00000000    0.00000000
     atom    2 type  2   force =     0.00000001    0.00000000  -10.07462875
     atom    3 type  2   force =    -0.00000001   -0.00000000   10.07462875
     atom    4 type  3   force =    -0.00000000   -0.00000000    0.00000000
     The local contribution  to forces
     atom    1 type  1   force =     0.00000000    0.00000000    0.00000000
     atom    2 type  2   force =     0.00000002   -0.00000003   10.04460639
     atom    3 type  2   force =    -0.00000002    0.00000003  -10.04460639
     atom    4 type  3   force =     0.00000000    0.00000000    0.00000000
     The core correction contribution to forces
     atom    1 type  1   force =     0.00000000    0.00000000    0.00000000
     atom    2 type  2   force =    -0.00000000    0.00000000    0.00151177
     atom    3 type  2   force =     0.00000000   -0.00000000   -0.00151177
     atom    4 type  3   force =     0.00000000    0.00000000    0.00000000
     The Hubbard contrib.    to forces
     atom    1 type  1   force =     0.00000000    0.00000000    0.00000000
     atom    2 type  2   force =     0.00000000    0.00000000    0.00000000
     atom    3 type  2   force =     0.00000000    0.00000000    0.00000000
     atom    4 type  3   force =     0.00000000    0.00000000    0.00000000
     The SCF correction term to forces
     atom    1 type  1   force =     0.00000000   -0.00000000    0.00000000
     atom    2 type  2   force =    -0.00000000    0.00000000   -0.00000103
     atom    3 type  2   force =     0.00000000   -0.00000000    0.00000103
     atom    4 type  3   force =     0.00000000   -0.00000000   -0.00000000

     Total force =     0.051283     Total SCF correction =     0.000001


     Computing stress (Cartesian axis) and pressure

          total   stress  (Ry/bohr**3)                   (kbar)     P=      -39.24
  -0.00027749   0.00000000   0.00000000          -40.82        0.00        0.00
   0.00000000  -0.00025623   0.00000000            0.00      -37.69        0.00
   0.00000000   0.00000000  -0.00026645            0.00        0.00      -39.20

     kinetic stress (kbar)  14758.21     -0.00      0.00
                               -0.00  14821.01      0.00
                                0.00      0.00  14770.59

     local   stress (kbar) -18900.31     -0.00      0.00
                               -0.00 -24208.02      0.00
                                0.00      0.00   4105.72

     nonloc. stress (kbar)   8010.33      0.00      0.00
                                0.00   7931.06      0.00
                                0.00      0.00   8005.97

     hartree stress (kbar)   8376.42      0.00     -0.00
                                0.00  10110.34      0.00
                               -0.00      0.00  -2053.02

     exc-cor stress (kbar)  -1130.94     -0.00     -0.00
                               -0.00  -1121.49     -0.00
                               -0.00     -0.00  -1130.50

     corecor stress (kbar)  -2029.39     -0.00      0.00
                               -0.00  -2029.15      0.00
                                0.00      0.00  -2029.26

     ewald   stress (kbar)  -9125.13      0.00     -0.00
                                0.00  -5541.44     -0.00
                               -0.00     -0.00 -21708.70

     hubbard stress (kbar)      0.00      0.00      0.00
                                0.00      0.00      0.00
                                0.00      0.00      0.00

     DFT-D   stress (kbar)      0.00      0.00      0.00
                                0.00      0.00      0.00
                                0.00      0.00      0.00

     XDM     stress (kbar)      0.00      0.00      0.00
                                0.00      0.00      0.00
                                0.00      0.00      0.00

     dft-nl  stress (kbar)      0.00      0.00      0.00
                                0.00      0.00      0.00
                                0.00      0.00      0.00

     TS-vdW  stress (kbar)      0.00      0.00      0.00
                                0.00      0.00      0.00
                                0.00      0.00      0.00



     Writing output data file /zfs_data/gutierre/Scratch/Cl2NbO/smearing/12x12x12/0.016/tmp/Cl2NbO.save/
 
     init_run     :      6.46s CPU      6.70s WALL (       1 calls)
     electrons    :    181.63s CPU    185.92s WALL (       1 calls)
     forces       :      1.03s CPU      1.03s WALL (       1 calls)
     stress       :      2.59s CPU      2.60s WALL (       1 calls)

     Called by init_run:
     wfcinit      :      5.26s CPU      5.44s WALL (       1 calls)
     wfcinit:atom :      0.04s CPU      0.04s WALL (     280 calls)
     wfcinit:wfcr :      5.06s CPU      5.22s WALL (     280 calls)
     potinit      :      0.36s CPU      0.38s WALL (       1 calls)
     hinit0       :      0.48s CPU      0.50s WALL (       1 calls)

     Called by electrons:
     c_bands      :    146.96s CPU    150.46s WALL (      13 calls)
     sum_band     :     31.43s CPU     32.14s WALL (      13 calls)
     v_of_rho     :      1.27s CPU      1.30s WALL (      14 calls)
     v_h          :      0.10s CPU      0.10s WALL (      14 calls)
     v_xc         :      1.33s CPU      1.36s WALL (      16 calls)
     newd         :      1.09s CPU      1.11s WALL (      14 calls)
     PAW_pot      :      0.72s CPU      0.74s WALL (      14 calls)
     mix_rho      :      0.19s CPU      0.19s WALL (      13 calls)

     Called by c_bands:
     init_us_2    :      1.94s CPU      2.03s WALL (    8120 calls)
     cegterg      :    142.71s CPU    145.98s WALL (    3640 calls)

     Called by sum_band:
     sum_band:wei :      0.14s CPU      0.14s WALL (      13 calls)
     sum_band:loo :     30.05s CPU     30.72s WALL (      13 calls)
     sum_band:buf :      0.29s CPU      0.30s WALL (    3640 calls)
     sum_band:ini :      0.92s CPU      0.94s WALL (    3640 calls)
     sum_band:cal :      0.96s CPU      0.98s WALL (    3640 calls)
     sum_band:bec :      0.11s CPU      0.11s WALL (    3640 calls)
     addusdens    :      1.08s CPU      1.11s WALL (      13 calls)
     addusd:skk   :      0.01s CPU      0.01s WALL (      39 calls)
     addusd:dgemm :      0.28s CPU      0.31s WALL (      39 calls)
     addusd:qvan2 :      0.74s CPU      0.74s WALL (      39 calls)

     Called by *egterg:
     cdiaghg      :      7.65s CPU      7.89s WALL (   13338 calls)
     cegterg:over :      2.71s CPU      2.78s WALL (    9698 calls)
     cegterg:upda :      0.82s CPU      0.84s WALL (    9698 calls)
     cegterg:last :      1.37s CPU      1.39s WALL (    7228 calls)
     h_psi        :    131.46s CPU    134.50s WALL (   13618 calls)
     s_psi        :      0.91s CPU      0.93s WALL (   13618 calls)
     g_psi        :      0.17s CPU      0.18s WALL (    9698 calls)

     Called by h_psi:
     h_psi:calbec :      3.09s CPU      3.16s WALL (   13618 calls)
     vloc_psi     :    126.44s CPU    129.37s WALL (   13618 calls)
     add_vuspsi   :      1.45s CPU      1.48s WALL (   13618 calls)

     General routines
     calbec       :      4.16s CPU      4.25s WALL (   18658 calls)
     fft          :      1.09s CPU      1.10s WALL (     205 calls)
     ffts         :      0.03s CPU      0.03s WALL (      27 calls)
     fftw         :    138.49s CPU    141.78s WALL (  465990 calls)
     interpolate  :      0.12s CPU      0.12s WALL (      14 calls)
 
     Parallel routines
     fft_scatt_xy :     18.20s CPU     18.52s WALL (  466222 calls)
     fft_scatt_yz :     60.58s CPU     62.05s WALL (  466222 calls)

     PAW routines
     PAW_pot      :      0.72s CPU      0.74s WALL (      14 calls)
     PAW_symme    :      0.01s CPU      0.01s WALL (      27 calls)
 
     PWSCF        :   3m13.71s CPU   3m22.45s WALL

 
   This run was terminated on:  17:40:56  18May2022            

=------------------------------------------------------------------------------=
   JOB DONE.
=------------------------------------------------------------------------------=
