MPI startup(): Warning: I_MPI_PMI_LIBRARY will be ignored since the hydra process manager was found
MPI startup(): Warning: I_MPI_PMI_LIBRARY will be ignored since the hydra process manager was found
MPI startup(): Warning: I_MPI_PMI_LIBRARY will be ignored since the hydra process manager was found
MPI startup(): Warning: I_MPI_PMI_LIBRARY will be ignored since the hydra process manager was found
MPI startup(): Warning: I_MPI_PMI_LIBRARY will be ignored since the hydra process manager was found
MPI startup(): Warning: I_MPI_PMI_LIBRARY will be ignored since the hydra process manager was found
MPI startup(): Warning: I_MPI_PMI_LIBRARY will be ignored since the hydra process manager was found
MPI startup(): Warning: I_MPI_PMI_LIBRARY will be ignored since the hydra process manager was found
MPI startup(): Warning: I_MPI_PMI_LIBRARY will be ignored since the hydra process manager was found
MPI startup(): Warning: I_MPI_PMI_LIBRARY will be ignored since the hydra process manager was found
MPI startup(): Warning: I_MPI_PMI_LIBRARY will be ignored since the hydra process manager was found
MPI startup(): Warning: I_MPI_PMI_LIBRARY will be ignored since the hydra process manager was found
MPI startup(): Warning: I_MPI_PMI_LIBRARY will be ignored since the hydra process manager was found
MPI startup(): Warning: I_MPI_PMI_LIBRARY will be ignored since the hydra process manager was found
MPI startup(): Warning: I_MPI_PMI_LIBRARY will be ignored since the hydra process manager was found
MPI startup(): Warning: I_MPI_PMI_LIBRARY will be ignored since the hydra process manager was found
MPI startup(): Warning: I_MPI_PMI_LIBRARY will be ignored since the hydra process manager was found
MPI startup(): Warning: I_MPI_PMI_LIBRARY will be ignored since the hydra process manager was found
MPI startup(): Warning: I_MPI_PMI_LIBRARY will be ignored since the hydra process manager was found
MPI startup(): Warning: I_MPI_PMI_LIBRARY will be ignored since the hydra process manager was found
MPI startup(): Warning: I_MPI_PMI_LIBRARY will be ignored since the hydra process manager was found
MPI startup(): Warning: I_MPI_PMI_LIBRARY will be ignored since the hydra process manager was found
MPI startup(): Warning: I_MPI_PMI_LIBRARY will be ignored since the hydra process manager was found
MPI startup(): Warning: I_MPI_PMI_LIBRARY will be ignored since the hydra process manager was found

     Program PWSCF v.6.7MaX starts on  1Aug2021 at 12:40:47 

     This program is part of the open-source Quantum ESPRESSO suite
     for quantum simulation of materials; please cite
         "P. Giannozzi et al., J. Phys.:Condens. Matter 21 395502 (2009);
         "P. Giannozzi et al., J. Phys.:Condens. Matter 29 465901 (2017);
          URL http://www.quantum-espresso.org", 
     in publications or presentations arising from this work. More details at
     http://www.quantum-espresso.org/quote

     Parallel version (MPI), running on    24 processors

     MPI processes distributed on     1 nodes
     R & G space division:  proc/nbgrp/npool/nimage =      24
     Waiting for input...
     Reading input from standard input

     Current dimensions of program PWSCF are:
     Max number of different atomic species (ntypx) = 10
     Max number of k-points (npk) =  40000
     Max angular momentum in pseudopotentials (lmaxx) =  3
     file Cr.rel-pbe-spn-kjpaw_psl.1.0.0.UPF: wavefunction(s)  3S 3P 3P 3D 3D renormalized
     file Si.rel-pbe-n-kjpaw_psl.1.0.0.UPF: wavefunction(s)  3S 3P 3P renormalized

     Subspace diagonalization in iterative solution of the eigenvalue problem:
     a serial algorithm will be used

     Message from routine setup:
     using ibrav=0 with symmetry is DISCOURAGED, use correct ibrav instead
 
     Parallelization info
     --------------------
     sticks:   dense  smooth     PW     G-vecs:    dense   smooth      PW
     Min         228      91     25                12702     3210     487
     Max         229      93     26                12704     3214     492
     Sum        5473    2201    621               304867    77053   11753
 


     bravais-lattice index     =            0
     lattice parameter (alat)  =       8.7475  a.u.
     unit-cell volume          =     669.3575 (a.u.)^3
     number of atoms/cell      =            8
     number of atomic types    =            2
     number of electrons       =        72.00
     number of Kohn-Sham states=           86
     kinetic-energy cutoff     =      90.0000  Ry
     charge density cutoff     =     900.0000  Ry
     scf convergence threshold =      1.0E-06
     mixing beta               =       0.7000
     number of iterations used =            8  plain     mixing
     Exchange-correlation= SLA  PW   PBX  PBC
                           (   1   4   3   4   0   0   0)
     Non magnetic calculation with spin-orbit


     celldm(1)=   8.747542  celldm(2)=   0.000000  celldm(3)=   0.000000
     celldm(4)=   0.000000  celldm(5)=   0.000000  celldm(6)=   0.000000

     crystal axes: (cart. coord. in units of alat)
               a(1) = (   1.000000   0.000000   0.000000 )  
               a(2) = (   0.000000   1.000000   0.000000 )  
               a(3) = (   0.000000   0.000000   1.000000 )  

     reciprocal axes: (cart. coord. in units 2 pi/alat)
               b(1) = (  1.000000  0.000000  0.000000 )  
               b(2) = (  0.000000  1.000000  0.000000 )  
               b(3) = (  0.000000  0.000000  1.000000 )  


     PseudoPot. # 1 for Cr read from file:
     ../../../../pseudo/Cr.rel-pbe-spn-kjpaw_psl.1.0.0.UPF
     MD5 check sum: 1e24e2b5251376a8b945118fca0c7981
     Pseudo is Projector augmented-wave + core cor, Zval = 14.0
     Generated using &quot;atomic&quot; code by A. Dal Corso  v.6.3
     Shape of augmentation charge: PSQ
     Using radial grid of 1183 points, 10 beta functions with: 
                l(1) =   0
                l(2) =   0
                l(3) =   1
                l(4) =   1
                l(5) =   1
                l(6) =   1
                l(7) =   2
                l(8) =   2
                l(9) =   2
               l(10) =   2
     Q(r) pseudized with 0 coefficients 


     PseudoPot. # 2 for Si read from file:
     ../../../../pseudo/Si.rel-pbe-n-kjpaw_psl.1.0.0.UPF
     MD5 check sum: d74f6caf6830ea4c2076867160cab1b0
     Pseudo is Projector augmented-wave + core cor, Zval =  4.0
     Generated using &quot;atomic&quot; code by A. Dal Corso  v.6.3
     Shape of augmentation charge: PSQ
     Using radial grid of 1141 points, 10 beta functions with: 
                l(1) =   0
                l(2) =   0
                l(3) =   1
                l(4) =   1
                l(5) =   1
                l(6) =   1
                l(7) =   2
                l(8) =   2
                l(9) =   2
               l(10) =   2
     Q(r) pseudized with 0 coefficients 


     atomic species   valence    mass     pseudopotential
        Cr            14.00    51.99600     Cr( 1.00)
        Si             4.00    28.08500     Si( 1.00)

     12 Sym. Ops. (no inversion) found ( 9 have fractional translation)


                                    s                        frac. trans.

      isym =  1     identity                                     

 cryst.   s( 1) = (     1          0          0      )
                  (     0          1          0      )
                  (     0          0          1      )

 cart.    s( 1) = (  1.0000000  0.0000000  0.0000000 )
                  (  0.0000000  1.0000000  0.0000000 )
                  (  0.0000000  0.0000000  1.0000000 )


      isym =  2     180 deg rotation - cart. axis [0,0,1]        

 cryst.   s( 2) = (    -1          0          0      )    f =(  0.5000000 )
                  (     0         -1          0      )       (  0.0000000 )
                  (     0          0          1      )       ( -0.5000000 )

 cart.    s( 2) = ( -1.0000000  0.0000000  0.0000000 )    f =(  0.5000000 )
                  (  0.0000000 -1.0000000  0.0000000 )       (  0.0000000 )
                  (  0.0000000  0.0000000  1.0000000 )       ( -0.5000000 )


      isym =  3     180 deg rotation - cart. axis [0,1,0]        

 cryst.   s( 3) = (    -1          0          0      )    f =(  0.0000000 )
                  (     0          1          0      )       ( -0.5000000 )
                  (     0          0         -1      )       (  0.5000000 )

 cart.    s( 3) = ( -1.0000000  0.0000000  0.0000000 )    f =(  0.0000000 )
                  (  0.0000000  1.0000000  0.0000000 )       ( -0.5000000 )
                  (  0.0000000  0.0000000 -1.0000000 )       (  0.5000000 )


      isym =  4     180 deg rotation - cart. axis [1,0,0]        

 cryst.   s( 4) = (     1          0          0      )    f =(  0.5000000 )
                  (     0         -1          0      )       (  0.5000000 )
                  (     0          0         -1      )       (  0.0000000 )

 cart.    s( 4) = (  1.0000000  0.0000000  0.0000000 )    f =(  0.5000000 )
                  (  0.0000000 -1.0000000  0.0000000 )       (  0.5000000 )
                  (  0.0000000  0.0000000 -1.0000000 )       (  0.0000000 )


      isym =  5     120 deg rotation - cart. axis [-1,-1,-1]     

 cryst.   s( 5) = (     0          0          1      )
                  (     1          0          0      )
                  (     0          1          0      )

 cart.    s( 5) = (  0.0000000  1.0000000  0.0000000 )
                  (  0.0000000  0.0000000  1.0000000 )
                  (  1.0000000  0.0000000  0.0000000 )


      isym =  6     120 deg rotation - cart. axis [-1,1,1]       

 cryst.   s( 6) = (     0          0         -1      )    f =(  0.0000000 )
                  (    -1          0          0      )       ( -0.5000000 )
                  (     0          1          0      )       (  0.5000000 )

 cart.    s( 6) = (  0.0000000 -1.0000000  0.0000000 )    f =(  0.0000000 )
                  (  0.0000000  0.0000000  1.0000000 )       ( -0.5000000 )
                  ( -1.0000000  0.0000000  0.0000000 )       (  0.5000000 )


      isym =  7     120 deg rotation - cart. axis [1,1,-1]       

 cryst.   s( 7) = (     0          0         -1      )    f =(  0.5000000 )
                  (     1          0          0      )       (  0.5000000 )
                  (     0         -1          0      )       (  0.0000000 )

 cart.    s( 7) = (  0.0000000  1.0000000  0.0000000 )    f =(  0.5000000 )
                  (  0.0000000  0.0000000 -1.0000000 )       (  0.5000000 )
                  ( -1.0000000  0.0000000  0.0000000 )       (  0.0000000 )


      isym =  8     120 deg rotation - cart. axis [1,-1,1]       

 cryst.   s( 8) = (     0          0          1      )    f =(  0.5000000 )
                  (    -1          0          0      )       (  0.0000000 )
                  (     0         -1          0      )       ( -0.5000000 )

 cart.    s( 8) = (  0.0000000 -1.0000000  0.0000000 )    f =(  0.5000000 )
                  (  0.0000000  0.0000000 -1.0000000 )       (  0.0000000 )
                  (  1.0000000  0.0000000  0.0000000 )       ( -0.5000000 )


      isym =  9     120 deg rotation - cart. axis [1,1,1]        

 cryst.   s( 9) = (     0          1          0      )
                  (     0          0          1      )
                  (     1          0          0      )

 cart.    s( 9) = (  0.0000000  0.0000000  1.0000000 )
                  (  1.0000000  0.0000000  0.0000000 )
                  (  0.0000000  1.0000000  0.0000000 )


      isym = 10     120 deg rotation - cart. axis [-1,1,-1]      

 cryst.   s(10) = (     0         -1          0      )    f =(  0.5000000 )
                  (     0          0         -1      )       (  0.5000000 )
                  (     1          0          0      )       (  0.0000000 )

 cart.    s(10) = (  0.0000000  0.0000000  1.0000000 )    f =(  0.5000000 )
                  ( -1.0000000  0.0000000  0.0000000 )       (  0.5000000 )
                  (  0.0000000 -1.0000000  0.0000000 )       (  0.0000000 )


      isym = 11     120 deg rotation - cart. axis [1,-1,-1]      

 cryst.   s(11) = (     0         -1          0      )    f =(  0.5000000 )
                  (     0          0          1      )       (  0.0000000 )
                  (    -1          0          0      )       ( -0.5000000 )

 cart.    s(11) = (  0.0000000  0.0000000 -1.0000000 )    f =(  0.5000000 )
                  ( -1.0000000  0.0000000  0.0000000 )       (  0.0000000 )
                  (  0.0000000  1.0000000  0.0000000 )       ( -0.5000000 )


      isym = 12     120 deg rotation - cart. axis [-1,-1,1]      

 cryst.   s(12) = (     0          1          0      )    f =(  0.0000000 )
                  (     0          0         -1      )       ( -0.5000000 )
                  (    -1          0          0      )       (  0.5000000 )

 cart.    s(12) = (  0.0000000  0.0000000 -1.0000000 )    f =(  0.0000000 )
                  (  1.0000000  0.0000000  0.0000000 )       ( -0.5000000 )
                  (  0.0000000 -1.0000000  0.0000000 )       (  0.5000000 )


   Cartesian axes

     site n.     atom                  positions (alat units)
         1           Cr  tau(   1) = (   0.8640000   0.3640000   0.1360000  )
         2           Cr  tau(   2) = (   0.3640000   0.1360000   0.8640000  )
         3           Cr  tau(   3) = (   0.1360000   0.8640000   0.3640000  )
         4           Cr  tau(   4) = (   0.6360000   0.6360000   0.6360000  )
         5           Si  tau(   5) = (   0.1540000   0.6540000   0.8460000  )
         6           Si  tau(   6) = (   0.6540000   0.8460000   0.1540000  )
         7           Si  tau(   7) = (   0.8460000   0.1540000   0.6540000  )
         8           Si  tau(   8) = (   0.3460000   0.3460000   0.3460000  )

   Crystallographic axes

     site n.     atom                  positions (cryst. coord.)
         1           Cr  tau(   1) = (  0.8640000  0.3640000  0.1360000  )
         2           Cr  tau(   2) = (  0.3640000  0.1360000  0.8640000  )
         3           Cr  tau(   3) = (  0.1360000  0.8640000  0.3640000  )
         4           Cr  tau(   4) = (  0.6360000  0.6360000  0.6360000  )
         5           Si  tau(   5) = (  0.1540000  0.6540000  0.8460000  )
         6           Si  tau(   6) = (  0.6540000  0.8460000  0.1540000  )
         7           Si  tau(   7) = (  0.8460000  0.1540000  0.6540000  )
         8           Si  tau(   8) = (  0.3460000  0.3460000  0.3460000  )

     number of k points=   119  Methfessel-Paxton smearing, width (Ry)=  0.0160
                       cart. coord. in units 2pi/alat
        k(    1) = (   0.0000000   0.0000000   0.0000000), wk =   0.0005787
        k(    2) = (   0.0000000   0.0000000   0.0833333), wk =   0.0034722
        k(    3) = (   0.0000000   0.0000000   0.1666667), wk =   0.0034722
        k(    4) = (   0.0000000   0.0000000   0.2500000), wk =   0.0034722
        k(    5) = (   0.0000000   0.0000000   0.3333333), wk =   0.0034722
        k(    6) = (   0.0000000   0.0000000   0.4166667), wk =   0.0034722
        k(    7) = (   0.0000000   0.0000000  -0.5000000), wk =   0.0017361
        k(    8) = (   0.0000000   0.0833333   0.0833333), wk =   0.0069444
        k(    9) = (   0.0000000   0.0833333   0.1666667), wk =   0.0069444
        k(   10) = (   0.0000000   0.0833333   0.2500000), wk =   0.0069444
        k(   11) = (   0.0000000   0.0833333   0.3333333), wk =   0.0069444
        k(   12) = (   0.0000000   0.0833333   0.4166667), wk =   0.0069444
        k(   13) = (   0.0000000   0.0833333  -0.5000000), wk =   0.0034722
        k(   14) = (   0.0000000   0.1666667   0.1666667), wk =   0.0069444
        k(   15) = (   0.0000000   0.1666667   0.2500000), wk =   0.0069444
        k(   16) = (   0.0000000   0.1666667   0.3333333), wk =   0.0069444
        k(   17) = (   0.0000000   0.1666667   0.4166667), wk =   0.0069444
        k(   18) = (   0.0000000   0.1666667  -0.5000000), wk =   0.0034722
        k(   19) = (   0.0000000   0.2500000   0.2500000), wk =   0.0069444
        k(   20) = (   0.0000000   0.2500000   0.3333333), wk =   0.0069444
        k(   21) = (   0.0000000   0.2500000   0.4166667), wk =   0.0069444
        k(   22) = (   0.0000000   0.2500000  -0.5000000), wk =   0.0034722
        k(   23) = (   0.0000000   0.3333333   0.3333333), wk =   0.0069444
        k(   24) = (   0.0000000   0.3333333   0.4166667), wk =   0.0069444
        k(   25) = (   0.0000000   0.3333333  -0.5000000), wk =   0.0034722
        k(   26) = (   0.0000000   0.4166667   0.4166667), wk =   0.0069444
        k(   27) = (   0.0000000   0.4166667  -0.5000000), wk =   0.0034722
        k(   28) = (   0.0000000  -0.5000000  -0.5000000), wk =   0.0017361
        k(   29) = (   0.0833333   0.0833333   0.0833333), wk =   0.0046296
        k(   30) = (   0.0833333   0.0833333   0.1666667), wk =   0.0138889
        k(   31) = (   0.0833333   0.0833333   0.2500000), wk =   0.0138889
        k(   32) = (   0.0833333   0.0833333   0.3333333), wk =   0.0138889
        k(   33) = (   0.0833333   0.0833333   0.4166667), wk =   0.0138889
        k(   34) = (   0.0833333   0.0833333  -0.5000000), wk =   0.0069444
        k(   35) = (   0.0833333   0.1666667   0.1666667), wk =   0.0138889
        k(   36) = (   0.0833333   0.1666667   0.2500000), wk =   0.0138889
        k(   37) = (   0.0833333   0.1666667   0.3333333), wk =   0.0138889
        k(   38) = (   0.0833333   0.1666667   0.4166667), wk =   0.0138889
        k(   39) = (   0.0833333   0.1666667  -0.5000000), wk =   0.0069444
        k(   40) = (   0.0833333   0.2500000   0.2500000), wk =   0.0138889
        k(   41) = (   0.0833333   0.2500000   0.3333333), wk =   0.0138889
        k(   42) = (   0.0833333   0.2500000   0.4166667), wk =   0.0138889
        k(   43) = (   0.0833333   0.2500000  -0.5000000), wk =   0.0069444
        k(   44) = (   0.0833333   0.3333333   0.3333333), wk =   0.0138889
        k(   45) = (   0.0833333   0.3333333   0.4166667), wk =   0.0138889
        k(   46) = (   0.0833333   0.3333333  -0.5000000), wk =   0.0069444
        k(   47) = (   0.0833333   0.4166667   0.4166667), wk =   0.0138889
        k(   48) = (   0.0833333   0.4166667  -0.5000000), wk =   0.0069444
        k(   49) = (   0.0833333  -0.5000000  -0.5000000), wk =   0.0034722
        k(   50) = (   0.1666667   0.1666667   0.1666667), wk =   0.0046296
        k(   51) = (   0.1666667   0.1666667   0.2500000), wk =   0.0138889
        k(   52) = (   0.1666667   0.1666667   0.3333333), wk =   0.0138889
        k(   53) = (   0.1666667   0.1666667   0.4166667), wk =   0.0138889
        k(   54) = (   0.1666667   0.1666667  -0.5000000), wk =   0.0069444
        k(   55) = (   0.1666667   0.2500000   0.2500000), wk =   0.0138889
        k(   56) = (   0.1666667   0.2500000   0.3333333), wk =   0.0138889
        k(   57) = (   0.1666667   0.2500000   0.4166667), wk =   0.0138889
        k(   58) = (   0.1666667   0.2500000  -0.5000000), wk =   0.0069444
        k(   59) = (   0.1666667   0.3333333   0.3333333), wk =   0.0138889
        k(   60) = (   0.1666667   0.3333333   0.4166667), wk =   0.0138889
        k(   61) = (   0.1666667   0.3333333  -0.5000000), wk =   0.0069444
        k(   62) = (   0.1666667   0.4166667   0.4166667), wk =   0.0138889
        k(   63) = (   0.1666667   0.4166667  -0.5000000), wk =   0.0069444
        k(   64) = (   0.1666667  -0.5000000  -0.5000000), wk =   0.0034722
        k(   65) = (   0.2500000   0.2500000   0.2500000), wk =   0.0046296
        k(   66) = (   0.2500000   0.2500000   0.3333333), wk =   0.0138889
        k(   67) = (   0.2500000   0.2500000   0.4166667), wk =   0.0138889
        k(   68) = (   0.2500000   0.2500000  -0.5000000), wk =   0.0069444
        k(   69) = (   0.2500000   0.3333333   0.3333333), wk =   0.0138889
        k(   70) = (   0.2500000   0.3333333   0.4166667), wk =   0.0138889
        k(   71) = (   0.2500000   0.3333333  -0.5000000), wk =   0.0069444
        k(   72) = (   0.2500000   0.4166667   0.4166667), wk =   0.0138889
        k(   73) = (   0.2500000   0.4166667  -0.5000000), wk =   0.0069444
        k(   74) = (   0.2500000  -0.5000000  -0.5000000), wk =   0.0034722
        k(   75) = (   0.3333333   0.3333333   0.3333333), wk =   0.0046296
        k(   76) = (   0.3333333   0.3333333   0.4166667), wk =   0.0138889
        k(   77) = (   0.3333333   0.3333333  -0.5000000), wk =   0.0069444
        k(   78) = (   0.3333333   0.4166667   0.4166667), wk =   0.0138889
        k(   79) = (   0.3333333   0.4166667  -0.5000000), wk =   0.0069444
        k(   80) = (   0.3333333  -0.5000000  -0.5000000), wk =   0.0034722
        k(   81) = (   0.4166667   0.4166667   0.4166667), wk =   0.0046296
        k(   82) = (   0.4166667   0.4166667  -0.5000000), wk =   0.0069444
        k(   83) = (   0.4166667  -0.5000000  -0.5000000), wk =   0.0034722
        k(   84) = (  -0.5000000  -0.5000000  -0.5000000), wk =   0.0005787
        k(   85) = (   0.0000000   0.1666667   0.0833333), wk =   0.0069444
        k(   86) = (   0.0000000   0.2500000   0.0833333), wk =   0.0069444
        k(   87) = (   0.0000000   0.3333333   0.0833333), wk =   0.0069444
        k(   88) = (   0.0000000   0.4166667   0.0833333), wk =   0.0069444
        k(   89) = (   0.0000000  -0.5000000   0.0833333), wk =   0.0034722
        k(   90) = (   0.0000000   0.2500000   0.1666667), wk =   0.0069444
        k(   91) = (   0.0000000   0.3333333   0.1666667), wk =   0.0069444
        k(   92) = (   0.0000000   0.4166667   0.1666667), wk =   0.0069444
        k(   93) = (   0.0000000  -0.5000000   0.1666667), wk =   0.0034722
        k(   94) = (   0.0000000   0.3333333   0.2500000), wk =   0.0069444
        k(   95) = (   0.0000000   0.4166667   0.2500000), wk =   0.0069444
        k(   96) = (   0.0000000  -0.5000000   0.2500000), wk =   0.0034722
        k(   97) = (   0.0000000   0.4166667   0.3333333), wk =   0.0069444
        k(   98) = (   0.0000000  -0.5000000   0.3333333), wk =   0.0034722
        k(   99) = (   0.0000000  -0.5000000   0.4166667), wk =   0.0034722
        k(  100) = (  -0.0833333   0.2500000   0.1666667), wk =   0.0138889
        k(  101) = (  -0.0833333   0.3333333   0.1666667), wk =   0.0138889
        k(  102) = (  -0.0833333   0.4166667   0.1666667), wk =   0.0138889
        k(  103) = (  -0.0833333  -0.5000000   0.1666667), wk =   0.0069444
        k(  104) = (  -0.0833333   0.3333333   0.2500000), wk =   0.0138889
        k(  105) = (  -0.0833333   0.4166667   0.2500000), wk =   0.0138889
        k(  106) = (  -0.0833333  -0.5000000   0.2500000), wk =   0.0069444
        k(  107) = (  -0.0833333   0.4166667   0.3333333), wk =   0.0138889
        k(  108) = (  -0.0833333  -0.5000000   0.3333333), wk =   0.0069444
        k(  109) = (  -0.0833333  -0.5000000   0.4166667), wk =   0.0069444
        k(  110) = (  -0.1666667   0.3333333   0.2500000), wk =   0.0138889
        k(  111) = (  -0.1666667   0.4166667   0.2500000), wk =   0.0138889
        k(  112) = (  -0.1666667  -0.5000000   0.2500000), wk =   0.0069444
        k(  113) = (  -0.1666667   0.4166667   0.3333333), wk =   0.0138889
        k(  114) = (  -0.1666667  -0.5000000   0.3333333), wk =   0.0069444
        k(  115) = (  -0.1666667  -0.5000000   0.4166667), wk =   0.0069444
        k(  116) = (  -0.2500000   0.4166667   0.3333333), wk =   0.0138889
        k(  117) = (  -0.2500000  -0.5000000   0.3333333), wk =   0.0069444
        k(  118) = (  -0.2500000  -0.5000000   0.4166667), wk =   0.0069444
        k(  119) = (  -0.3333333  -0.5000000   0.4166667), wk =   0.0069444

                       cryst. coord.
        k(    1) = (   0.0000000   0.0000000   0.0000000), wk =   0.0005787
        k(    2) = (   0.0000000   0.0000000   0.0833333), wk =   0.0034722
        k(    3) = (   0.0000000   0.0000000   0.1666667), wk =   0.0034722
        k(    4) = (   0.0000000   0.0000000   0.2500000), wk =   0.0034722
        k(    5) = (   0.0000000   0.0000000   0.3333333), wk =   0.0034722
        k(    6) = (   0.0000000   0.0000000   0.4166667), wk =   0.0034722
        k(    7) = (   0.0000000   0.0000000  -0.5000000), wk =   0.0017361
        k(    8) = (   0.0000000   0.0833333   0.0833333), wk =   0.0069444
        k(    9) = (   0.0000000   0.0833333   0.1666667), wk =   0.0069444
        k(   10) = (   0.0000000   0.0833333   0.2500000), wk =   0.0069444
        k(   11) = (   0.0000000   0.0833333   0.3333333), wk =   0.0069444
        k(   12) = (   0.0000000   0.0833333   0.4166667), wk =   0.0069444
        k(   13) = (   0.0000000   0.0833333  -0.5000000), wk =   0.0034722
        k(   14) = (   0.0000000   0.1666667   0.1666667), wk =   0.0069444
        k(   15) = (   0.0000000   0.1666667   0.2500000), wk =   0.0069444
        k(   16) = (   0.0000000   0.1666667   0.3333333), wk =   0.0069444
        k(   17) = (   0.0000000   0.1666667   0.4166667), wk =   0.0069444
        k(   18) = (   0.0000000   0.1666667  -0.5000000), wk =   0.0034722
        k(   19) = (   0.0000000   0.2500000   0.2500000), wk =   0.0069444
        k(   20) = (   0.0000000   0.2500000   0.3333333), wk =   0.0069444
        k(   21) = (   0.0000000   0.2500000   0.4166667), wk =   0.0069444
        k(   22) = (   0.0000000   0.2500000  -0.5000000), wk =   0.0034722
        k(   23) = (   0.0000000   0.3333333   0.3333333), wk =   0.0069444
        k(   24) = (   0.0000000   0.3333333   0.4166667), wk =   0.0069444
        k(   25) = (   0.0000000   0.3333333  -0.5000000), wk =   0.0034722
        k(   26) = (   0.0000000   0.4166667   0.4166667), wk =   0.0069444
        k(   27) = (   0.0000000   0.4166667  -0.5000000), wk =   0.0034722
        k(   28) = (   0.0000000  -0.5000000  -0.5000000), wk =   0.0017361
        k(   29) = (   0.0833333   0.0833333   0.0833333), wk =   0.0046296
        k(   30) = (   0.0833333   0.0833333   0.1666667), wk =   0.0138889
        k(   31) = (   0.0833333   0.0833333   0.2500000), wk =   0.0138889
        k(   32) = (   0.0833333   0.0833333   0.3333333), wk =   0.0138889
        k(   33) = (   0.0833333   0.0833333   0.4166667), wk =   0.0138889
        k(   34) = (   0.0833333   0.0833333  -0.5000000), wk =   0.0069444
        k(   35) = (   0.0833333   0.1666667   0.1666667), wk =   0.0138889
        k(   36) = (   0.0833333   0.1666667   0.2500000), wk =   0.0138889
        k(   37) = (   0.0833333   0.1666667   0.3333333), wk =   0.0138889
        k(   38) = (   0.0833333   0.1666667   0.4166667), wk =   0.0138889
        k(   39) = (   0.0833333   0.1666667  -0.5000000), wk =   0.0069444
        k(   40) = (   0.0833333   0.2500000   0.2500000), wk =   0.0138889
        k(   41) = (   0.0833333   0.2500000   0.3333333), wk =   0.0138889
        k(   42) = (   0.0833333   0.2500000   0.4166667), wk =   0.0138889
        k(   43) = (   0.0833333   0.2500000  -0.5000000), wk =   0.0069444
        k(   44) = (   0.0833333   0.3333333   0.3333333), wk =   0.0138889
        k(   45) = (   0.0833333   0.3333333   0.4166667), wk =   0.0138889
        k(   46) = (   0.0833333   0.3333333  -0.5000000), wk =   0.0069444
        k(   47) = (   0.0833333   0.4166667   0.4166667), wk =   0.0138889
        k(   48) = (   0.0833333   0.4166667  -0.5000000), wk =   0.0069444
        k(   49) = (   0.0833333  -0.5000000  -0.5000000), wk =   0.0034722
        k(   50) = (   0.1666667   0.1666667   0.1666667), wk =   0.0046296
        k(   51) = (   0.1666667   0.1666667   0.2500000), wk =   0.0138889
        k(   52) = (   0.1666667   0.1666667   0.3333333), wk =   0.0138889
        k(   53) = (   0.1666667   0.1666667   0.4166667), wk =   0.0138889
        k(   54) = (   0.1666667   0.1666667  -0.5000000), wk =   0.0069444
        k(   55) = (   0.1666667   0.2500000   0.2500000), wk =   0.0138889
        k(   56) = (   0.1666667   0.2500000   0.3333333), wk =   0.0138889
        k(   57) = (   0.1666667   0.2500000   0.4166667), wk =   0.0138889
        k(   58) = (   0.1666667   0.2500000  -0.5000000), wk =   0.0069444
        k(   59) = (   0.1666667   0.3333333   0.3333333), wk =   0.0138889
        k(   60) = (   0.1666667   0.3333333   0.4166667), wk =   0.0138889
        k(   61) = (   0.1666667   0.3333333  -0.5000000), wk =   0.0069444
        k(   62) = (   0.1666667   0.4166667   0.4166667), wk =   0.0138889
        k(   63) = (   0.1666667   0.4166667  -0.5000000), wk =   0.0069444
        k(   64) = (   0.1666667  -0.5000000  -0.5000000), wk =   0.0034722
        k(   65) = (   0.2500000   0.2500000   0.2500000), wk =   0.0046296
        k(   66) = (   0.2500000   0.2500000   0.3333333), wk =   0.0138889
        k(   67) = (   0.2500000   0.2500000   0.4166667), wk =   0.0138889
        k(   68) = (   0.2500000   0.2500000  -0.5000000), wk =   0.0069444
        k(   69) = (   0.2500000   0.3333333   0.3333333), wk =   0.0138889
        k(   70) = (   0.2500000   0.3333333   0.4166667), wk =   0.0138889
        k(   71) = (   0.2500000   0.3333333  -0.5000000), wk =   0.0069444
        k(   72) = (   0.2500000   0.4166667   0.4166667), wk =   0.0138889
        k(   73) = (   0.2500000   0.4166667  -0.5000000), wk =   0.0069444
        k(   74) = (   0.2500000  -0.5000000  -0.5000000), wk =   0.0034722
        k(   75) = (   0.3333333   0.3333333   0.3333333), wk =   0.0046296
        k(   76) = (   0.3333333   0.3333333   0.4166667), wk =   0.0138889
        k(   77) = (   0.3333333   0.3333333  -0.5000000), wk =   0.0069444
        k(   78) = (   0.3333333   0.4166667   0.4166667), wk =   0.0138889
        k(   79) = (   0.3333333   0.4166667  -0.5000000), wk =   0.0069444
        k(   80) = (   0.3333333  -0.5000000  -0.5000000), wk =   0.0034722
        k(   81) = (   0.4166667   0.4166667   0.4166667), wk =   0.0046296
        k(   82) = (   0.4166667   0.4166667  -0.5000000), wk =   0.0069444
        k(   83) = (   0.4166667  -0.5000000  -0.5000000), wk =   0.0034722
        k(   84) = (  -0.5000000  -0.5000000  -0.5000000), wk =   0.0005787
        k(   85) = (   0.0000000   0.1666667   0.0833333), wk =   0.0069444
        k(   86) = (   0.0000000   0.2500000   0.0833333), wk =   0.0069444
        k(   87) = (   0.0000000   0.3333333   0.0833333), wk =   0.0069444
        k(   88) = (   0.0000000   0.4166667   0.0833333), wk =   0.0069444
        k(   89) = (   0.0000000  -0.5000000   0.0833333), wk =   0.0034722
        k(   90) = (   0.0000000   0.2500000   0.1666667), wk =   0.0069444
        k(   91) = (   0.0000000   0.3333333   0.1666667), wk =   0.0069444
        k(   92) = (   0.0000000   0.4166667   0.1666667), wk =   0.0069444
        k(   93) = (   0.0000000  -0.5000000   0.1666667), wk =   0.0034722
        k(   94) = (   0.0000000   0.3333333   0.2500000), wk =   0.0069444
        k(   95) = (   0.0000000   0.4166667   0.2500000), wk =   0.0069444
        k(   96) = (   0.0000000  -0.5000000   0.2500000), wk =   0.0034722
        k(   97) = (   0.0000000   0.4166667   0.3333333), wk =   0.0069444
        k(   98) = (   0.0000000  -0.5000000   0.3333333), wk =   0.0034722
        k(   99) = (   0.0000000  -0.5000000   0.4166667), wk =   0.0034722
        k(  100) = (  -0.0833333   0.2500000   0.1666667), wk =   0.0138889
        k(  101) = (  -0.0833333   0.3333333   0.1666667), wk =   0.0138889
        k(  102) = (  -0.0833333   0.4166667   0.1666667), wk =   0.0138889
        k(  103) = (  -0.0833333  -0.5000000   0.1666667), wk =   0.0069444
        k(  104) = (  -0.0833333   0.3333333   0.2500000), wk =   0.0138889
        k(  105) = (  -0.0833333   0.4166667   0.2500000), wk =   0.0138889
        k(  106) = (  -0.0833333  -0.5000000   0.2500000), wk =   0.0069444
        k(  107) = (  -0.0833333   0.4166667   0.3333333), wk =   0.0138889
        k(  108) = (  -0.0833333  -0.5000000   0.3333333), wk =   0.0069444
        k(  109) = (  -0.0833333  -0.5000000   0.4166667), wk =   0.0069444
        k(  110) = (  -0.1666667   0.3333333   0.2500000), wk =   0.0138889
        k(  111) = (  -0.1666667   0.4166667   0.2500000), wk =   0.0138889
        k(  112) = (  -0.1666667  -0.5000000   0.2500000), wk =   0.0069444
        k(  113) = (  -0.1666667   0.4166667   0.3333333), wk =   0.0138889
        k(  114) = (  -0.1666667  -0.5000000   0.3333333), wk =   0.0069444
        k(  115) = (  -0.1666667  -0.5000000   0.4166667), wk =   0.0069444
        k(  116) = (  -0.2500000   0.4166667   0.3333333), wk =   0.0138889
        k(  117) = (  -0.2500000  -0.5000000   0.3333333), wk =   0.0069444
        k(  118) = (  -0.2500000  -0.5000000   0.4166667), wk =   0.0069444
        k(  119) = (  -0.3333333  -0.5000000   0.4166667), wk =   0.0069444

     Dense  grid:   304867 G-vectors     FFT dimensions: (  90,  90,  90)

     Smooth grid:    77053 G-vectors     FFT dimensions: (  54,  54,  54)

     Dynamical RAM for                 wfc:       1.06 MB

     Dynamical RAM for     wfc (w. buffer):     126.61 MB

     Dynamical RAM for           str. fact:       0.39 MB

     Dynamical RAM for           local pot:       0.00 MB

     Dynamical RAM for          nlocal pot:       1.67 MB

     Dynamical RAM for                qrad:      12.61 MB

     Dynamical RAM for          rho,v,vnew:       5.29 MB

     Dynamical RAM for               rhoin:       1.76 MB

     Dynamical RAM for            rho*nmix:      12.41 MB

     Dynamical RAM for           G-vectors:       0.75 MB

     Dynamical RAM for          h,s,v(r/c):       1.35 MB

     Dynamical RAM for          <psi|beta>:       0.71 MB

     Dynamical RAM for                 psi:       2.11 MB

     Dynamical RAM for                hpsi:       2.11 MB

     Dynamical RAM for                spsi:       2.11 MB

     Dynamical RAM for      wfcinit/wfcrot:       2.35 MB

     Dynamical RAM for           addusdens:     119.02 MB

     Dynamical RAM for          addusforce:     120.34 MB

     Dynamical RAM for         addusstress:     121.74 MB

     Estimated static dynamical RAM per process >     164.04 MB

     Estimated max dynamical RAM per process >     285.78 MB

     Estimated total dynamical RAM >       6.70 GB

     Initial potential from superposition of free atoms

     starting charge   71.99469, renormalised to   72.00000
     Starting wfcs are  112 randomized atomic wfcs
     Checking if some PAW data can be deallocated... 
       PAW data deallocated on   12 nodes for type:  1
       PAW data deallocated on   12 nodes for type:  2

     total cpu time spent up to now is       21.1 secs

     Self-consistent Calculation

     iteration #  1     ecut=    90.00 Ry     beta= 0.70
     Davidson diagonalization with overlap
     ethr =  1.00E-02,  avg # of iterations =  2.0

     Threshold (ethr) on eigenvalues was too large:
     Diagonalizing with lowered threshold

     Davidson diagonalization with overlap
     ethr =  2.09E-04,  avg # of iterations =  4.3

     total cpu time spent up to now is      133.3 secs

     total energy              =   -1180.30978917 Ry
     estimated scf accuracy    <       0.18915027 Ry

     iteration #  2     ecut=    90.00 Ry     beta= 0.70
     Davidson diagonalization with overlap
     ethr =  2.63E-04,  avg # of iterations =  3.2

     total cpu time spent up to now is      190.0 secs

     total energy              =   -1180.31484416 Ry
     estimated scf accuracy    <       0.08088602 Ry

     iteration #  3     ecut=    90.00 Ry     beta= 0.70
     Davidson diagonalization with overlap
     ethr =  1.12E-04,  avg # of iterations =  5.0

     total cpu time spent up to now is      259.4 secs

     total energy              =   -1180.32605796 Ry
     estimated scf accuracy    <       0.16175275 Ry

     iteration #  4     ecut=    90.00 Ry     beta= 0.70
     Davidson diagonalization with overlap
     ethr =  1.12E-04,  avg # of iterations =  4.1

     total cpu time spent up to now is      315.3 secs

     total energy              =   -1180.34985197 Ry
     estimated scf accuracy    <       0.00032449 Ry

     iteration #  5     ecut=    90.00 Ry     beta= 0.70
     Davidson diagonalization with overlap
     ethr =  4.51E-07,  avg # of iterations =  8.1

     total cpu time spent up to now is      401.8 secs

     total energy              =   -1180.35046984 Ry
     estimated scf accuracy    <       0.00031941 Ry

     iteration #  6     ecut=    90.00 Ry     beta= 0.70
     Davidson diagonalization with overlap
     ethr =  4.44E-07,  avg # of iterations =  2.6

     total cpu time spent up to now is      450.0 secs

     total energy              =   -1180.35051975 Ry
     estimated scf accuracy    <       0.00000509 Ry

     iteration #  7     ecut=    90.00 Ry     beta= 0.70
     Davidson diagonalization with overlap
     c_bands:  1 eigenvalues not converged
     ethr =  7.07E-09,  avg # of iterations =  6.3

     total cpu time spent up to now is      525.1 secs

     total energy              =   -1180.35052337 Ry
     estimated scf accuracy    <       0.00003781 Ry

     iteration #  8     ecut=    90.00 Ry     beta= 0.70
     Davidson diagonalization with overlap
     ethr =  7.07E-09,  avg # of iterations =  5.0

     total cpu time spent up to now is      596.1 secs

     End of self-consistent calculation

          k = 0.0000 0.0000 0.0000 (  9771 PWs)   bands (ev):

   -56.5152 -56.5152 -56.4805 -56.4805 -56.4805 -56.4805 -56.4805 -56.4805
   -28.5807 -28.5807 -28.5730 -28.5730 -28.5730 -28.5730 -28.4837 -28.4837
   -27.6155 -27.6155 -27.6155 -27.6155 -27.5387 -27.5387 -27.5387 -27.5387
   -27.5326 -27.5326 -27.4504 -27.4504 -27.4504 -27.4504 -27.4500 -27.4500
     2.6986   2.6986   7.4568   7.4568   7.4568   7.4568   7.4660   7.4660
    10.5369  10.5369  10.5448  10.5448  10.5448  10.5448  11.9116  11.9116
    11.9116  11.9116  11.9227  11.9227  12.6028  12.6028  12.7721  12.7721
    12.7721  12.7721  13.1436  13.1436  13.1436  13.1436  13.1447  13.1447
    13.6716  13.6716  13.6716  13.6716  13.6755  13.6755  15.5518  15.5518
    15.5832  15.5832  15.5832  15.5832  15.7658  15.7658  15.7658  15.7658
    16.6657  16.6657  16.6960  16.6960  16.6960  16.6960

     occupation numbers 
     1.0000   1.0000   1.0000   1.0000   1.0000   1.0000   1.0000   1.0000
     1.0000   1.0000   1.0000   1.0000   1.0000   1.0000   1.0000   1.0000
     1.0000   1.0000   1.0000   1.0000   1.0000   1.0000   1.0000   1.0000
     1.0000   1.0000   1.0000   1.0000   1.0000   1.0000   1.0000   1.0000
     1.0000   1.0000   1.0000   1.0000   1.0000   1.0000   1.0000   1.0000
     1.0000   1.0000   1.0000   1.0000   1.0000   1.0000   1.0000   1.0000
     1.0000   1.0000   1.0000   1.0000   1.0000   1.0000   1.0000   1.0000
     1.0000   1.0000   1.0000   1.0000   1.0000   1.0000   1.0000   1.0000
     1.0000   1.0000   1.0000   1.0000   1.0000   1.0000  -0.0004  -0.0004
    -0.0002  -0.0002  -0.0002  -0.0002  -0.0000  -0.0000  -0.0000  -0.0000
    -0.0000  -0.0000  -0.0000  -0.0000  -0.0000  -0.0000

          k = 0.0000 0.0000 0.0833 (  9699 PWs)   bands (ev):

   -56.5147 -56.5147 -56.4830 -56.4830 -56.4803 -56.4803 -56.4785 -56.4785
   -28.5850 -28.5779 -28.5773 -28.5751 -28.5694 -28.5668 -28.4850 -28.4850
   -27.6249 -27.6202 -27.6096 -27.6050 -27.5445 -27.5427 -27.5383 -27.5347
   -27.5337 -27.5247 -27.4554 -27.4540 -27.4525 -27.4491 -27.4485 -27.4456
     2.7468   2.7468   7.0338   7.0379   7.4857   7.4866   7.8140   7.8220
    10.2171  10.2228  10.5747  10.5757  10.8835  10.8869  11.4921  11.4941
    11.7821  11.7850  12.3541  12.3681  12.5853  12.5879  12.7664  12.7741
    12.8425  12.8427  13.1207  13.1222  13.1617  13.1622  13.1858  13.1863
    13.5506  13.5559  13.6651  13.6659  13.8256  13.8265  15.4679  15.4904
    15.4959  15.4995  15.6796  15.6988  15.7460  15.7548  15.7582  15.7695
    16.5416  16.5606  16.6630  16.6646  16.8150  16.8351

     occupation numbers 
     1.0000   1.0000   1.0000   1.0000   1.0000   1.0000   1.0000   1.0000
     1.0000   1.0000   1.0000   1.0000   1.0000   1.0000   1.0000   1.0000
     1.0000   1.0000   1.0000   1.0000   1.0000   1.0000   1.0000   1.0000
     1.0000   1.0000   1.0000   1.0000   1.0000   1.0000   1.0000   1.0000
     1.0000   1.0000   1.0000   1.0000   1.0000   1.0000   1.0000   1.0000
     1.0000   1.0000   1.0000   1.0000   1.0000   1.0000   1.0000   1.0000
     1.0000   1.0000   1.0000   1.0000   1.0000   1.0000   1.0000   1.0000
     1.0000   1.0000   1.0000   1.0000   1.0000   1.0000   1.0000   1.0000
     1.0000   1.0000   1.0000   1.0000   1.0000   1.0000  -0.0021  -0.0013
    -0.0012  -0.0011  -0.0000  -0.0000  -0.0000  -0.0000  -0.0000  -0.0000
    -0.0000  -0.0000  -0.0000  -0.0000  -0.0000  -0.0000

          k = 0.0000 0.0000 0.1667 (  9663 PWs)   bands (ev):

   -56.5134 -56.5134 -56.4861 -56.4861 -56.4799 -56.4799 -56.4772 -56.4772
   -28.5884 -28.5813 -28.5774 -28.5767 -28.5626 -28.5593 -28.4888 -28.4887
   -27.6323 -27.6243 -27.6022 -27.5946 -27.5509 -27.5454 -27.5403 -27.5325
   -27.5300 -27.5156 -27.4609 -27.4589 -27.4557 -27.4490 -27.4478 -27.4424
     2.8906   2.8906   6.5400   6.5425   7.5630   7.5649   8.1196   8.1290
     9.9479   9.9521  10.6626  10.6651  11.0720  11.0749  11.2873  11.2880
    11.5004  11.5052  12.4493  12.4597  12.7395  12.7618  12.8028  12.8094
    13.0114  13.0148  13.1077  13.1103  13.1969  13.1989  13.2277  13.2281
    13.5316  13.5417  13.6323  13.6348  13.9635  13.9639  15.2939  15.3148
    15.4173  15.4248  15.6926  15.7021  15.7477  15.7661  15.7923  15.8179
    16.4073  16.4228  16.5956  16.6031  16.9909  17.0115

     occupation numbers 
     1.0000   1.0000   1.0000   1.0000   1.0000   1.0000   1.0000   1.0000
     1.0000   1.0000   1.0000   1.0000   1.0000   1.0000   1.0000   1.0000
     1.0000   1.0000   1.0000   1.0000   1.0000   1.0000   1.0000   1.0000
     1.0000   1.0000   1.0000   1.0000   1.0000   1.0000   1.0000   1.0000
     1.0000   1.0000   1.0000   1.0000   1.0000   1.0000   1.0000   1.0000
     1.0000   1.0000   1.0000   1.0000   1.0000   1.0000   1.0000   1.0000
     1.0000   1.0000   1.0000   1.0000   1.0000   1.0000   1.0000   1.0000
     1.0000   1.0000   1.0000   1.0000   1.0000   1.0000   1.0000   1.0000
     1.0000   1.0000   1.0000   1.0000   1.0000   1.0000  -0.0247  -0.0203
    -0.0051  -0.0045  -0.0000  -0.0000  -0.0000  -0.0000  -0.0000  -0.0000
    -0.0000  -0.0000  -0.0000  -0.0000  -0.0000  -0.0000

          k = 0.0000 0.0000 0.2500 (  9618 PWs)   bands (ev):

   -56.5113 -56.5113 -56.4896 -56.4896 -56.4793 -56.4793 -56.4764 -56.4764
   -28.5904 -28.5833 -28.5801 -28.5776 -28.5537 -28.5507 -28.4948 -28.4945
   -27.6374 -27.6283 -27.5932 -27.5859 -27.5573 -27.5460 -27.5373 -27.5336
   -27.5282 -27.5059 -27.4687 -27.4620 -27.4598 -27.4498 -27.4474 -27.4408
     3.1271   3.1271   5.9918   5.9933   7.6895   7.6925   8.3701   8.3802
     9.7440   9.7453  10.7560  10.7613  10.8659  10.8747  11.1952  11.2026
    11.5683  11.5690  12.2655  12.2804  12.8663  12.8729  12.9123  12.9342
    13.1207  13.1247  13.1293  13.1345  13.2513  13.2519  13.2821  13.2861
    13.5439  13.5473  13.6979  13.7055  14.0465  14.0470  15.0731  15.1018
    15.3804  15.3810  15.6170  15.6322  15.7394  15.7637  15.8517  15.8756
    16.2856  16.3003  16.4937  16.5052  17.1874  17.2079

     occupation numbers 
     1.0000   1.0000   1.0000   1.0000   1.0000   1.0000   1.0000   1.0000
     1.0000   1.0000   1.0000   1.0000   1.0000   1.0000   1.0000   1.0000
     1.0000   1.0000   1.0000   1.0000   1.0000   1.0000   1.0000   1.0000
     1.0000   1.0000   1.0000   1.0000   1.0000   1.0000   1.0000   1.0000
     1.0000   1.0000   1.0000   1.0000   1.0000   1.0000   1.0000   1.0000
     1.0000   1.0000   1.0000   1.0000   1.0000   1.0000   1.0000   1.0000
     1.0000   1.0000   1.0000   1.0000   1.0000   1.0000   1.0000   1.0000
     1.0000   1.0000   1.0000   1.0000   1.0000   1.0000   1.0000   1.0000
     1.0000   1.0000   1.0000   1.0000   1.0000   1.0000   0.1037   0.0468
    -0.0090  -0.0090  -0.0001  -0.0000  -0.0000  -0.0000  -0.0000  -0.0000
    -0.0000  -0.0000  -0.0000  -0.0000  -0.0000  -0.0000

          k = 0.0000 0.0000 0.3333 (  9606 PWs)   bands (ev):

   -56.5085 -56.5085 -56.4934 -56.4934 -56.4785 -56.4785 -56.4762 -56.4762
   -28.5910 -28.5841 -28.5831 -28.5792 -28.5437 -28.5412 -28.5027 -28.5022
   -27.6400 -27.6323 -27.5837 -27.5791 -27.5632 -27.5442 -27.5389 -27.5291
   -27.5288 -27.4963 -27.4790 -27.4651 -27.4622 -27.4516 -27.4467 -27.4406
     3.4511   3.4511   5.4201   5.4209   7.8601   7.8641   8.5098   8.5194
     9.6514   9.6530  10.6591  10.6615  10.7716  10.7840  11.0445  11.0474
    11.8627  11.8646  12.1344  12.1501  12.8383  12.8544  12.9332  12.9426
    13.1142  13.1201  13.1697  13.1748  13.2584  13.2612  13.3940  13.3963
    13.4520  13.4542  13.9158  13.9197  14.1179  14.1246  14.8897  14.9239
    15.3580  15.3664  15.5356  15.5539  15.7438  15.7721  15.8546  15.8787
    16.1949  16.2107  16.3708  16.3845  17.3063  17.3223

     occupation numbers 
     1.0000   1.0000   1.0000   1.0000   1.0000   1.0000   1.0000   1.0000
     1.0000   1.0000   1.0000   1.0000   1.0000   1.0000   1.0000   1.0000
     1.0000   1.0000   1.0000   1.0000   1.0000   1.0000   1.0000   1.0000
     1.0000   1.0000   1.0000   1.0000   1.0000   1.0000   1.0000   1.0000
     1.0000   1.0000   1.0000   1.0000   1.0000   1.0000   1.0000   1.0000
     1.0000   1.0000   1.0000   1.0000   1.0000   1.0000   1.0000   1.0000
     1.0000   1.0000   1.0000   1.0000   1.0000   1.0000   1.0000   1.0000
     1.0000   1.0000   1.0000   1.0000   1.0000   1.0000   1.0000   1.0000
     1.0000   1.0000   1.0000   1.0000   1.0000   1.0000   0.7362   0.6137
    -0.0123  -0.0110  -0.0005  -0.0003  -0.0000  -0.0000  -0.0000  -0.0000
    -0.0000  -0.0000  -0.0000  -0.0000  -0.0000  -0.0000

          k = 0.0000 0.0000 0.4167 (  9666 PWs)   bands (ev):

   -56.5051 -56.5051 -56.4974 -56.4974 -56.4777 -56.4777 -56.4764 -56.4764
   -28.5903 -28.5860 -28.5838 -28.5810 -28.5331 -28.5311 -28.5121 -28.5112
   -27.6405 -27.6360 -27.5773 -27.5701 -27.5682 -27.5476 -27.5404 -27.5316
   -27.5173 -27.4910 -27.4871 -27.4714 -27.4603 -27.4542 -27.4453 -27.4417
     3.8551   3.8552   4.8569   4.8573   8.0649   8.0700   8.4633   8.4714
     9.7542   9.7579  10.3457  10.3481  10.7984  10.8117  11.0008  11.0066
    12.1358  12.1377  12.1478  12.1610  12.6966  12.7118  12.8885  12.9002
    13.0765  13.0809  13.1932  13.1956  13.2274  13.2313  13.2805  13.2839
    13.6257  13.6273  13.9011  13.9052  14.3434  14.3625  14.7373  14.7715
    15.3645  15.3788  15.4609  15.4801  15.7688  15.7989  15.8359  15.8628
    16.1486  16.1638  16.2503  16.2641  17.4015  17.4067

     occupation numbers 
     1.0000   1.0000   1.0000   1.0000   1.0000   1.0000   1.0000   1.0000
     1.0000   1.0000   1.0000   1.0000   1.0000   1.0000   1.0000   1.0000
     1.0000   1.0000   1.0000   1.0000   1.0000   1.0000   1.0000   1.0000
     1.0000   1.0000   1.0000   1.0000   1.0000   1.0000   1.0000   1.0000
     1.0000   1.0000   1.0000   1.0000   1.0000   1.0000   1.0000   1.0000
     1.0000   1.0000   1.0000   1.0000   1.0000   1.0000   1.0000   1.0000
     1.0000   1.0000   1.0000   1.0000   1.0000   1.0000   1.0000   1.0000
     1.0000   1.0000   1.0000   1.0000   1.0000   1.0000   1.0000   1.0000
     1.0000   1.0000   1.0000   1.0000   1.0003   1.0004   1.0244   0.9986
    -0.0113  -0.0092  -0.0024  -0.0016  -0.0000  -0.0000  -0.0000  -0.0000
    -0.0000  -0.0000  -0.0000  -0.0000  -0.0000  -0.0000

          k = 0.0000 0.0000-0.5000 (  9658 PWs)   bands (ev):

   -56.5014 -56.5014 -56.5014 -56.5014 -56.4769 -56.4769 -56.4769 -56.4769
   -28.5885 -28.5885 -28.5827 -28.5827 -28.5224 -28.5224 -28.5210 -28.5210
   -27.6389 -27.6389 -27.5731 -27.5731 -27.5584 -27.5584 -27.5358 -27.5358
   -27.5041 -27.5041 -27.4787 -27.4787 -27.4573 -27.4573 -27.4435 -27.4435
     4.3286   4.3286   4.3288   4.3288   8.2825   8.2825   8.2890   8.2890
    10.0170  10.0170  10.0210  10.0210  10.8980  10.8980  10.9093  10.9093
    12.2473  12.2473  12.2539  12.2539  12.6852  12.6852  12.6977  12.6977
    13.1420  13.1420  13.1425  13.1425  13.2372  13.2372  13.2408  13.2408
    13.7828  13.7828  13.7859  13.7859  14.5656  14.5656  14.5941  14.5941
    15.4013  15.4013  15.4191  15.4191  15.8060  15.8060  15.8357  15.8358
    16.1660  16.1660  16.1797  16.1797  17.5424  17.5434

     occupation numbers 
     1.0000   1.0000   1.0000   1.0000   1.0000   1.0000   1.0000   1.0000
     1.0000   1.0000   1.0000   1.0000   1.0000   1.0000   1.0000   1.0000
     1.0000   1.0000   1.0000   1.0000   1.0000   1.0000   1.0000   1.0000
     1.0000   1.0000   1.0000   1.0000   1.0000   1.0000   1.0000   1.0000
     1.0000   1.0000   1.0000   1.0000   1.0000   1.0000   1.0000   1.0000
     1.0000   1.0000   1.0000   1.0000   1.0000   1.0000   1.0000   1.0000
     1.0000   1.0000   1.0000   1.0000   1.0000   1.0000   1.0000   1.0000
     1.0000   1.0000   1.0000   1.0000   1.0000   1.0000   1.0000   1.0000
     1.0000   1.0000   1.0000   1.0000   1.0151   1.0151   1.0207   1.0207
    -0.0066  -0.0066  -0.0050  -0.0050  -0.0000  -0.0000  -0.0000  -0.0000
    -0.0000  -0.0000  -0.0000  -0.0000  -0.0000  -0.0000

          k = 0.0000 0.0833 0.0833 (  9665 PWs)   bands (ev):

   -56.5143 -56.5143 -56.4840 -56.4840 -56.4805 -56.4805 -56.4778 -56.4778
   -28.5867 -28.5801 -28.5763 -28.5745 -28.5678 -28.5642 -28.4863 -28.4863
   -27.6267 -27.6238 -27.6050 -27.6018 -27.5471 -27.5428 -27.5401 -27.5373
   -27.5292 -27.5207 -27.4576 -27.4573 -27.4535 -27.4491 -27.4470 -27.4440
     2.7949   2.7949   6.9085   6.9138   7.3949   7.3979   7.9861   7.9922
    10.1065  10.1122  10.6055  10.6086  10.9967  11.0020  11.2456  11.2470
    11.8531  11.8544  12.3855  12.4013  12.6045  12.6091  12.8118  12.8210
    12.8788  12.8838  13.1329  13.1354  13.1588  13.1622  13.2147  13.2169
    13.5049  13.5095  13.6662  13.6736  13.8928  13.8958  15.4192  15.4296
    15.4858  15.4876  15.6664  15.6798  15.7453  15.7531  15.7657  15.7766
    16.4766  16.4956  16.6698  16.6741  16.8510  16.8759

     occupation numbers 
     1.0000   1.0000   1.0000   1.0000   1.0000   1.0000   1.0000   1.0000
     1.0000   1.0000   1.0000   1.0000   1.0000   1.0000   1.0000   1.0000
     1.0000   1.0000   1.0000   1.0000   1.0000   1.0000   1.0000   1.0000
     1.0000   1.0000   1.0000   1.0000   1.0000   1.0000   1.0000   1.0000
     1.0000   1.0000   1.0000   1.0000   1.0000   1.0000   1.0000   1.0000
     1.0000   1.0000   1.0000   1.0000   1.0000   1.0000   1.0000   1.0000
     1.0000   1.0000   1.0000   1.0000   1.0000   1.0000   1.0000   1.0000
     1.0000   1.0000   1.0000   1.0000   1.0000   1.0000   1.0000   1.0000
     1.0000   1.0000   1.0000   1.0000   1.0000   1.0000  -0.0050  -0.0042
    -0.0015  -0.0014  -0.0000  -0.0000  -0.0000  -0.0000  -0.0000  -0.0000
    -0.0000  -0.0000  -0.0000  -0.0000  -0.0000  -0.0000

          k = 0.0000 0.0833 0.1667 (  9653 PWs)   bands (ev):

   -56.5130 -56.5130 -56.4865 -56.4865 -56.4802 -56.4802 -56.4769 -56.4769
   -28.5891 -28.5826 -28.5760 -28.5759 -28.5619 -28.5583 -28.4900 -28.4899
   -27.6323 -27.6263 -27.5991 -27.5933 -27.5514 -27.5460 -27.5416 -27.5362
   -27.5257 -27.5128 -27.4639 -27.4613 -27.4556 -27.4503 -27.4455 -27.4411
     2.9383   2.9383   6.5236   6.5272   7.4123   7.4147   8.2329   8.2394
     9.9138   9.9181  10.6960  10.6971  10.8380  10.8409  11.3144  11.3163
    11.6690  11.6731  12.4473  12.4526  12.6188  12.6252  12.9295  12.9371
    13.0461  13.0520  13.1334  13.1338  13.1831  13.1856  13.2626  13.2651
    13.4816  13.4865  13.6761  13.6868  13.9995  14.0049  15.2965  15.3176
    15.3789  15.3932  15.6434  15.6575  15.7242  15.7380  15.8079  15.8295
    16.3629  16.3807  16.6149  16.6246  16.9880  17.0149

     occupation numbers 
     1.0000   1.0000   1.0000   1.0000   1.0000   1.0000   1.0000   1.0000
     1.0000   1.0000   1.0000   1.0000   1.0000   1.0000   1.0000   1.0000
     1.0000   1.0000   1.0000   1.0000   1.0000   1.0000   1.0000   1.0000
     1.0000   1.0000   1.0000   1.0000   1.0000   1.0000   1.0000   1.0000
     1.0000   1.0000   1.0000   1.0000   1.0000   1.0000   1.0000   1.0000
     1.0000   1.0000   1.0000   1.0000   1.0000   1.0000   1.0000   1.0000
     1.0000   1.0000   1.0000   1.0000   1.0000   1.0000   1.0000   1.0000
     1.0000   1.0000   1.0000   1.0000   1.0000   1.0000   1.0000   1.0000
     1.0000   1.0000   1.0000   1.0000   1.0000   1.0000  -0.0242  -0.0197
    -0.0092  -0.0075  -0.0000  -0.0000  -0.0000  -0.0000  -0.0000  -0.0000
    -0.0000  -0.0000  -0.0000  -0.0000  -0.0000  -0.0000

          k = 0.0000 0.0833 0.2500 (  9646 PWs)   bands (ev):

   -56.5109 -56.5109 -56.4898 -56.4898 -56.4796 -56.4796 -56.4763 -56.4763
   -28.5906 -28.5842 -28.5786 -28.5768 -28.5536 -28.5504 -28.4959 -28.4957
   -27.6367 -27.6289 -27.5915 -27.5851 -27.5571 -27.5468 -27.5394 -27.5362
   -27.5248 -27.5037 -27.4721 -27.4643 -27.4587 -27.4525 -27.4444 -27.4393
     3.1739   3.1740   6.0095   6.0115   7.5330   7.5348   8.4345   8.4414
     9.7448   9.7462  10.5617  10.5652  10.8459  10.8486  11.3939  11.4021
    11.5686  11.5703  12.2884  12.3012  12.7222  12.7237  13.0170  13.0314
    13.0884  13.0922  13.1766  13.1825  13.2492  13.2498  13.3332  13.3362
    13.5258  13.5311  13.7540  13.7671  14.0712  14.0765  15.0810  15.1090
    15.3424  15.3527  15.5660  15.5816  15.7121  15.7339  15.8498  15.8742
    16.2535  16.2691  16.5138  16.5263  17.1638  17.1915

     occupation numbers 
     1.0000   1.0000   1.0000   1.0000   1.0000   1.0000   1.0000   1.0000
     1.0000   1.0000   1.0000   1.0000   1.0000   1.0000   1.0000   1.0000
     1.0000   1.0000   1.0000   1.0000   1.0000   1.0000   1.0000   1.0000
     1.0000   1.0000   1.0000   1.0000   1.0000   1.0000   1.0000   1.0000
     1.0000   1.0000   1.0000   1.0000   1.0000   1.0000   1.0000   1.0000
     1.0000   1.0000   1.0000   1.0000   1.0000   1.0000   1.0000   1.0000
     1.0000   1.0000   1.0000   1.0000   1.0000   1.0000   1.0000   1.0000
     1.0000   1.0000   1.0000   1.0000   1.0000   1.0000   1.0000   1.0000
     1.0000   1.0000   1.0000   1.0000   1.0000   1.0000   0.0862   0.0351
    -0.0149  -0.0132  -0.0003  -0.0002  -0.0000  -0.0000  -0.0000  -0.0000
    -0.0000  -0.0000  -0.0000  -0.0000  -0.0000  -0.0000

          k = 0.0000 0.0833 0.3333 (  9649 PWs)   bands (ev):

   -56.5081 -56.5081 -56.4934 -56.4934 -56.4788 -56.4788 -56.4762 -56.4762
   -28.5908 -28.5848 -28.5814 -28.5785 -28.5439 -28.5414 -28.5037 -28.5033
   -27.6391 -27.6320 -27.5831 -27.5783 -27.5629 -27.5453 -27.5407 -27.5313
   -27.5261 -27.4946 -27.4821 -27.4660 -27.4621 -27.4548 -27.4434 -27.4388
     3.4968   3.4969   5.4514   5.4525   7.7140   7.7161   8.5120   8.5183
     9.6728   9.6749  10.3912  10.3956  10.9572  10.9601  11.1468  11.1593
    11.8088  11.8125  12.1756  12.1891  12.7438  12.7483  12.9870  12.9939
    13.0259  13.0307  13.2302  13.2351  13.2975  13.2991  13.4274  13.4328
    13.4957  13.5061  13.9333  13.9415  14.1520  14.1602  14.8958  14.9292
    15.3235  15.3358  15.4797  15.4954  15.7138  15.7395  15.8537  15.8794
    16.1744  16.1872  16.3940  16.4077  17.2784  17.3018

     occupation numbers 
     1.0000   1.0000   1.0000   1.0000   1.0000   1.0000   1.0000   1.0000
     1.0000   1.0000   1.0000   1.0000   1.0000   1.0000   1.0000   1.0000
     1.0000   1.0000   1.0000   1.0000   1.0000   1.0000   1.0000   1.0000
     1.0000   1.0000   1.0000   1.0000   1.0000   1.0000   1.0000   1.0000
     1.0000   1.0000   1.0000   1.0000   1.0000   1.0000   1.0000   1.0000
     1.0000   1.0000   1.0000   1.0000   1.0000   1.0000   1.0000   1.0000
     1.0000   1.0000   1.0000   1.0000   1.0000   1.0000   1.0000   1.0000
     1.0000   1.0000   1.0000   1.0000   1.0000   1.0000   1.0000   1.0000
     1.0000   1.0000   1.0000   1.0000   1.0000   1.0000   0.7156   0.5936
    -0.0186  -0.0162  -0.0017  -0.0012  -0.0000  -0.0000  -0.0000  -0.0000
    -0.0000  -0.0000  -0.0000  -0.0000  -0.0000  -0.0000

          k = 0.0000 0.0833 0.4167 (  9647 PWs)   bands (ev):

   -56.5048 -56.5048 -56.4973 -56.4973 -56.4779 -56.4779 -56.4765 -56.4765
   -28.5898 -28.5857 -28.5830 -28.5804 -28.5336 -28.5317 -28.5130 -28.5121
   -27.6393 -27.6352 -27.5771 -27.5694 -27.5682 -27.5491 -27.5404 -27.5310
   -27.5191 -27.4942 -27.4851 -27.4705 -27.4620 -27.4573 -27.4422 -27.4395
     3.8991   3.8993   4.8948   4.8953   7.9377   7.9407   8.4043   8.4094
     9.7771   9.7807  10.2244  10.2283  10.9620  10.9678  11.0304  11.0357
    12.0233  12.0293  12.2039  12.2114  12.6467  12.6514  12.8366  12.8443
    13.0728  13.0767  13.2598  13.2628  13.2909  13.2938  13.3204  13.3230
    13.6491  13.6523  13.9197  13.9243  14.3701  14.3909  14.7448  14.7788
    15.3270  15.3421  15.4069  15.4227  15.7403  15.7676  15.8307  15.8584
    16.1460  16.1557  16.2754  16.2881  17.3829  17.3969

     occupation numbers 
     1.0000   1.0000   1.0000   1.0000   1.0000   1.0000   1.0000   1.0000
     1.0000   1.0000   1.0000   1.0000   1.0000   1.0000   1.0000   1.0000
     1.0000   1.0000   1.0000   1.0000   1.0000   1.0000   1.0000   1.0000
     1.0000   1.0000   1.0000   1.0000   1.0000   1.0000   1.0000   1.0000
     1.0000   1.0000   1.0000   1.0000   1.0000   1.0000   1.0000   1.0000
     1.0000   1.0000   1.0000   1.0000   1.0000   1.0000   1.0000   1.0000
     1.0000   1.0000   1.0000   1.0000   1.0000   1.0000   1.0000   1.0000
     1.0000   1.0000   1.0000   1.0000   1.0000   1.0000   1.0000   1.0000
     1.0000   1.0000   1.0000   1.0000   1.0005   1.0008   1.0203   0.9906
    -0.0178  -0.0150  -0.0061  -0.0047  -0.0000  -0.0000  -0.0000  -0.0000
    -0.0000  -0.0000  -0.0000  -0.0000  -0.0000  -0.0000

          k = 0.0000 0.0833-0.5000 (  9688 PWs)   bands (ev):

   -56.5012 -56.5012 -56.5012 -56.5012 -56.4771 -56.4771 -56.4771 -56.4771
   -28.5879 -28.5879 -28.5821 -28.5821 -28.5234 -28.5234 -28.5215 -28.5215
   -27.6379 -27.6379 -27.5728 -27.5728 -27.5589 -27.5589 -27.5357 -27.5357
   -27.5066 -27.5066 -27.4773 -27.4773 -27.4598 -27.4598 -27.4408 -27.4408
     4.3702   4.3702   4.3705   4.3705   8.1814   8.1814   8.1881   8.1881
     9.9983   9.9983  10.0028  10.0028  10.9694  10.9694  10.9827  10.9827
    12.1975  12.1975  12.2035  12.2035  12.6446  12.6446  12.6604  12.6604
    13.1824  13.1824  13.1867  13.1867  13.2831  13.2831  13.2851  13.2851
    13.8039  13.8039  13.8073  13.8073  14.5810  14.5810  14.6105  14.6105
    15.3549  15.3549  15.3717  15.3717  15.7864  15.7864  15.8161  15.8161
    16.1821  16.1821  16.1941  16.1941  17.5401  17.5449

     occupation numbers 
     1.0000   1.0000   1.0000   1.0000   1.0000   1.0000   1.0000   1.0000
     1.0000   1.0000   1.0000   1.0000   1.0000   1.0000   1.0000   1.0000
     1.0000   1.0000   1.0000   1.0000   1.0000   1.0000   1.0000   1.0000
     1.0000   1.0000   1.0000   1.0000   1.0000   1.0000   1.0000   1.0000
     1.0000   1.0000   1.0000   1.0000   1.0000   1.0000   1.0000   1.0000
     1.0000   1.0000   1.0000   1.0000   1.0000   1.0000   1.0000   1.0000
     1.0000   1.0000   1.0000   1.0000   1.0000   1.0000   1.0000   1.0000
     1.0000   1.0000   1.0000   1.0000   1.0000   1.0000   1.0000   1.0000
     1.0000   1.0000   1.0000   1.0000   1.0181   1.0181   1.0242   1.0242
    -0.0128  -0.0128  -0.0102  -0.0102  -0.0000  -0.0000  -0.0000  -0.0000
    -0.0000  -0.0000  -0.0000  -0.0000  -0.0000  -0.0000

          k = 0.0000 0.1667 0.1667 (  9657 PWs)   bands (ev):

   -56.5117 -56.5117 -56.4880 -56.4880 -56.4805 -56.4805 -56.4764 -56.4764
   -28.5902 -28.5842 -28.5750 -28.5749 -28.5589 -28.5549 -28.4936 -28.4934
   -27.6331 -27.6290 -27.5930 -27.5891 -27.5523 -27.5490 -27.5435 -27.5381
   -27.5219 -27.5064 -27.4698 -27.4660 -27.4585 -27.4501 -27.4430 -27.4388
     3.0802   3.0803   6.3973   6.4017   7.2077   7.2121   8.4068   8.4121
     9.8324   9.8358  10.5102  10.5127  10.7868  10.7881  11.3570  11.3600
    11.7801  11.7805  12.4120  12.4177  12.5879  12.5956  12.9948  12.9962
    13.0906  13.0988  13.1716  13.1724  13.2435  13.2501  13.3354  13.3405
    13.4671  13.4750  13.7324  13.7465  14.0754  14.0827  15.2518  15.2735
    15.3013  15.3206  15.5352  15.5472  15.6949  15.7159  15.8140  15.8385
    16.2774  16.2944  16.6072  16.6169  17.0331  17.0676

     occupation numbers 
     1.0000   1.0000   1.0000   1.0000   1.0000   1.0000   1.0000   1.0000
     1.0000   1.0000   1.0000   1.0000   1.0000   1.0000   1.0000   1.0000
     1.0000   1.0000   1.0000   1.0000   1.0000   1.0000   1.0000   1.0000
     1.0000   1.0000   1.0000   1.0000   1.0000   1.0000   1.0000   1.0000
     1.0000   1.0000   1.0000   1.0000   1.0000   1.0000   1.0000   1.0000
     1.0000   1.0000   1.0000   1.0000   1.0000   1.0000   1.0000   1.0000
     1.0000   1.0000   1.0000   1.0000   1.0000   1.0000   1.0000   1.0000
     1.0000   1.0000   1.0000   1.0000   1.0000   1.0000   1.0000   1.0000
     1.0000   1.0000   1.0000   1.0000   1.0000   1.0000  -0.0328  -0.0289
    -0.0232  -0.0191  -0.0005  -0.0004  -0.0000  -0.0000  -0.0000  -0.0000
    -0.0000  -0.0000  -0.0000  -0.0000  -0.0000  -0.0000

          k = 0.0000 0.1667 0.2500 (  9644 PWs)   bands (ev):

   -56.5098 -56.5098 -56.4904 -56.4904 -56.4802 -56.4802 -56.4762 -56.4762
   -28.5906 -28.5849 -28.5763 -28.5752 -28.5526 -28.5493 -28.4992 -28.4990
   -27.6351 -27.6300 -27.5871 -27.5829 -27.5564 -27.5501 -27.5425 -27.5383
   -27.5209 -27.4990 -27.4782 -27.4693 -27.4621 -27.4508 -27.4411 -27.4367
     3.3135   3.3136   6.0384   6.0415   7.2039   7.2077   8.5047   8.5090
     9.7418   9.7437  10.2896  10.2937  10.8766  10.8778  11.4819  11.4826
    11.6892  11.6904  12.3246  12.3301  12.5673  12.5728  12.9878  12.9951
    13.1252  13.1383  13.2053  13.2107  13.3296  13.3307  13.4426  13.4505
    13.5206  13.5281  13.8635  13.8790  14.1363  14.1438  15.0964  15.1216
    15.2389  15.2579  15.4380  15.4511  15.6656  15.6886  15.8203  15.8472
    16.1948  16.2088  16.5337  16.5453  17.1531  17.1919

     occupation numbers 
     1.0000   1.0000   1.0000   1.0000   1.0000   1.0000   1.0000   1.0000
     1.0000   1.0000   1.0000   1.0000   1.0000   1.0000   1.0000   1.0000
     1.0000   1.0000   1.0000   1.0000   1.0000   1.0000   1.0000   1.0000
     1.0000   1.0000   1.0000   1.0000   1.0000   1.0000   1.0000   1.0000
     1.0000   1.0000   1.0000   1.0000   1.0000   1.0000   1.0000   1.0000
     1.0000   1.0000   1.0000   1.0000   1.0000   1.0000   1.0000   1.0000
     1.0000   1.0000   1.0000   1.0000   1.0000   1.0000   1.0000   1.0000
     1.0000   1.0000   1.0000   1.0000   1.0000   1.0000   1.0000   1.0000
     1.0000   1.0000   1.0000   1.0000   1.0000   1.0000   0.0561   0.0172
    -0.0344  -0.0318  -0.0036  -0.0028  -0.0000  -0.0000  -0.0000  -0.0000
    -0.0000  -0.0000  -0.0000  -0.0000  -0.0000  -0.0000

          k = 0.0000 0.1667 0.3333 (  9647 PWs)   bands (ev):

   -56.5071 -56.5071 -56.4935 -56.4935 -56.4795 -56.4795 -56.4764 -56.4764
   -28.5900 -28.5848 -28.5788 -28.5766 -28.5443 -28.5417 -28.5066 -28.5063
   -27.6363 -27.6310 -27.5819 -27.5762 -27.5621 -27.5490 -27.5423 -27.5339
   -27.5231 -27.4927 -27.4873 -27.4717 -27.4641 -27.4530 -27.4394 -27.4357
     3.6327   3.6330   5.5377   5.5394   7.3629   7.3656   8.4326   8.4358
     9.7329   9.7362  10.1894  10.1937  10.9873  10.9904  11.3853  11.3950
    11.7521  11.7564  12.1889  12.1977  12.5943  12.6020  12.8759  12.8847
    13.1123  13.1217  13.2509  13.2567  13.3789  13.3802  13.5257  13.5357
    13.5893  13.6025  13.9886  13.9992  14.2438  14.2562  14.9094  14.9404
    15.2246  15.2432  15.3446  15.3546  15.6534  15.6785  15.8059  15.8363
    16.1516  16.1611  16.4394  16.4525  17.2363  17.2692

     occupation numbers 
     1.0000   1.0000   1.0000   1.0000   1.0000   1.0000   1.0000   1.0000
     1.0000   1.0000   1.0000   1.0000   1.0000   1.0000   1.0000   1.0000
     1.0000   1.0000   1.0000   1.0000   1.0000   1.0000   1.0000   1.0000
     1.0000   1.0000   1.0000   1.0000   1.0000   1.0000   1.0000   1.0000
     1.0000   1.0000   1.0000   1.0000   1.0000   1.0000   1.0000   1.0000
     1.0000   1.0000   1.0000   1.0000   1.0000   1.0000   1.0000   1.0000
     1.0000   1.0000   1.0000   1.0000   1.0000   1.0000   1.0000   1.0000
     1.0000   1.0000   1.0000   1.0000   1.0000   1.0000   1.0000   1.0000
     1.0000   1.0000   1.0000   1.0000   1.0000   1.0000   0.6672   0.5504
    -0.0354  -0.0340  -0.0145  -0.0128  -0.0000  -0.0000  -0.0000  -0.0000
    -0.0000  -0.0000  -0.0000  -0.0000  -0.0000  -0.0000

          k = 0.0000 0.1667 0.4167 (  9668 PWs)   bands (ev):

   -56.5040 -56.5040 -56.4970 -56.4970 -56.4786 -56.4786 -56.4769 -56.4769
   -28.5884 -28.5845 -28.5810 -28.5786 -28.5349 -28.5331 -28.5154 -28.5147
   -27.6361 -27.6328 -27.5776 -27.5703 -27.5656 -27.5519 -27.5403 -27.5299
   -27.5224 -27.5001 -27.4846 -27.4749 -27.4629 -27.4562 -27.4378 -27.4357
     4.0299   4.0303   5.0053   5.0063   7.6067   7.6088   8.1964   8.1989
     9.8542   9.8577  10.1270  10.1305  11.0543  11.0630  11.2130  11.2269
    11.9235  11.9286  12.1474  12.1531  12.5358  12.5452  12.7023  12.7130
    13.1764  13.1808  13.2860  13.2908  13.3746  13.3769  13.4822  13.4835
    13.7240  13.7281  13.9709  13.9770  14.4432  14.4682  14.7613  14.7943
    15.2237  15.2400  15.2768  15.2854  15.6698  15.6966  15.7670  15.7985
    16.1697  16.1756  16.3385  16.3512  17.3266  17.3480

     occupation numbers 
     1.0000   1.0000   1.0000   1.0000   1.0000   1.0000   1.0000   1.0000
     1.0000   1.0000   1.0000   1.0000   1.0000   1.0000   1.0000   1.0000
     1.0000   1.0000   1.0000   1.0000   1.0000   1.0000   1.0000   1.0000
     1.0000   1.0000   1.0000   1.0000   1.0000   1.0000   1.0000   1.0000
     1.0000   1.0000   1.0000   1.0000   1.0000   1.0000   1.0000   1.0000
     1.0000   1.0000   1.0000   1.0000   1.0000   1.0000   1.0000   1.0000
     1.0000   1.0000   1.0000   1.0000   1.0000   1.0000   1.0000   1.0000
     1.0000   1.0000   1.0000   1.0000   1.0000   1.0000   1.0000   1.0000
     1.0000   1.0000   1.0000   1.0000   1.0023   1.0036   1.0082   0.9703
    -0.0354  -0.0343  -0.0283  -0.0265  -0.0000  -0.0000  -0.0000  -0.0000
    -0.0000  -0.0000  -0.0000  -0.0000  -0.0000  -0.0000

          k = 0.0000 0.1667-0.5000 (  9654 PWs)   bands (ev):

   -56.5006 -56.5006 -56.5006 -56.5006 -56.4777 -56.4777 -56.4777 -56.4777
   -28.5862 -28.5862 -28.5805 -28.5805 -28.5258 -28.5258 -28.5231 -28.5231
   -27.6347 -27.6347 -27.5735 -27.5735 -27.5590 -27.5590 -27.5351 -27.5351
   -27.5116 -27.5116 -27.4793 -27.4793 -27.4598 -27.4598 -27.4365 -27.4365
     4.4933   4.4933   4.4940   4.4940   7.8950   7.8950   7.9019   7.9019
    10.0148  10.0148  10.0188  10.0188  11.1033  11.1033  11.1174  11.1174
    12.0900  12.0900  12.0946  12.0946  12.5397  12.5397  12.5555  12.5555
    13.2755  13.2755  13.2765  13.2765  13.3907  13.3907  13.3919  13.3919
    13.8666  13.8666  13.8706  13.8706  14.6207  14.6207  14.6520  14.6520
    15.2372  15.2372  15.2519  15.2519  15.7141  15.7141  15.7438  15.7438
    16.2396  16.2396  16.2503  16.2503  17.4855  17.4931

     occupation numbers 
     1.0000   1.0000   1.0000   1.0000   1.0000   1.0000   1.0000   1.0000
     1.0000   1.0000   1.0000   1.0000   1.0000   1.0000   1.0000   1.0000
     1.0000   1.0000   1.0000   1.0000   1.0000   1.0000   1.0000   1.0000
     1.0000   1.0000   1.0000   1.0000   1.0000   1.0000   1.0000   1.0000
     1.0000   1.0000   1.0000   1.0000   1.0000   1.0000   1.0000   1.0000
     1.0000   1.0000   1.0000   1.0000   1.0000   1.0000   1.0000   1.0000
     1.0000   1.0000   1.0000   1.0000   1.0000   1.0000   1.0000   1.0000
     1.0000   1.0000   1.0000   1.0000   1.0000   1.0000   1.0000   1.0000
     1.0000   1.0000   1.0000   1.0000   1.0264   1.0264   1.0323   1.0323
    -0.0346  -0.0346  -0.0328  -0.0328  -0.0000  -0.0000  -0.0000  -0.0000
    -0.0000  -0.0000  -0.0000  -0.0000  -0.0000  -0.0000

          k = 0.0000 0.2500 0.2500 (  9661 PWs)   bands (ev):

   -56.5079 -56.5079 -56.4918 -56.4918 -56.4805 -56.4805 -56.4764 -56.4764
   -28.5900 -28.5848 -28.5752 -28.5744 -28.5497 -28.5464 -28.5046 -28.5042
   -27.6334 -27.6302 -27.5825 -27.5802 -27.5565 -27.5531 -27.5428 -27.5393
   -27.5193 -27.4957 -27.4849 -27.4748 -27.4652 -27.4485 -27.4386 -27.4346
     3.5426   3.5427   5.9651   5.9684   6.9411   6.9451   8.4363   8.4413
     9.7516   9.7548  10.1864  10.1915  10.9260  10.9285  11.3506  11.3517
    11.8598  11.8636  12.2863  12.2898  12.5058  12.5151  12.9040  12.9116
    13.1480  13.1573  13.2703  13.2798  13.4419  13.4434  13.5200  13.5292
    13.5708  13.5814  13.9845  13.9968  14.2200  14.2256  15.0463  15.0667
    15.1401  15.1648  15.2945  15.3059  15.6157  15.6408  15.7630  15.7919
    16.1597  16.1707  16.5123  16.5231  17.1854  17.2282

     occupation numbers 
     1.0000   1.0000   1.0000   1.0000   1.0000   1.0000   1.0000   1.0000
     1.0000   1.0000   1.0000   1.0000   1.0000   1.0000   1.0000   1.0000
     1.0000   1.0000   1.0000   1.0000   1.0000   1.0000   1.0000   1.0000
     1.0000   1.0000   1.0000   1.0000   1.0000   1.0000   1.0000   1.0000
     1.0000   1.0000   1.0000   1.0000   1.0000   1.0000   1.0000   1.0000
     1.0000   1.0000   1.0000   1.0000   1.0000   1.0000   1.0000   1.0000
     1.0000   1.0000   1.0000   1.0000   1.0000   1.0000   1.0000   1.0000
     1.0000   1.0000   1.0000   1.0000   1.0000   1.0000   1.0000   1.0000
     1.0000   1.0000   1.0000   1.0000   1.0000   1.0000   0.1729   0.1190
    -0.0033  -0.0218  -0.0246  -0.0222  -0.0001  -0.0000  -0.0000  -0.0000
    -0.0000  -0.0000  -0.0000  -0.0000  -0.0000  -0.0000

          k = 0.0000 0.2500 0.3333 (  9636 PWs)   bands (ev):

   -56.5055 -56.5055 -56.4939 -56.4939 -56.4802 -56.4802 -56.4769 -56.4769
   -28.5885 -28.5838 -28.5763 -28.5748 -28.5440 -28.5415 -28.5114 -28.5110
   -27.6323 -27.6293 -27.5816 -27.5751 -27.5610 -27.5514 -27.5416 -27.5363
   -27.5214 -27.4955 -27.4925 -27.4793 -27.4636 -27.4482 -27.4366 -27.4333
     3.8555   3.8558   5.6431   5.6455   6.9524   6.9560   8.1880   8.1918
     9.8429   9.8465  10.1796  10.1835  10.9893  10.9915  11.3884  11.3920
    11.8758  11.8780  12.1108  12.1121  12.4497  12.4600  12.7485  12.7570
    13.1973  13.2074  13.3029  13.3098  13.4493  13.4528  13.6458  13.6491
    13.7124  13.7172  14.0565  14.0675  14.3683  14.3882  14.9104  14.9351
    15.0753  15.0992  15.1877  15.1950  15.5836  15.6081  15.7084  15.7400
    16.1731  16.1810  16.4785  16.4884  17.1846  17.2202

     occupation numbers 
     1.0000   1.0000   1.0000   1.0000   1.0000   1.0000   1.0000   1.0000
     1.0000   1.0000   1.0000   1.0000   1.0000   1.0000   1.0000   1.0000
     1.0000   1.0000   1.0000   1.0000   1.0000   1.0000   1.0000   1.0000
     1.0000   1.0000   1.0000   1.0000   1.0000   1.0000   1.0000   1.0000
     1.0000   1.0000   1.0000   1.0000   1.0000   1.0000   1.0000   1.0000
     1.0000   1.0000   1.0000   1.0000   1.0000   1.0000   1.0000   1.0000
     1.0000   1.0000   1.0000   1.0000   1.0000   1.0000   1.0000   1.0000
     1.0000   1.0000   1.0000   1.0000   1.0000   1.0000   1.0000   1.0000
     1.0000   1.0000   1.0000   1.0000   1.0005   1.0007   0.6636   0.5710
     0.0989   0.0511  -0.0313  -0.0331  -0.0002  -0.0001  -0.0000  -0.0000
    -0.0000  -0.0000  -0.0000  -0.0000  -0.0000  -0.0000

          k = 0.0000 0.2500 0.4167 (  9659 PWs)   bands (ev):

   -56.5027 -56.5027 -56.4967 -56.4967 -56.4795 -56.4795 -56.4776 -56.4776
   -28.5862 -28.5825 -28.5784 -28.5763 -28.5365 -28.5348 -28.5192 -28.5187
   -27.6309 -27.6288 -27.5804 -27.5746 -27.5606 -27.5520 -27.5396 -27.5293
   -27.5249 -27.5055 -27.4908 -27.4838 -27.4589 -27.4501 -27.4348 -27.4330
     4.2432   4.2438   5.1759   5.1773   7.1707   7.1736   7.8422   7.8452
     9.9963   9.9994  10.1860  10.1890  11.0742  11.0807  11.3414  11.3525
    11.9082  11.9109  11.9806  11.9857  12.4124  12.4240  12.5559  12.5673
    13.2763  13.2846  13.3660  13.3681  13.4298  13.4317  13.6290  13.6314
    13.8635  13.8663  14.0587  14.0663  14.5324  14.5613  14.7626  14.7910
    15.0733  15.0905  15.1198  15.1231  15.5778  15.6030  15.6522  15.6837
    16.2388  16.2460  16.4218  16.4329  17.2192  17.2415

     occupation numbers 
     1.0000   1.0000   1.0000   1.0000   1.0000   1.0000   1.0000   1.0000
     1.0000   1.0000   1.0000   1.0000   1.0000   1.0000   1.0000   1.0000
     1.0000   1.0000   1.0000   1.0000   1.0000   1.0000   1.0000   1.0000
     1.0000   1.0000   1.0000   1.0000   1.0000   1.0000   1.0000   1.0000
     1.0000   1.0000   1.0000   1.0000   1.0000   1.0000   1.0000   1.0000
     1.0000   1.0000   1.0000   1.0000   1.0000   1.0000   1.0000   1.0000
     1.0000   1.0000   1.0000   1.0000   1.0000   1.0000   1.0000   1.0000
     1.0000   1.0000   1.0000   1.0000   1.0000   1.0000   1.0000   1.0000
     1.0000   1.0000   1.0000   1.0000   1.0098   1.0144   1.0071   0.9750
     0.1034   0.0670   0.0197   0.0154  -0.0002  -0.0001  -0.0000  -0.0000
    -0.0000  -0.0000  -0.0000  -0.0000  -0.0000  -0.0000

          k = 0.0000 0.2500-0.5000 (  9686 PWs)   bands (ev):

   -56.4997 -56.4997 -56.4997 -56.4997 -56.4786 -56.4786 -56.4786 -56.4786
   -28.5835 -28.5835 -28.5783 -28.5783 -28.5290 -28.5290 -28.5259 -28.5259
   -27.6295 -27.6295 -27.5778 -27.5778 -27.5560 -27.5560 -27.5340 -27.5340
   -27.5164 -27.5164 -27.4877 -27.4877 -27.4539 -27.4539 -27.4335 -27.4335
     4.6915   4.6915   4.6926   4.6926   7.4836   7.4836   7.4897   7.4897
    10.1294  10.1294  10.1324  10.1324  11.2000  11.2000  11.2117  11.2117
    11.9553  11.9553  11.9572  11.9572  12.4186  12.4186  12.4310  12.4310
    13.3471  13.3471  13.3536  13.3536  13.5159  13.5159  13.5220  13.5220
    13.9873  13.9873  13.9928  13.9928  14.6543  14.6543  14.6848  14.6848
    15.0852  15.0852  15.0969  15.0969  15.6034  15.6034  15.6323  15.6323
    16.3328  16.3328  16.3438  16.3438  17.3595  17.3607

     occupation numbers 
     1.0000   1.0000   1.0000   1.0000   1.0000   1.0000   1.0000   1.0000
     1.0000   1.0000   1.0000   1.0000   1.0000   1.0000   1.0000   1.0000
     1.0000   1.0000   1.0000   1.0000   1.0000   1.0000   1.0000   1.0000
     1.0000   1.0000   1.0000   1.0000   1.0000   1.0000   1.0000   1.0000
     1.0000   1.0000   1.0000   1.0000   1.0000   1.0000   1.0000   1.0000
     1.0000   1.0000   1.0000   1.0000   1.0000   1.0000   1.0000   1.0000
     1.0000   1.0000   1.0000   1.0000   1.0000   1.0000   1.0000   1.0000
     1.0000   1.0000   1.0000   1.0000   1.0000   1.0000   1.0000   1.0000
     1.0000   1.0000   1.0000   1.0000   1.0327   1.0327   1.0354   1.0354
     0.0775   0.0775   0.0552   0.0552  -0.0001  -0.0001  -0.0000  -0.0000
    -0.0000  -0.0000  -0.0000  -0.0000  -0.0000  -0.0000

          k = 0.0000 0.3333 0.3333 (  9619 PWs)   bands (ev):

   -56.5035 -56.5035 -56.4949 -56.4949 -56.4805 -56.4805 -56.4776 -56.4776
   -28.5861 -28.5821 -28.5750 -28.5741 -28.5420 -28.5396 -28.5175 -28.5167
   -27.6279 -27.6266 -27.5832 -27.5775 -27.5582 -27.5503 -27.5382 -27.5374
   -27.5219 -27.5008 -27.4985 -27.4872 -27.4583 -27.4446 -27.4351 -27.4320
     4.1583   4.1587   5.6399   5.6421   6.6784   6.6812   7.8198   7.8235
    10.0315  10.0342  10.3050  10.3080  10.9406  10.9423  11.2581  11.2603
    11.8944  11.9010  12.1583  12.1627  12.3092  12.3187  12.6282  12.6361
    13.1786  13.1870  13.3908  13.3958  13.5593  13.5621  13.7203  13.7256
    13.8833  13.8949  14.0942  14.1070  14.4878  14.5135  14.8481  14.8597
    14.9406  14.9608  15.0571  15.0738  15.5214  15.5446  15.6023  15.6322
    16.2322  16.2411  16.4898  16.4967  17.1466  17.1772

     occupation numbers 
     1.0000   1.0000   1.0000   1.0000   1.0000   1.0000   1.0000   1.0000
     1.0000   1.0000   1.0000   1.0000   1.0000   1.0000   1.0000   1.0000
     1.0000   1.0000   1.0000   1.0000   1.0000   1.0000   1.0000   1.0000
     1.0000   1.0000   1.0000   1.0000   1.0000   1.0000   1.0000   1.0000
     1.0000   1.0000   1.0000   1.0000   1.0000   1.0000   1.0000   1.0000
     1.0000   1.0000   1.0000   1.0000   1.0000   1.0000   1.0000   1.0000
     1.0000   1.0000   1.0000   1.0000   1.0000   1.0000   1.0000   1.0000
     1.0000   1.0000   1.0000   1.0000   1.0000   1.0000   1.0000   1.0000
     1.0000   1.0000   1.0000   1.0000   1.0050   1.0075   0.8611   0.8295
     0.5497   0.4713   0.1433   0.1022  -0.0007  -0.0004  -0.0001  -0.0000
    -0.0000  -0.0000  -0.0000  -0.0000  -0.0000  -0.0000

          k = 0.0000 0.3333 0.4167 (  9633 PWs)   bands (ev):

   -56.5012 -56.5012 -56.4966 -56.4966 -56.4803 -56.4803 -56.4786 -56.4786
   -28.5832 -28.5800 -28.5759 -28.5746 -28.5375 -28.5360 -28.5241 -28.5234
   -27.6244 -27.6235 -27.5859 -27.5819 -27.5541 -27.5486 -27.5375 -27.5299
   -27.5263 -27.5091 -27.5005 -27.4936 -27.4521 -27.4442 -27.4338 -27.4317
     4.5301   4.5308   5.3662   5.3679   6.7395   6.7423   7.4119   7.4149
    10.2064  10.2081  10.3657  10.3678  11.0317  11.0346  11.3561  11.3632
    11.7475  11.7505  11.9382  11.9434  12.3003  12.3065  12.4377  12.4464
    13.2747  13.2828  13.4177  13.4199  13.5836  13.5860  13.7590  13.7641
    14.0547  14.0621  14.1736  14.1816  14.5737  14.5974  14.7026  14.7212
    14.9168  14.9338  14.9748  14.9938  15.4945  15.5149  15.5352  15.5636
    16.3321  16.3420  16.5036  16.5099  17.0970  17.1163

     occupation numbers 
     1.0000   1.0000   1.0000   1.0000   1.0000   1.0000   1.0000   1.0000
     1.0000   1.0000   1.0000   1.0000   1.0000   1.0000   1.0000   1.0000
     1.0000   1.0000   1.0000   1.0000   1.0000   1.0000   1.0000   1.0000
     1.0000   1.0000   1.0000   1.0000   1.0000   1.0000   1.0000   1.0000
     1.0000   1.0000   1.0000   1.0000   1.0000   1.0000   1.0000   1.0000
     1.0000   1.0000   1.0000   1.0000   1.0000   1.0000   1.0000   1.0000
     1.0000   1.0000   1.0000   1.0000   1.0000   1.0000   1.0000   1.0000
     1.0000   1.0000   1.0000   1.0000   1.0000   1.0000   1.0000   1.0000
     1.0000   1.0000   1.0000   1.0000   1.0167   1.0214   1.0346   1.0307
     0.6400   0.5760   0.4173   0.3460  -0.0012  -0.0008  -0.0005  -0.0003
    -0.0000  -0.0000  -0.0000  -0.0000  -0.0000  -0.0000

          k = 0.0000 0.3333-0.5000 (  9646 PWs)   bands (ev):

   -56.4988 -56.4988 -56.4988 -56.4988 -56.4795 -56.4795 -56.4795 -56.4795
   -28.5803 -28.5803 -28.5760 -28.5760 -28.5321 -28.5321 -28.5292 -28.5292
   -27.6226 -27.6226 -27.5855 -27.5855 -27.5503 -27.5503 -27.5329 -27.5329
   -27.5196 -27.5196 -27.4981 -27.4981 -27.4470 -27.4470 -27.4324 -27.4324
     4.9495   4.9495   4.9508   4.9508   7.0286   7.0286   7.0335   7.0335
    10.3304  10.3304  10.3324  10.3324  11.2378  11.2378  11.2462  11.2462
    11.7605  11.7605  11.7660  11.7660  12.3339  12.3339  12.3413  12.3413
    13.3662  13.3662  13.3733  13.3733  13.6747  13.6747  13.6834  13.6834
    14.1705  14.1705  14.1760  14.1760  14.6105  14.6105  14.6296  14.6296
    14.9432  14.9432  14.9582  14.9582  15.4974  15.4974  15.5217  15.5217
    16.4403  16.4403  16.4511  16.4511  17.1948  17.1966

     occupation numbers 
     1.0000   1.0000   1.0000   1.0000   1.0000   1.0000   1.0000   1.0000
     1.0000   1.0000   1.0000   1.0000   1.0000   1.0000   1.0000   1.0000
     1.0000   1.0000   1.0000   1.0000   1.0000   1.0000   1.0000   1.0000
     1.0000   1.0000   1.0000   1.0000   1.0000   1.0000   1.0000   1.0000
     1.0000   1.0000   1.0000   1.0000   1.0000   1.0000   1.0000   1.0000
     1.0000   1.0000   1.0000   1.0000   1.0000   1.0000   1.0000   1.0000
     1.0000   1.0000   1.0000   1.0000   1.0000   1.0000   1.0000   1.0000
     1.0000   1.0000   1.0000   1.0000   1.0000   1.0000   1.0000   1.0000
     1.0000   1.0000   1.0000   1.0000   1.0242   1.0242   1.0282   1.0282
     0.5395   0.5395   0.4815   0.4815  -0.0012  -0.0012  -0.0007  -0.0007
    -0.0000  -0.0000  -0.0000  -0.0000  -0.0000  -0.0000

          k = 0.0000 0.4167 0.4167 (  9620 PWs)   bands (ev):

[...]
    12.1173  12.1173  12.1241  12.1241  12.4603  12.4603  12.4692  12.4692
    13.2039  13.2039  13.2085  13.2085  13.7315  13.7315  13.7451  13.7451
    14.3192  14.3192  14.3239  14.3239  14.7067  14.7067  14.7331  14.7331
    14.8545  14.8545  14.8934  14.8934  15.3759  15.3759  15.3870  15.3870
    16.4340  16.4340  16.4435  16.4435  17.0298  17.0331

     occupation numbers 
     1.0000   1.0000   1.0000   1.0000   1.0000   1.0000   1.0000   1.0000
     1.0000   1.0000   1.0000   1.0000   1.0000   1.0000   1.0000   1.0000
     1.0000   1.0000   1.0000   1.0000   1.0000   1.0000   1.0000   1.0000
     1.0000   1.0000   1.0000   1.0000   1.0000   1.0000   1.0000   1.0000
     1.0000   1.0000   1.0000   1.0000   1.0000   1.0000   1.0000   1.0000
     1.0000   1.0000   1.0000   1.0000   1.0000   1.0000   1.0000   1.0000
     1.0000   1.0000   1.0000   1.0000   1.0000   1.0000   1.0000   1.0000
     1.0000   1.0000   1.0000   1.0000   1.0000   1.0000   1.0000   1.0000
     1.0002   1.0002   1.0002   1.0002   1.0340   1.0340   1.0263   1.0263
     0.8439   0.8439   0.7237   0.7237  -0.0096  -0.0096  -0.0082  -0.0082
    -0.0000  -0.0000  -0.0000  -0.0000  -0.0000  -0.0000

          k =-0.2500 0.4167 0.3333 (  9646 PWs)   bands (ev):

   -56.4987 -56.4987 -56.4948 -56.4948 -56.4825 -56.4825 -56.4805 -56.4805
   -28.5784 -28.5755 -28.5707 -28.5695 -28.5428 -28.5410 -28.5312 -28.5298
   -27.6182 -27.6159 -27.5817 -27.5776 -27.5671 -27.5638 -27.5421 -27.5325
   -27.5230 -27.5097 -27.4837 -27.4759 -27.4595 -27.4549 -27.4359 -27.4335
     4.8886   4.8892   5.6566   5.6592   6.8101   6.8154   7.3889   7.3921
     8.9985   9.0029   9.5183   9.5231  10.7774  10.7806  11.2114  11.2132
    12.0003  12.0029  12.3394  12.3431  12.7070  12.7133  12.8291  12.8361
    13.1073  13.1150  13.1623  13.1742  13.4052  13.4131  13.5762  13.5866
    14.1373  14.1450  14.4447  14.4568  14.6833  14.6976  14.8324  14.8517
    14.9671  14.9788  15.1296  15.1628  15.2848  15.2929  15.4303  15.4435
    16.2783  16.2864  16.3855  16.3925  17.0198  17.0293

     occupation numbers 
     1.0000   1.0000   1.0000   1.0000   1.0000   1.0000   1.0000   1.0000
     1.0000   1.0000   1.0000   1.0000   1.0000   1.0000   1.0000   1.0000
     1.0000   1.0000   1.0000   1.0000   1.0000   1.0000   1.0000   1.0000
     1.0000   1.0000   1.0000   1.0000   1.0000   1.0000   1.0000   1.0000
     1.0000   1.0000   1.0000   1.0000   1.0000   1.0000   1.0000   1.0000
     1.0000   1.0000   1.0000   1.0000   1.0000   1.0000   1.0000   1.0000
     1.0000   1.0000   1.0000   1.0000   1.0000   1.0000   1.0000   1.0000
     1.0000   1.0000   1.0000   1.0000   1.0000   1.0000   1.0000   1.0000
     1.0000   1.0000   1.0023   1.0029   1.0354   1.0351   0.8993   0.8515
     0.4468   0.4021   0.0076  -0.0207  -0.0266  -0.0249  -0.0041  -0.0033
    -0.0000  -0.0000  -0.0000  -0.0000  -0.0000  -0.0000

          k =-0.2500-0.5000 0.3333 (  9656 PWs)   bands (ev):

   -56.4966 -56.4966 -56.4966 -56.4966 -56.4817 -56.4817 -56.4817 -56.4817
   -28.5752 -28.5752 -28.5711 -28.5711 -28.5385 -28.5385 -28.5350 -28.5350
   -27.6155 -27.6155 -27.5809 -27.5809 -27.5657 -27.5657 -27.5379 -27.5379
   -27.5155 -27.5155 -27.4808 -27.4808 -27.4558 -27.4558 -27.4351 -27.4351
     5.2804   5.2804   5.2819   5.2819   7.0731   7.0731   7.0783   7.0783
     9.2473   9.2473   9.2519   9.2519  10.9388  10.9388  10.9413  10.9413
    12.1896  12.1896  12.1977  12.1977  12.7743  12.7743  12.7845  12.7845
    13.1174  13.1174  13.1286  13.1286  13.5003  13.5003  13.5106  13.5106
    14.3085  14.3085  14.3171  14.3171  14.7796  14.7796  14.7973  14.7973
    15.0301  15.0301  15.0553  15.0553  15.3563  15.3563  15.3715  15.3715
    16.3337  16.3337  16.3439  16.3439  17.0869  17.0881

     occupation numbers 
     1.0000   1.0000   1.0000   1.0000   1.0000   1.0000   1.0000   1.0000
     1.0000   1.0000   1.0000   1.0000   1.0000   1.0000   1.0000   1.0000
     1.0000   1.0000   1.0000   1.0000   1.0000   1.0000   1.0000   1.0000
     1.0000   1.0000   1.0000   1.0000   1.0000   1.0000   1.0000   1.0000
     1.0000   1.0000   1.0000   1.0000   1.0000   1.0000   1.0000   1.0000
     1.0000   1.0000   1.0000   1.0000   1.0000   1.0000   1.0000   1.0000
     1.0000   1.0000   1.0000   1.0000   1.0000   1.0000   1.0000   1.0000
     1.0000   1.0000   1.0000   1.0000   1.0000   1.0000   1.0000   1.0000
     1.0001   1.0001   1.0001   1.0001   0.9896   0.9896   0.9657   0.9657
     0.2215   0.2215   0.1481   0.1481  -0.0126  -0.0126  -0.0103  -0.0103
    -0.0000  -0.0000  -0.0000  -0.0000  -0.0000  -0.0000

          k =-0.2500-0.5000 0.4167 (  9646 PWs)   bands (ev):

   -56.4956 -56.4956 -56.4956 -56.4956 -56.4827 -56.4827 -56.4827 -56.4827
   -28.5719 -28.5719 -28.5693 -28.5693 -28.5408 -28.5408 -28.5385 -28.5385
   -27.6085 -27.6085 -27.5890 -27.5890 -27.5633 -27.5633 -27.5409 -27.5409
   -27.5109 -27.5109 -27.4858 -27.4858 -27.4506 -27.4506 -27.4378 -27.4378
     5.5371   5.5371   5.5389   5.5389   6.7775   6.7775   6.7818   6.7818
     9.3213   9.3213   9.3264   9.3264  10.6409  10.6409  10.6438  10.6438
    12.3614  12.3614  12.3698  12.3698  12.6612  12.6612  12.6707  12.6707
    13.1099  13.1099  13.1162  13.1162  13.5447  13.5447  13.5572  13.5572
    14.4453  14.4453  14.4518  14.4518  14.8161  14.8161  14.8424  14.8424
    14.9538  14.9538  14.9915  14.9915  15.3202  15.3202  15.3317  15.3317
    16.3808  16.3808  16.3892  16.3892  16.9301  16.9321

     occupation numbers 
     1.0000   1.0000   1.0000   1.0000   1.0000   1.0000   1.0000   1.0000
     1.0000   1.0000   1.0000   1.0000   1.0000   1.0000   1.0000   1.0000
     1.0000   1.0000   1.0000   1.0000   1.0000   1.0000   1.0000   1.0000
     1.0000   1.0000   1.0000   1.0000   1.0000   1.0000   1.0000   1.0000
     1.0000   1.0000   1.0000   1.0000   1.0000   1.0000   1.0000   1.0000
     1.0000   1.0000   1.0000   1.0000   1.0000   1.0000   1.0000   1.0000
     1.0000   1.0000   1.0000   1.0000   1.0000   1.0000   1.0000   1.0000
     1.0000   1.0000   1.0000   1.0000   1.0000   1.0000   1.0000   1.0000
     1.0024   1.0024   1.0027   1.0027   0.9333   0.9333   0.8754   0.8754
     0.4983   0.4983   0.3542   0.3542  -0.0192  -0.0192  -0.0169  -0.0169
    -0.0000  -0.0000  -0.0000  -0.0000  -0.0000  -0.0000

          k =-0.3333-0.5000 0.4167 (  9664 PWs)   bands (ev):

   -56.4940 -56.4940 -56.4940 -56.4940 -56.4843 -56.4843 -56.4843 -56.4843
   -28.5682 -28.5682 -28.5657 -28.5657 -28.5450 -28.5450 -28.5427 -28.5427
   -27.6039 -27.6039 -27.5864 -27.5864 -27.5715 -27.5715 -27.5454 -27.5454
   -27.5045 -27.5045 -27.4769 -27.4769 -27.4557 -27.4557 -27.4420 -27.4420
     5.7598   5.7598   5.7623   5.7623   6.7868   6.7868   6.7923   6.7923
     9.0481   9.0481   9.0544   9.0544  10.2141  10.2141  10.2177  10.2177
    12.5361  12.5361  12.5439  12.5439  12.8190  12.8190  12.8272  12.8272
    13.0621  13.0621  13.0717  13.0717  13.3562  13.3562  13.3667  13.3667
    14.5901  14.5901  14.5970  14.5970  14.9405  14.9405  14.9677  14.9677
    15.0543  15.0543  15.0887  15.0887  15.2582  15.2582  15.2766  15.2766
    16.3427  16.3427  16.3509  16.3509  16.7825  16.7878

     occupation numbers 
     1.0000   1.0000   1.0000   1.0000   1.0000   1.0000   1.0000   1.0000
     1.0000   1.0000   1.0000   1.0000   1.0000   1.0000   1.0000   1.0000
     1.0000   1.0000   1.0000   1.0000   1.0000   1.0000   1.0000   1.0000
     1.0000   1.0000   1.0000   1.0000   1.0000   1.0000   1.0000   1.0000
     1.0000   1.0000   1.0000   1.0000   1.0000   1.0000   1.0000   1.0000
     1.0000   1.0000   1.0000   1.0000   1.0000   1.0000   1.0000   1.0000
     1.0000   1.0000   1.0000   1.0000   1.0000   1.0000   1.0000   1.0000
     1.0000   1.0000   1.0000   1.0000   1.0000   1.0000   1.0000   1.0000
     1.0199   1.0199   1.0214   1.0214   0.5501   0.5501   0.4445   0.4445
     0.1506   0.1506   0.0705   0.0705  -0.0318  -0.0318  -0.0283  -0.0283
    -0.0000  -0.0000  -0.0000  -0.0000  -0.0000  -0.0000

     the Fermi energy is    14.9534 ev

!    total energy              =   -1180.35052886 Ry

     total all-electron energy =    -10727.811365 Ry
     estimated scf accuracy    <       0.00000012 Ry
     smearing contrib. (-TS)   =      -0.00047437 Ry
     internal energy E=F+TS    =   -1180.35005449 Ry

     The total energy is F=E-TS. E is the sum of the following terms:
     one-electron contribution =    -336.79328043 Ry
     hartree contribution      =     207.03750056 Ry
     xc contribution           =    -114.36154128 Ry
     ewald contribution        =    -496.51183961 Ry
     one-center paw contrib.   =    -439.72089373 Ry
      -> PAW hartree energy AE =     126.71376887 Ry
      -> PAW hartree energy PS =    -125.74643463 Ry
      -> PAW xc energy AE      =     -96.23963490 Ry
      -> PAW xc energy PS      =      20.93228698 Ry
      -> total E_H with PAW    =     208.00483479 Ry
      -> total E_XC with PAW   =    -189.66888920 Ry

     convergence has been achieved in   8 iterations

     Forces acting on atoms (cartesian axes, Ry/au):

     atom    1 type  1   force =    -0.00286389   -0.00286389    0.00286389
     atom    2 type  1   force =    -0.00286389    0.00286389   -0.00286389
     atom    3 type  1   force =     0.00286389   -0.00286389   -0.00286389
     atom    4 type  1   force =     0.00286389    0.00286389    0.00286389
     atom    5 type  2   force =    -0.00423849   -0.00423849    0.00423849
     atom    6 type  2   force =    -0.00423849    0.00423849   -0.00423849
     atom    7 type  2   force =     0.00423849   -0.00423849   -0.00423849
     atom    8 type  2   force =     0.00423849    0.00423849    0.00423849
     The non-local contrib.  to forces
     atom    1 type  1   force =     0.05117074    0.05117074   -0.05117074
     atom    2 type  1   force =     0.05117074   -0.05117074    0.05117074
     atom    3 type  1   force =    -0.05117074    0.05117074    0.05117074
     atom    4 type  1   force =    -0.05117074   -0.05117074   -0.05117074
     atom    5 type  2   force =    -0.00806708   -0.00806708    0.00806708
     atom    6 type  2   force =    -0.00806708    0.00806708   -0.00806708
     atom    7 type  2   force =     0.00806708   -0.00806708   -0.00806708
     atom    8 type  2   force =     0.00806708    0.00806708    0.00806708
     The ionic contribution  to forces
     atom    1 type  1   force =    -0.85044630   -0.85044630    0.85044630
     atom    2 type  1   force =    -0.85044630    0.85044630   -0.85044630
     atom    3 type  1   force =     0.85044630   -0.85044630   -0.85044630
     atom    4 type  1   force =     0.85044630    0.85044630    0.85044630
     atom    5 type  2   force =    -0.24524978   -0.24524978    0.24524978
     atom    6 type  2   force =    -0.24524978    0.24524978   -0.24524978
     atom    7 type  2   force =     0.24524978   -0.24524978   -0.24524978
     atom    8 type  2   force =     0.24524978    0.24524978    0.24524978
     The local contribution  to forces
     atom    1 type  1   force =     0.79733205    0.79733205   -0.79733205
     atom    2 type  1   force =     0.79733205   -0.79733205    0.79733205
     atom    3 type  1   force =    -0.79733205    0.79733205    0.79733205
     atom    4 type  1   force =    -0.79733205   -0.79733205   -0.79733205
     atom    5 type  2   force =     0.24828897    0.24828897   -0.24828897
     atom    6 type  2   force =     0.24828897   -0.24828897    0.24828897
     atom    7 type  2   force =    -0.24828897    0.24828897    0.24828897
     atom    8 type  2   force =    -0.24828897   -0.24828897   -0.24828897
     The core correction contribution to forces
     atom    1 type  1   force =    -0.00103207   -0.00103207    0.00103207
     atom    2 type  1   force =    -0.00103207    0.00103207   -0.00103207
     atom    3 type  1   force =     0.00103207   -0.00103207   -0.00103207
     atom    4 type  1   force =     0.00103207    0.00103207    0.00103207
     atom    5 type  2   force =     0.00079553    0.00079553   -0.00079553
     atom    6 type  2   force =     0.00079553   -0.00079553    0.00079553
     atom    7 type  2   force =    -0.00079553    0.00079553    0.00079553
     atom    8 type  2   force =    -0.00079553   -0.00079553   -0.00079553
     The Hubbard contrib.    to forces
     atom    1 type  1   force =     0.00000000    0.00000000    0.00000000
     atom    2 type  1   force =     0.00000000    0.00000000    0.00000000
     atom    3 type  1   force =     0.00000000    0.00000000    0.00000000
     atom    4 type  1   force =     0.00000000    0.00000000    0.00000000
     atom    5 type  2   force =     0.00000000    0.00000000    0.00000000
     atom    6 type  2   force =     0.00000000    0.00000000    0.00000000
     atom    7 type  2   force =     0.00000000    0.00000000    0.00000000
     atom    8 type  2   force =     0.00000000    0.00000000    0.00000000
     The SCF correction term to forces
     atom    1 type  1   force =     0.00011169    0.00011169   -0.00011169
     atom    2 type  1   force =     0.00011169   -0.00011169    0.00011169
     atom    3 type  1   force =    -0.00011169    0.00011169    0.00011169
     atom    4 type  1   force =    -0.00011169   -0.00011169   -0.00011169
     atom    5 type  2   force =    -0.00000614   -0.00000614    0.00000614
     atom    6 type  2   force =    -0.00000614    0.00000614   -0.00000614
     atom    7 type  2   force =     0.00000614   -0.00000614   -0.00000614
     atom    8 type  2   force =     0.00000614    0.00000614    0.00000614

     Total force =     0.017720     Total SCF correction =     0.000387


     Computing stress (Cartesian axis) and pressure

          total   stress  (Ry/bohr**3)                   (kbar)     P=      -42.34
  -0.00028781   0.00000000   0.00000000          -42.34        0.00        0.00
   0.00000000  -0.00028781   0.00000000            0.00      -42.34        0.00
   0.00000000   0.00000000  -0.00028781            0.00        0.00      -42.34

     kinetic stress (kbar)  35759.60      0.00      0.00
                                0.00  35759.60      0.00
                                0.00      0.00  35759.60

     local   stress (kbar) -10012.35      0.00     -0.00
                                0.00 -10012.35     -0.00
                               -0.00     -0.00 -10012.35

     nonloc. stress (kbar)   2427.34      0.00      0.00
                                0.00   2427.34      0.00
                                0.00      0.00   2427.34

     hartree stress (kbar)  15166.92     -0.00      0.00
                               -0.00  15166.92     -0.00
                                0.00     -0.00  15166.92

     exc-cor stress (kbar)  -1706.56      0.00     -0.00
                                0.00  -1706.56      0.00
                               -0.00      0.00  -1706.56

     corecor stress (kbar)  -5304.38      0.00     -0.00
                                0.00  -5304.38      0.00
                               -0.00      0.00  -5304.38

     ewald   stress (kbar) -36372.90      0.00      0.00
                                0.00 -36372.90      0.00
                                0.00      0.00 -36372.90

     hubbard stress (kbar)      0.00      0.00      0.00
                                0.00      0.00      0.00
                                0.00      0.00      0.00

     DFT-D   stress (kbar)      0.00      0.00      0.00
                                0.00      0.00      0.00
                                0.00      0.00      0.00

     XDM     stress (kbar)      0.00      0.00      0.00
                                0.00      0.00      0.00
                                0.00      0.00      0.00

     dft-nl  stress (kbar)      0.00      0.00      0.00
                                0.00      0.00      0.00
                                0.00      0.00      0.00

     TS-vdW  stress (kbar)      0.00      0.00      0.00
                                0.00      0.00      0.00
                                0.00      0.00      0.00



     Writing output data file /zfs_data/vergnior/martin/Scratch/OAL/CrSi/convergence/smearing/12x12x12/0.016/tmp/CrSi.save/
 
     init_run     :     17.93s CPU     18.46s WALL (       1 calls)
     electrons    :    564.55s CPU    575.03s WALL (       1 calls)
     forces       :     17.19s CPU     17.31s WALL (       1 calls)
     stress       :     42.63s CPU     42.95s WALL (       1 calls)

     Called by init_run:
     wfcinit      :     16.72s CPU     17.10s WALL (       1 calls)
     wfcinit:atom :      0.15s CPU      0.15s WALL (     119 calls)
     wfcinit:wfcr :     15.92s CPU     16.29s WALL (     119 calls)
     potinit      :      0.19s CPU      0.27s WALL (       1 calls)
     hinit0       :      0.18s CPU      0.18s WALL (       1 calls)

     Called by electrons:
     c_bands      :    474.83s CPU    482.44s WALL (       9 calls)
     sum_band     :     84.45s CPU     86.69s WALL (       9 calls)
     v_of_rho     :      0.21s CPU      0.22s WALL (       9 calls)
     v_h          :      0.02s CPU      0.02s WALL (       9 calls)
     v_xc         :      0.24s CPU      0.25s WALL (      11 calls)
     newd         :      4.33s CPU      4.95s WALL (       9 calls)
     PAW_pot      :      1.12s CPU      1.14s WALL (       9 calls)
     mix_rho      :      0.13s CPU      0.13s WALL (       9 calls)

     Called by c_bands:
     init_us_2    :      2.70s CPU      2.75s WALL (    2499 calls)
     cegterg      :    433.22s CPU    440.49s WALL (    1071 calls)

     Called by sum_band:
     sum_band:wei :      0.15s CPU      0.16s WALL (       9 calls)
     sum_band:loo :     81.09s CPU     82.55s WALL (       9 calls)
     sum_band:buf :      0.71s CPU      0.84s WALL (    1071 calls)
     sum_band:ini :      1.21s CPU      1.23s WALL (    1071 calls)
     sum_band:cal :      5.67s CPU      5.69s WALL (    1071 calls)
     sum_band:bec :     13.75s CPU     13.78s WALL (    1071 calls)
     addusdens    :      3.00s CPU      3.77s WALL (       9 calls)
     addusd:skk   :      0.01s CPU      0.01s WALL (      18 calls)
     addusd:dgemm :      1.17s CPU      1.92s WALL (      18 calls)
     addusd:qvan2 :      1.78s CPU      1.79s WALL (      18 calls)

     Called by *egterg:
     cdiaghg      :     42.24s CPU     42.39s WALL (    5785 calls)
     cegterg:over :     22.55s CPU     22.66s WALL (    4833 calls)
     cegterg:upda :     11.64s CPU     11.70s WALL (    4833 calls)
     cegterg:last :     22.91s CPU     23.00s WALL (    3111 calls)
     h_psi        :    295.84s CPU    302.87s WALL (    6023 calls)
     s_psi        :     42.63s CPU     42.79s WALL (    6023 calls)
     g_psi        :      0.70s CPU      0.71s WALL (    4833 calls)

     Called by h_psi:
     h_psi:calbec :     20.44s CPU     20.58s WALL (    6023 calls)
     vloc_psi     :    234.27s CPU    240.91s WALL (    6023 calls)
     add_vuspsi   :     39.71s CPU     39.94s WALL (    6023 calls)

     General routines
     calbec       :     28.98s CPU     29.17s WALL (    7689 calls)
     fft          :      0.21s CPU      0.22s WALL (     216 calls)
     ffts         :      0.04s CPU      0.10s WALL (      72 calls)
     fftw         :    215.86s CPU    221.84s WALL ( 1465496 calls)
     interpolate  :      0.07s CPU      0.13s WALL (      36 calls)
 
     Parallel routines
     fft_scatt_xy :     20.94s CPU     21.46s WALL ( 1465784 calls)
     fft_scatt_yz :     77.82s CPU     79.90s WALL ( 1465784 calls)

     PAW routines
     PAW_pot      :      1.12s CPU      1.14s WALL (       9 calls)
     PAW_symme    :      0.02s CPU      0.02s WALL (      18 calls)
 
     PWSCF        :  10m47.09s CPU  11m 3.30s WALL

 
   This run was terminated on:  12:51:50   1Aug2021            

=------------------------------------------------------------------------------=
   JOB DONE.
=------------------------------------------------------------------------------=
