     Program PWSCF v.6.7MaX starts on  6Sep2021 at 13:22:35 

     This program is part of the open-source Quantum ESPRESSO suite
     for quantum simulation of materials; please cite
         "P. Giannozzi et al., J. Phys.:Condens. Matter 21 395502 (2009);
         "P. Giannozzi et al., J. Phys.:Condens. Matter 29 465901 (2017);
          URL http://www.quantum-espresso.org", 
     in publications or presentations arising from this work. More details at
     http://www.quantum-espresso.org/quote

     Parallel version (MPI), running on    48 processors

     MPI processes distributed on     1 nodes
     R & G space division:  proc/nbgrp/npool/nimage =      48
     Waiting for input...
     Reading input from standard input

     Current dimensions of program PWSCF are:
     Max number of different atomic species (ntypx) = 10
     Max number of k-points (npk) =  40000
     Max angular momentum in pseudopotentials (lmaxx) =  3
     file Cs.rel-pbe-spn-kjpaw_psl.1.0.0.UPF: wavefunction(s)  5S 6S renormalized
     file V.rel-pbe-spnl-kjpaw_psl.1.0.0.UPF: wavefunction(s)  3P 3P 3D 3D renormalized
     file Sb.rel-pbe-n-kjpaw_psl.1.0.0.UPF: wavefunction(s)  5S renormalized

     Subspace diagonalization in iterative solution of the eigenvalue problem:
     a serial algorithm will be used

     Message from routine setup:
     using ibrav=0 with symmetry is DISCOURAGED, use correct ibrav instead
 
     Parallelization info
     --------------------
     sticks:   dense  smooth     PW     G-vecs:    dense   smooth      PW
     Min         139      56     15                16599     4200     599
     Max         140      57     16                16608     4210     608
     Sum        6715    2689    745               796925   201905   28907
 


     bravais-lattice index     =            0
     lattice parameter (alat)  =      10.4005  a.u.
     unit-cell volume          =    1748.6128 (a.u.)^3
     number of atoms/cell      =            9
     number of atomic types    =            3
     number of electrons       =        73.00
     number of Kohn-Sham states=           88
     kinetic-energy cutoff     =      90.0000  Ry
     charge density cutoff     =     900.0000  Ry
     scf convergence threshold =      1.0E-10
     mixing beta               =       0.7000
     number of iterations used =            8  plain     mixing
     Exchange-correlation= SLA  PW   PBX  PBC
                           (   1   4   3   4   0   0   0)
     Non magnetic calculation with spin-orbit


     celldm(1)=  10.400470  celldm(2)=   0.000000  celldm(3)=   0.000000
     celldm(4)=   0.000000  celldm(5)=   0.000000  celldm(6)=   0.000000

     crystal axes: (cart. coord. in units of alat)
               a(1) = (   1.000000   0.000000   0.000000 )  
               a(2) = (  -0.500000   0.866025   0.000000 )  
               a(3) = (   0.000000   0.000000   1.794751 )  

     reciprocal axes: (cart. coord. in units 2 pi/alat)
               b(1) = (  1.000000  0.577350  0.000000 )  
               b(2) = (  0.000000  1.154701  0.000000 )  
               b(3) = (  0.000000  0.000000  0.557180 )  


     PseudoPot. # 1 for Cs read from file:
     /zfs_data/vergnior/martin/Scratch/CsV3Sb5/P6mmm/bands/pseudo/Cs.rel-pbe-spn-kjpaw_psl.1.0.0.UPF
     MD5 check sum: a112b951ec9e765992cdd678db6f3609
     Pseudo is Projector augmented-wave + core cor, Zval =  9.0
     Generated using &quot;atomic&quot; code by A. Dal Corso  v.6.4.1
     Shape of augmentation charge: PSQ
     Using radial grid of 1251 points, 15 beta functions with: 
                l(1) =   0
                l(2) =   0
                l(3) =   0
                l(4) =   1
                l(5) =   1
                l(6) =   1
                l(7) =   1
                l(8) =   2
                l(9) =   2
               l(10) =   2
               l(11) =   2
               l(12) =   3
               l(13) =   3
               l(14) =   3
               l(15) =   3
     Q(r) pseudized with 0 coefficients 


     PseudoPot. # 2 for V  read from file:
     /zfs_data/vergnior/martin/Scratch/CsV3Sb5/P6mmm/bands/pseudo/V.rel-pbe-spnl-kjpaw_psl.1.0.0.UPF
     MD5 check sum: e977907b3d84fd67c1b4d432f1cac99b
     Pseudo is Projector augmented-wave + core cor, Zval = 13.0
     Generated using &quot;atomic&quot; code by A. Dal Corso  v.6.3
     Shape of augmentation charge: PSQ
     Using radial grid of 1181 points, 10 beta functions with: 
                l(1) =   0
                l(2) =   0
                l(3) =   1
                l(4) =   1
                l(5) =   1
                l(6) =   1
                l(7) =   2
                l(8) =   2
                l(9) =   2
               l(10) =   2
     Q(r) pseudized with 0 coefficients 


     PseudoPot. # 3 for Sb read from file:
     /zfs_data/vergnior/martin/Scratch/CsV3Sb5/P6mmm/bands/pseudo/Sb.rel-pbe-n-kjpaw_psl.1.0.0.UPF
     MD5 check sum: fdb47162c1d03e2226be93e80d85f130
     Pseudo is Projector augmented-wave + core cor, Zval =  5.0
     Generated using &quot;atomic&quot; code by A. Dal Corso  v.6.2.2
     Shape of augmentation charge: PSQ
     Using radial grid of 1243 points, 10 beta functions with: 
                l(1) =   0
                l(2) =   0
                l(3) =   1
                l(4) =   1
                l(5) =   1
                l(6) =   1
                l(7) =   2
                l(8) =   2
                l(9) =   2
               l(10) =   2
     Q(r) pseudized with 0 coefficients 


     atomic species   valence    mass     pseudopotential
        Cs             9.00   132.90500     Cs( 1.00)
        V             13.00    50.94100     V ( 1.00)
        Sb             5.00   121.76000     Sb( 1.00)

     24 Sym. Ops., with inversion, found


                                    s                        frac. trans.

      isym =  1     identity                                     

 cryst.   s( 1) = (     1          0          0      )
                  (     0          1          0      )
                  (     0          0          1      )

 cart.    s( 1) = (  1.0000000  0.0000000  0.0000000 )
                  (  0.0000000  1.0000000  0.0000000 )
                  (  0.0000000  0.0000000  1.0000000 )


      isym =  2     180 deg rotation - cart. axis [0,0,1]        

 cryst.   s( 2) = (    -1          0          0      )
                  (     0         -1          0      )
                  (     0          0          1      )

 cart.    s( 2) = ( -1.0000000  0.0000000  0.0000000 )
                  (  0.0000000 -1.0000000  0.0000000 )
                  (  0.0000000  0.0000000  1.0000000 )


      isym =  3     180 deg rotation - cart. axis [0,1,0]        

 cryst.   s( 3) = (    -1          0          0      )
                  (     1          1          0      )
                  (     0          0         -1      )

 cart.    s( 3) = ( -1.0000000  0.0000000  0.0000000 )
                  (  0.0000000  1.0000000  0.0000000 )
                  (  0.0000000  0.0000000 -1.0000000 )


      isym =  4     180 deg rotation - cart. axis [1,0,0]        

 cryst.   s( 4) = (     1          0          0      )
                  (    -1         -1          0      )
                  (     0          0         -1      )

 cart.    s( 4) = (  1.0000000 -0.0000000  0.0000000 )
                  (  0.0000000 -1.0000000  0.0000000 )
                  (  0.0000000  0.0000000 -1.0000000 )


      isym =  5      60 deg rotation - cryst. axis [0,0,1]       

 cryst.   s( 5) = (     1          1          0      )
                  (    -1          0          0      )
                  (     0          0          1      )

 cart.    s( 5) = (  0.5000000 -0.8660254  0.0000000 )
                  (  0.8660254  0.5000000  0.0000000 )
                  (  0.0000000  0.0000000  1.0000000 )


      isym =  6      60 deg rotation - cryst. axis [0,0,-1]      

 cryst.   s( 6) = (     0         -1          0      )
                  (     1          1          0      )
                  (     0          0          1      )

 cart.    s( 6) = (  0.5000000  0.8660254  0.0000000 )
                  ( -0.8660254  0.5000000  0.0000000 )
                  (  0.0000000  0.0000000  1.0000000 )


      isym =  7     120 deg rotation - cryst. axis [0,0,1]       

 cryst.   s( 7) = (     0          1          0      )
                  (    -1         -1          0      )
                  (     0          0          1      )

 cart.    s( 7) = ( -0.5000000 -0.8660254  0.0000000 )
                  (  0.8660254 -0.5000000  0.0000000 )
                  (  0.0000000  0.0000000  1.0000000 )


      isym =  8     120 deg rotation - cryst. axis [0,0,-1]      

 cryst.   s( 8) = (    -1         -1          0      )
                  (     1          0          0      )
                  (     0          0          1      )

 cart.    s( 8) = ( -0.5000000  0.8660254  0.0000000 )
                  ( -0.8660254 -0.5000000  0.0000000 )
                  (  0.0000000  0.0000000  1.0000000 )


      isym =  9     180 deg rotation - cryst. axis [1,-1,0]      

 cryst.   s( 9) = (     0         -1          0      )
                  (    -1          0          0      )
                  (     0          0         -1      )

 cart.    s( 9) = (  0.5000000 -0.8660254  0.0000000 )
                  ( -0.8660254 -0.5000000  0.0000000 )
                  (  0.0000000  0.0000000 -1.0000000 )


      isym = 10     180 deg rotation - cryst. axis [2,1,0]       

 cryst.   s(10) = (     1          1          0      )
                  (     0         -1          0      )
                  (     0          0         -1      )

 cart.    s(10) = (  0.5000000  0.8660254  0.0000000 )
                  (  0.8660254 -0.5000000  0.0000000 )
                  (  0.0000000  0.0000000 -1.0000000 )


      isym = 11     180 deg rotation - cryst. axis [0,1,0]       

 cryst.   s(11) = (    -1         -1          0      )
                  (     0          1          0      )
                  (     0          0         -1      )

 cart.    s(11) = ( -0.5000000 -0.8660254  0.0000000 )
                  ( -0.8660254  0.5000000  0.0000000 )
                  (  0.0000000  0.0000000 -1.0000000 )


      isym = 12     180 deg rotation - cryst. axis [1,1,0]       

 cryst.   s(12) = (     0          1          0      )
                  (     1          0          0      )
                  (     0          0         -1      )

 cart.    s(12) = ( -0.5000000  0.8660254  0.0000000 )
                  (  0.8660254  0.5000000  0.0000000 )
                  (  0.0000000  0.0000000 -1.0000000 )


      isym = 13     inversion                                    

 cryst.   s(13) = (    -1          0          0      )
                  (     0         -1          0      )
                  (     0          0         -1      )

 cart.    s(13) = ( -1.0000000  0.0000000  0.0000000 )
                  (  0.0000000 -1.0000000  0.0000000 )
                  (  0.0000000  0.0000000 -1.0000000 )


      isym = 14     inv. 180 deg rotation - cart. axis [0,0,1]   

 cryst.   s(14) = (     1          0          0      )
                  (     0          1          0      )
                  (     0          0         -1      )

 cart.    s(14) = (  1.0000000  0.0000000  0.0000000 )
                  (  0.0000000  1.0000000  0.0000000 )
                  (  0.0000000  0.0000000 -1.0000000 )


      isym = 15     inv. 180 deg rotation - cart. axis [0,1,0]   

 cryst.   s(15) = (     1          0          0      )
                  (    -1         -1          0      )
                  (     0          0          1      )

 cart.    s(15) = (  1.0000000 -0.0000000  0.0000000 )
                  (  0.0000000 -1.0000000  0.0000000 )
                  (  0.0000000  0.0000000  1.0000000 )


      isym = 16     inv. 180 deg rotation - cart. axis [1,0,0]   

 cryst.   s(16) = (    -1          0          0      )
                  (     1          1          0      )
                  (     0          0          1      )

 cart.    s(16) = ( -1.0000000  0.0000000  0.0000000 )
                  (  0.0000000  1.0000000  0.0000000 )
                  (  0.0000000  0.0000000  1.0000000 )


      isym = 17     inv.  60 deg rotation - cryst. axis [0,0,1]  

 cryst.   s(17) = (    -1         -1          0      )
                  (     1          0          0      )
                  (     0          0         -1      )

 cart.    s(17) = ( -0.5000000  0.8660254  0.0000000 )
                  ( -0.8660254 -0.5000000  0.0000000 )
                  (  0.0000000  0.0000000 -1.0000000 )


      isym = 18     inv.  60 deg rotation - cryst. axis [0,0,-1] 

 cryst.   s(18) = (     0          1          0      )
                  (    -1         -1          0      )
                  (     0          0         -1      )

 cart.    s(18) = ( -0.5000000 -0.8660254  0.0000000 )
                  (  0.8660254 -0.5000000  0.0000000 )
                  (  0.0000000  0.0000000 -1.0000000 )


      isym = 19     inv. 120 deg rotation - cryst. axis [0,0,1]  

 cryst.   s(19) = (     0         -1          0      )
                  (     1          1          0      )
                  (     0          0         -1      )

 cart.    s(19) = (  0.5000000  0.8660254  0.0000000 )
                  ( -0.8660254  0.5000000  0.0000000 )
                  (  0.0000000  0.0000000 -1.0000000 )


      isym = 20     inv. 120 deg rotation - cryst. axis [0,0,-1] 

 cryst.   s(20) = (     1          1          0      )
                  (    -1          0          0      )
                  (     0          0         -1      )

 cart.    s(20) = (  0.5000000 -0.8660254  0.0000000 )
                  (  0.8660254  0.5000000  0.0000000 )
                  (  0.0000000  0.0000000 -1.0000000 )


      isym = 21     inv. 180 deg rotation - cryst. axis [1,-1,0] 

 cryst.   s(21) = (     0          1          0      )
                  (     1          0          0      )
                  (     0          0          1      )

 cart.    s(21) = ( -0.5000000  0.8660254  0.0000000 )
                  (  0.8660254  0.5000000  0.0000000 )
                  (  0.0000000  0.0000000  1.0000000 )


      isym = 22     inv. 180 deg rotation - cryst. axis [2,1,0]  

 cryst.   s(22) = (    -1         -1          0      )
                  (     0          1          0      )
                  (     0          0          1      )

 cart.    s(22) = ( -0.5000000 -0.8660254  0.0000000 )
                  ( -0.8660254  0.5000000  0.0000000 )
                  (  0.0000000  0.0000000  1.0000000 )


      isym = 23     inv. 180 deg rotation - cryst. axis [0,1,0]  

 cryst.   s(23) = (     1          1          0      )
                  (     0         -1          0      )
                  (     0          0          1      )

 cart.    s(23) = (  0.5000000  0.8660254  0.0000000 )
                  (  0.8660254 -0.5000000  0.0000000 )
                  (  0.0000000  0.0000000  1.0000000 )


      isym = 24     inv. 180 deg rotation - cryst. axis [1,1,0]  

 cryst.   s(24) = (     0         -1          0      )
                  (    -1          0          0      )
                  (     0          0          1      )

 cart.    s(24) = (  0.5000000 -0.8660254  0.0000000 )
                  ( -0.8660254 -0.5000000  0.0000000 )
                  (  0.0000000  0.0000000  1.0000000 )


   Cartesian axes

     site n.     atom                  positions (alat units)
         1           Cs  tau(   1) = (   0.0000000   0.0000000   0.0000000  )
         2           V   tau(   2) = (   0.5000000   0.0000000   0.8973753  )
         3           V   tau(   3) = (  -0.2500000   0.4330127   0.8973753  )
         4           V   tau(   4) = (   0.2500000   0.4330127   0.8973753  )
         5           Sb  tau(   5) = (   0.0000000   0.0000000   0.8973753  )
         6           Sb  tau(   6) = (   0.5000000  -0.2886751   1.3104283  )
         7           Sb  tau(   7) = (  -0.5000000   0.2886751   1.3104283  )
         8           Sb  tau(   8) = (   0.5000000  -0.2886751  -1.3104283  )
         9           Sb  tau(   9) = (  -0.5000000   0.2886751  -1.3104283  )

   Crystallographic axes

     site n.     atom                  positions (cryst. coord.)
         1           Cs  tau(   1) = (  0.0000000  0.0000000  0.0000000  )
         2           V   tau(   2) = (  0.5000000  0.0000000  0.5000000  )
         3           V   tau(   3) = (  0.0000000  0.5000000  0.5000000  )
         4           V   tau(   4) = (  0.5000000  0.5000000  0.5000000  )
         5           Sb  tau(   5) = (  0.0000000  0.0000000  0.5000000  )
         6           Sb  tau(   6) = (  0.3333333 -0.3333333  0.7301451  )
         7           Sb  tau(   7) = ( -0.3333333  0.3333333  0.7301451  )
         8           Sb  tau(   8) = (  0.3333333 -0.3333333 -0.7301451  )
         9           Sb  tau(   9) = ( -0.3333333  0.3333333 -0.7301451  )

     number of k points=   259  Methfessel-Paxton smearing, width (Ry)=  0.0200
                       cart. coord. in units 2pi/alat
        k(    1) = (   0.0000000   0.0000000   0.0000000), wk =   0.0002572
        k(    2) = (   0.0000000   0.0000000   0.0464317), wk =   0.0005144
        k(    3) = (   0.0000000   0.0000000   0.0928634), wk =   0.0005144
        k(    4) = (   0.0000000   0.0000000   0.1392951), wk =   0.0005144
        k(    5) = (   0.0000000   0.0000000   0.1857268), wk =   0.0005144
        k(    6) = (   0.0000000   0.0000000   0.2321585), wk =   0.0005144
        k(    7) = (   0.0000000   0.0000000  -0.2785902), wk =   0.0002572
        k(    8) = (   0.0000000   0.0641500   0.0000000), wk =   0.0015432
        k(    9) = (   0.0000000   0.0641500   0.0464317), wk =   0.0030864
        k(   10) = (   0.0000000   0.0641500   0.0928634), wk =   0.0030864
        k(   11) = (   0.0000000   0.0641500   0.1392951), wk =   0.0030864
        k(   12) = (   0.0000000   0.0641500   0.1857268), wk =   0.0030864
        k(   13) = (   0.0000000   0.0641500   0.2321585), wk =   0.0030864
        k(   14) = (   0.0000000   0.0641500  -0.2785902), wk =   0.0015432
        k(   15) = (   0.0000000   0.1283001   0.0000000), wk =   0.0015432
        k(   16) = (   0.0000000   0.1283001   0.0464317), wk =   0.0030864
        k(   17) = (   0.0000000   0.1283001   0.0928634), wk =   0.0030864
        k(   18) = (   0.0000000   0.1283001   0.1392951), wk =   0.0030864
        k(   19) = (   0.0000000   0.1283001   0.1857268), wk =   0.0030864
        k(   20) = (   0.0000000   0.1283001   0.2321585), wk =   0.0030864
        k(   21) = (   0.0000000   0.1283001  -0.2785902), wk =   0.0015432
        k(   22) = (   0.0000000   0.1924501   0.0000000), wk =   0.0015432
        k(   23) = (   0.0000000   0.1924501   0.0464317), wk =   0.0030864
        k(   24) = (   0.0000000   0.1924501   0.0928634), wk =   0.0030864
        k(   25) = (   0.0000000   0.1924501   0.1392951), wk =   0.0030864
        k(   26) = (   0.0000000   0.1924501   0.1857268), wk =   0.0030864
        k(   27) = (   0.0000000   0.1924501   0.2321585), wk =   0.0030864
        k(   28) = (   0.0000000   0.1924501  -0.2785902), wk =   0.0015432
        k(   29) = (   0.0000000   0.2566001   0.0000000), wk =   0.0015432
        k(   30) = (   0.0000000   0.2566001   0.0464317), wk =   0.0030864
        k(   31) = (   0.0000000   0.2566001   0.0928634), wk =   0.0030864
        k(   32) = (   0.0000000   0.2566001   0.1392951), wk =   0.0030864
        k(   33) = (   0.0000000   0.2566001   0.1857268), wk =   0.0030864
        k(   34) = (   0.0000000   0.2566001   0.2321585), wk =   0.0030864
        k(   35) = (   0.0000000   0.2566001  -0.2785902), wk =   0.0015432
        k(   36) = (   0.0000000   0.3207501   0.0000000), wk =   0.0015432
        k(   37) = (   0.0000000   0.3207501   0.0464317), wk =   0.0030864
        k(   38) = (   0.0000000   0.3207501   0.0928634), wk =   0.0030864
        k(   39) = (   0.0000000   0.3207501   0.1392951), wk =   0.0030864
        k(   40) = (   0.0000000   0.3207501   0.1857268), wk =   0.0030864
        k(   41) = (   0.0000000   0.3207501   0.2321585), wk =   0.0030864
        k(   42) = (   0.0000000   0.3207501  -0.2785902), wk =   0.0015432
        k(   43) = (   0.0000000   0.3849002   0.0000000), wk =   0.0015432
        k(   44) = (   0.0000000   0.3849002   0.0464317), wk =   0.0030864
        k(   45) = (   0.0000000   0.3849002   0.0928634), wk =   0.0030864
        k(   46) = (   0.0000000   0.3849002   0.1392951), wk =   0.0030864
        k(   47) = (   0.0000000   0.3849002   0.1857268), wk =   0.0030864
        k(   48) = (   0.0000000   0.3849002   0.2321585), wk =   0.0030864
        k(   49) = (   0.0000000   0.3849002  -0.2785902), wk =   0.0015432
        k(   50) = (   0.0000000   0.4490502   0.0000000), wk =   0.0015432
        k(   51) = (   0.0000000   0.4490502   0.0464317), wk =   0.0030864
        k(   52) = (   0.0000000   0.4490502   0.0928634), wk =   0.0030864
        k(   53) = (   0.0000000   0.4490502   0.1392951), wk =   0.0030864
        k(   54) = (   0.0000000   0.4490502   0.1857268), wk =   0.0030864
        k(   55) = (   0.0000000   0.4490502   0.2321585), wk =   0.0030864
        k(   56) = (   0.0000000   0.4490502  -0.2785902), wk =   0.0015432
        k(   57) = (   0.0000000   0.5132002   0.0000000), wk =   0.0015432
        k(   58) = (   0.0000000   0.5132002   0.0464317), wk =   0.0030864
        k(   59) = (   0.0000000   0.5132002   0.0928634), wk =   0.0030864
        k(   60) = (   0.0000000   0.5132002   0.1392951), wk =   0.0030864
        k(   61) = (   0.0000000   0.5132002   0.1857268), wk =   0.0030864
        k(   62) = (   0.0000000   0.5132002   0.2321585), wk =   0.0030864
        k(   63) = (   0.0000000   0.5132002  -0.2785902), wk =   0.0015432
        k(   64) = (   0.0000000  -0.5773503   0.0000000), wk =   0.0007716
        k(   65) = (   0.0000000  -0.5773503   0.0464317), wk =   0.0015432
        k(   66) = (   0.0000000  -0.5773503   0.0928634), wk =   0.0015432
        k(   67) = (   0.0000000  -0.5773503   0.1392951), wk =   0.0015432
        k(   68) = (   0.0000000  -0.5773503   0.1857268), wk =   0.0015432
        k(   69) = (   0.0000000  -0.5773503   0.2321585), wk =   0.0015432
        k(   70) = (   0.0000000  -0.5773503  -0.2785902), wk =   0.0007716
        k(   71) = (   0.0555556   0.0962250   0.0000000), wk =   0.0015432
        k(   72) = (   0.0555556   0.0962250   0.0464317), wk =   0.0030864
        k(   73) = (   0.0555556   0.0962250   0.0928634), wk =   0.0030864
        k(   74) = (   0.0555556   0.0962250   0.1392951), wk =   0.0030864
        k(   75) = (   0.0555556   0.0962250   0.1857268), wk =   0.0030864
        k(   76) = (   0.0555556   0.0962250   0.2321585), wk =   0.0030864
        k(   77) = (   0.0555556   0.0962250  -0.2785902), wk =   0.0015432
        k(   78) = (   0.0555556   0.1603751   0.0000000), wk =   0.0030864
        k(   79) = (   0.0555556   0.1603751   0.0464317), wk =   0.0061728
        k(   80) = (   0.0555556   0.1603751   0.0928634), wk =   0.0061728
        k(   81) = (   0.0555556   0.1603751   0.1392951), wk =   0.0061728
        k(   82) = (   0.0555556   0.1603751   0.1857268), wk =   0.0061728
        k(   83) = (   0.0555556   0.1603751   0.2321585), wk =   0.0061728
        k(   84) = (   0.0555556   0.1603751  -0.2785902), wk =   0.0030864
        k(   85) = (   0.0555556   0.2245251   0.0000000), wk =   0.0030864
        k(   86) = (   0.0555556   0.2245251   0.0464317), wk =   0.0061728
        k(   87) = (   0.0555556   0.2245251   0.0928634), wk =   0.0061728
        k(   88) = (   0.0555556   0.2245251   0.1392951), wk =   0.0061728
        k(   89) = (   0.0555556   0.2245251   0.1857268), wk =   0.0061728
        k(   90) = (   0.0555556   0.2245251   0.2321585), wk =   0.0061728
        k(   91) = (   0.0555556   0.2245251  -0.2785902), wk =   0.0030864
        k(   92) = (   0.0555556   0.2886751   0.0000000), wk =   0.0030864
        k(   93) = (   0.0555556   0.2886751   0.0464317), wk =   0.0061728
        k(   94) = (   0.0555556   0.2886751   0.0928634), wk =   0.0061728
        k(   95) = (   0.0555556   0.2886751   0.1392951), wk =   0.0061728
        k(   96) = (   0.0555556   0.2886751   0.1857268), wk =   0.0061728
        k(   97) = (   0.0555556   0.2886751   0.2321585), wk =   0.0061728
        k(   98) = (   0.0555556   0.2886751  -0.2785902), wk =   0.0030864
        k(   99) = (   0.0555556   0.3528252   0.0000000), wk =   0.0030864
        k(  100) = (   0.0555556   0.3528252   0.0464317), wk =   0.0061728
        k(  101) = (   0.0555556   0.3528252   0.0928634), wk =   0.0061728
        k(  102) = (   0.0555556   0.3528252   0.1392951), wk =   0.0061728
        k(  103) = (   0.0555556   0.3528252   0.1857268), wk =   0.0061728
        k(  104) = (   0.0555556   0.3528252   0.2321585), wk =   0.0061728
        k(  105) = (   0.0555556   0.3528252  -0.2785902), wk =   0.0030864
        k(  106) = (   0.0555556   0.4169752   0.0000000), wk =   0.0030864
        k(  107) = (   0.0555556   0.4169752   0.0464317), wk =   0.0061728
        k(  108) = (   0.0555556   0.4169752   0.0928634), wk =   0.0061728
        k(  109) = (   0.0555556   0.4169752   0.1392951), wk =   0.0061728
        k(  110) = (   0.0555556   0.4169752   0.1857268), wk =   0.0061728
        k(  111) = (   0.0555556   0.4169752   0.2321585), wk =   0.0061728
        k(  112) = (   0.0555556   0.4169752  -0.2785902), wk =   0.0030864
        k(  113) = (   0.0555556   0.4811252   0.0000000), wk =   0.0030864
        k(  114) = (   0.0555556   0.4811252   0.0464317), wk =   0.0061728
        k(  115) = (   0.0555556   0.4811252   0.0928634), wk =   0.0061728
        k(  116) = (   0.0555556   0.4811252   0.1392951), wk =   0.0061728
        k(  117) = (   0.0555556   0.4811252   0.1857268), wk =   0.0061728
        k(  118) = (   0.0555556   0.4811252   0.2321585), wk =   0.0061728
        k(  119) = (   0.0555556   0.4811252  -0.2785902), wk =   0.0030864
        k(  120) = (   0.0555556   0.5452753   0.0000000), wk =   0.0030864
        k(  121) = (   0.0555556   0.5452753   0.0464317), wk =   0.0061728
        k(  122) = (   0.0555556   0.5452753   0.0928634), wk =   0.0061728
        k(  123) = (   0.0555556   0.5452753   0.1392951), wk =   0.0061728
        k(  124) = (   0.0555556   0.5452753   0.1857268), wk =   0.0061728
        k(  125) = (   0.0555556   0.5452753   0.2321585), wk =   0.0061728
        k(  126) = (   0.0555556   0.5452753  -0.2785902), wk =   0.0030864
        k(  127) = (   0.1111111   0.1924501   0.0000000), wk =   0.0015432
        k(  128) = (   0.1111111   0.1924501   0.0464317), wk =   0.0030864
        k(  129) = (   0.1111111   0.1924501   0.0928634), wk =   0.0030864
        k(  130) = (   0.1111111   0.1924501   0.1392951), wk =   0.0030864
        k(  131) = (   0.1111111   0.1924501   0.1857268), wk =   0.0030864
        k(  132) = (   0.1111111   0.1924501   0.2321585), wk =   0.0030864
        k(  133) = (   0.1111111   0.1924501  -0.2785902), wk =   0.0015432
        k(  134) = (   0.1111111   0.2566001   0.0000000), wk =   0.0030864
        k(  135) = (   0.1111111   0.2566001   0.0464317), wk =   0.0061728
        k(  136) = (   0.1111111   0.2566001   0.0928634), wk =   0.0061728
        k(  137) = (   0.1111111   0.2566001   0.1392951), wk =   0.0061728
        k(  138) = (   0.1111111   0.2566001   0.1857268), wk =   0.0061728
        k(  139) = (   0.1111111   0.2566001   0.2321585), wk =   0.0061728
        k(  140) = (   0.1111111   0.2566001  -0.2785902), wk =   0.0030864
        k(  141) = (   0.1111111   0.3207501   0.0000000), wk =   0.0030864
        k(  142) = (   0.1111111   0.3207501   0.0464317), wk =   0.0061728
        k(  143) = (   0.1111111   0.3207501   0.0928634), wk =   0.0061728
        k(  144) = (   0.1111111   0.3207501   0.1392951), wk =   0.0061728
        k(  145) = (   0.1111111   0.3207501   0.1857268), wk =   0.0061728
        k(  146) = (   0.1111111   0.3207501   0.2321585), wk =   0.0061728
        k(  147) = (   0.1111111   0.3207501  -0.2785902), wk =   0.0030864
        k(  148) = (   0.1111111   0.3849002   0.0000000), wk =   0.0030864
        k(  149) = (   0.1111111   0.3849002   0.0464317), wk =   0.0061728
        k(  150) = (   0.1111111   0.3849002   0.0928634), wk =   0.0061728
        k(  151) = (   0.1111111   0.3849002   0.1392951), wk =   0.0061728
        k(  152) = (   0.1111111   0.3849002   0.1857268), wk =   0.0061728
        k(  153) = (   0.1111111   0.3849002   0.2321585), wk =   0.0061728
        k(  154) = (   0.1111111   0.3849002  -0.2785902), wk =   0.0030864
        k(  155) = (   0.1111111   0.4490502   0.0000000), wk =   0.0030864
        k(  156) = (   0.1111111   0.4490502   0.0464317), wk =   0.0061728
        k(  157) = (   0.1111111   0.4490502   0.0928634), wk =   0.0061728
        k(  158) = (   0.1111111   0.4490502   0.1392951), wk =   0.0061728
        k(  159) = (   0.1111111   0.4490502   0.1857268), wk =   0.0061728
        k(  160) = (   0.1111111   0.4490502   0.2321585), wk =   0.0061728
        k(  161) = (   0.1111111   0.4490502  -0.2785902), wk =   0.0030864
        k(  162) = (   0.1111111   0.5132002   0.0000000), wk =   0.0030864
        k(  163) = (   0.1111111   0.5132002   0.0464317), wk =   0.0061728
        k(  164) = (   0.1111111   0.5132002   0.0928634), wk =   0.0061728
        k(  165) = (   0.1111111   0.5132002   0.1392951), wk =   0.0061728
        k(  166) = (   0.1111111   0.5132002   0.1857268), wk =   0.0061728
        k(  167) = (   0.1111111   0.5132002   0.2321585), wk =   0.0061728
        k(  168) = (   0.1111111   0.5132002  -0.2785902), wk =   0.0030864
        k(  169) = (   0.1111111   0.5773503   0.0000000), wk =   0.0015432
        k(  170) = (   0.1111111   0.5773503   0.0464317), wk =   0.0030864
        k(  171) = (   0.1111111   0.5773503   0.0928634), wk =   0.0030864
        k(  172) = (   0.1111111   0.5773503   0.1392951), wk =   0.0030864
        k(  173) = (   0.1111111   0.5773503   0.1857268), wk =   0.0030864
        k(  174) = (   0.1111111   0.5773503   0.2321585), wk =   0.0030864
        k(  175) = (   0.1111111   0.5773503  -0.2785902), wk =   0.0015432
        k(  176) = (   0.1666667   0.2886751   0.0000000), wk =   0.0015432
        k(  177) = (   0.1666667   0.2886751   0.0464317), wk =   0.0030864
        k(  178) = (   0.1666667   0.2886751   0.0928634), wk =   0.0030864
        k(  179) = (   0.1666667   0.2886751   0.1392951), wk =   0.0030864
        k(  180) = (   0.1666667   0.2886751   0.1857268), wk =   0.0030864
        k(  181) = (   0.1666667   0.2886751   0.2321585), wk =   0.0030864
        k(  182) = (   0.1666667   0.2886751  -0.2785902), wk =   0.0015432
        k(  183) = (   0.1666667   0.3528252   0.0000000), wk =   0.0030864
        k(  184) = (   0.1666667   0.3528252   0.0464317), wk =   0.0061728
        k(  185) = (   0.1666667   0.3528252   0.0928634), wk =   0.0061728
        k(  186) = (   0.1666667   0.3528252   0.1392951), wk =   0.0061728
        k(  187) = (   0.1666667   0.3528252   0.1857268), wk =   0.0061728
        k(  188) = (   0.1666667   0.3528252   0.2321585), wk =   0.0061728
        k(  189) = (   0.1666667   0.3528252  -0.2785902), wk =   0.0030864
        k(  190) = (   0.1666667   0.4169752   0.0000000), wk =   0.0030864
        k(  191) = (   0.1666667   0.4169752   0.0464317), wk =   0.0061728
        k(  192) = (   0.1666667   0.4169752   0.0928634), wk =   0.0061728
        k(  193) = (   0.1666667   0.4169752   0.1392951), wk =   0.0061728
        k(  194) = (   0.1666667   0.4169752   0.1857268), wk =   0.0061728
        k(  195) = (   0.1666667   0.4169752   0.2321585), wk =   0.0061728
        k(  196) = (   0.1666667   0.4169752  -0.2785902), wk =   0.0030864
        k(  197) = (   0.1666667   0.4811252   0.0000000), wk =   0.0030864
        k(  198) = (   0.1666667   0.4811252   0.0464317), wk =   0.0061728
        k(  199) = (   0.1666667   0.4811252   0.0928634), wk =   0.0061728
        k(  200) = (   0.1666667   0.4811252   0.1392951), wk =   0.0061728
        k(  201) = (   0.1666667   0.4811252   0.1857268), wk =   0.0061728
        k(  202) = (   0.1666667   0.4811252   0.2321585), wk =   0.0061728
        k(  203) = (   0.1666667   0.4811252  -0.2785902), wk =   0.0030864
        k(  204) = (   0.1666667   0.5452753   0.0000000), wk =   0.0030864
        k(  205) = (   0.1666667   0.5452753   0.0464317), wk =   0.0061728
        k(  206) = (   0.1666667   0.5452753   0.0928634), wk =   0.0061728
        k(  207) = (   0.1666667   0.5452753   0.1392951), wk =   0.0061728
        k(  208) = (   0.1666667   0.5452753   0.1857268), wk =   0.0061728
        k(  209) = (   0.1666667   0.5452753   0.2321585), wk =   0.0061728
        k(  210) = (   0.1666667   0.5452753  -0.2785902), wk =   0.0030864
        k(  211) = (   0.2222222   0.3849002   0.0000000), wk =   0.0015432
        k(  212) = (   0.2222222   0.3849002   0.0464317), wk =   0.0030864
        k(  213) = (   0.2222222   0.3849002   0.0928634), wk =   0.0030864
        k(  214) = (   0.2222222   0.3849002   0.1392951), wk =   0.0030864
        k(  215) = (   0.2222222   0.3849002   0.1857268), wk =   0.0030864
        k(  216) = (   0.2222222   0.3849002   0.2321585), wk =   0.0030864
        k(  217) = (   0.2222222   0.3849002  -0.2785902), wk =   0.0015432
        k(  218) = (   0.2222222   0.4490502   0.0000000), wk =   0.0030864
        k(  219) = (   0.2222222   0.4490502   0.0464317), wk =   0.0061728
        k(  220) = (   0.2222222   0.4490502   0.0928634), wk =   0.0061728
        k(  221) = (   0.2222222   0.4490502   0.1392951), wk =   0.0061728
        k(  222) = (   0.2222222   0.4490502   0.1857268), wk =   0.0061728
        k(  223) = (   0.2222222   0.4490502   0.2321585), wk =   0.0061728
        k(  224) = (   0.2222222   0.4490502  -0.2785902), wk =   0.0030864
        k(  225) = (   0.2222222   0.5132002   0.0000000), wk =   0.0030864
        k(  226) = (   0.2222222   0.5132002   0.0464317), wk =   0.0061728
        k(  227) = (   0.2222222   0.5132002   0.0928634), wk =   0.0061728
        k(  228) = (   0.2222222   0.5132002   0.1392951), wk =   0.0061728
        k(  229) = (   0.2222222   0.5132002   0.1857268), wk =   0.0061728
        k(  230) = (   0.2222222   0.5132002   0.2321585), wk =   0.0061728
        k(  231) = (   0.2222222   0.5132002  -0.2785902), wk =   0.0030864
        k(  232) = (   0.2222222   0.5773503   0.0000000), wk =   0.0015432
        k(  233) = (   0.2222222   0.5773503   0.0464317), wk =   0.0030864
        k(  234) = (   0.2222222   0.5773503   0.0928634), wk =   0.0030864
        k(  235) = (   0.2222222   0.5773503   0.1392951), wk =   0.0030864
        k(  236) = (   0.2222222   0.5773503   0.1857268), wk =   0.0030864
        k(  237) = (   0.2222222   0.5773503   0.2321585), wk =   0.0030864
        k(  238) = (   0.2222222   0.5773503  -0.2785902), wk =   0.0015432
        k(  239) = (   0.2777778   0.4811252   0.0000000), wk =   0.0015432
        k(  240) = (   0.2777778   0.4811252   0.0464317), wk =   0.0030864
        k(  241) = (   0.2777778   0.4811252   0.0928634), wk =   0.0030864
        k(  242) = (   0.2777778   0.4811252   0.1392951), wk =   0.0030864
        k(  243) = (   0.2777778   0.4811252   0.1857268), wk =   0.0030864
        k(  244) = (   0.2777778   0.4811252   0.2321585), wk =   0.0030864
        k(  245) = (   0.2777778   0.4811252  -0.2785902), wk =   0.0015432
        k(  246) = (   0.2777778   0.5452753   0.0000000), wk =   0.0030864
        k(  247) = (   0.2777778   0.5452753   0.0464317), wk =   0.0061728
        k(  248) = (   0.2777778   0.5452753   0.0928634), wk =   0.0061728
        k(  249) = (   0.2777778   0.5452753   0.1392951), wk =   0.0061728
        k(  250) = (   0.2777778   0.5452753   0.1857268), wk =   0.0061728
        k(  251) = (   0.2777778   0.5452753   0.2321585), wk =   0.0061728
        k(  252) = (   0.2777778   0.5452753  -0.2785902), wk =   0.0030864
        k(  253) = (   0.3333333   0.5773503   0.0000000), wk =   0.0005144
        k(  254) = (   0.3333333   0.5773503   0.0464317), wk =   0.0010288
        k(  255) = (   0.3333333   0.5773503   0.0928634), wk =   0.0010288
        k(  256) = (   0.3333333   0.5773503   0.1392951), wk =   0.0010288
        k(  257) = (   0.3333333   0.5773503   0.1857268), wk =   0.0010288
        k(  258) = (   0.3333333   0.5773503   0.2321585), wk =   0.0010288
        k(  259) = (   0.3333333   0.5773503  -0.2785902), wk =   0.0005144

                       cryst. coord.
        k(    1) = (   0.0000000   0.0000000   0.0000000), wk =   0.0002572
        k(    2) = (   0.0000000   0.0000000   0.0833333), wk =   0.0005144
        k(    3) = (   0.0000000   0.0000000   0.1666667), wk =   0.0005144
        k(    4) = (   0.0000000   0.0000000   0.2500000), wk =   0.0005144
        k(    5) = (   0.0000000   0.0000000   0.3333333), wk =   0.0005144
        k(    6) = (   0.0000000   0.0000000   0.4166667), wk =   0.0005144
        k(    7) = (   0.0000000   0.0000000  -0.5000000), wk =   0.0002572
        k(    8) = (   0.0000000   0.0555556   0.0000000), wk =   0.0015432
        k(    9) = (   0.0000000   0.0555556   0.0833333), wk =   0.0030864
        k(   10) = (   0.0000000   0.0555556   0.1666667), wk =   0.0030864
        k(   11) = (   0.0000000   0.0555556   0.2500000), wk =   0.0030864
        k(   12) = (   0.0000000   0.0555556   0.3333333), wk =   0.0030864
        k(   13) = (   0.0000000   0.0555556   0.4166667), wk =   0.0030864
        k(   14) = (   0.0000000   0.0555556  -0.5000000), wk =   0.0015432
        k(   15) = (   0.0000000   0.1111111   0.0000000), wk =   0.0015432
        k(   16) = (   0.0000000   0.1111111   0.0833333), wk =   0.0030864
        k(   17) = (   0.0000000   0.1111111   0.1666667), wk =   0.0030864
        k(   18) = (   0.0000000   0.1111111   0.2500000), wk =   0.0030864
        k(   19) = (   0.0000000   0.1111111   0.3333333), wk =   0.0030864
        k(   20) = (   0.0000000   0.1111111   0.4166667), wk =   0.0030864
        k(   21) = (   0.0000000   0.1111111  -0.5000000), wk =   0.0015432
        k(   22) = (   0.0000000   0.1666667   0.0000000), wk =   0.0015432
        k(   23) = (   0.0000000   0.1666667   0.0833333), wk =   0.0030864
        k(   24) = (   0.0000000   0.1666667   0.1666667), wk =   0.0030864
        k(   25) = (   0.0000000   0.1666667   0.2500000), wk =   0.0030864
        k(   26) = (   0.0000000   0.1666667   0.3333333), wk =   0.0030864
        k(   27) = (   0.0000000   0.1666667   0.4166667), wk =   0.0030864
        k(   28) = (   0.0000000   0.1666667  -0.5000000), wk =   0.0015432
        k(   29) = (   0.0000000   0.2222222   0.0000000), wk =   0.0015432
        k(   30) = (   0.0000000   0.2222222   0.0833333), wk =   0.0030864
        k(   31) = (   0.0000000   0.2222222   0.1666667), wk =   0.0030864
        k(   32) = (   0.0000000   0.2222222   0.2500000), wk =   0.0030864
        k(   33) = (   0.0000000   0.2222222   0.3333333), wk =   0.0030864
        k(   34) = (   0.0000000   0.2222222   0.4166667), wk =   0.0030864
        k(   35) = (   0.0000000   0.2222222  -0.5000000), wk =   0.0015432
        k(   36) = (   0.0000000   0.2777778   0.0000000), wk =   0.0015432
        k(   37) = (   0.0000000   0.2777778   0.0833333), wk =   0.0030864
        k(   38) = (   0.0000000   0.2777778   0.1666667), wk =   0.0030864
        k(   39) = (   0.0000000   0.2777778   0.2500000), wk =   0.0030864
        k(   40) = (   0.0000000   0.2777778   0.3333333), wk =   0.0030864
        k(   41) = (   0.0000000   0.2777778   0.4166667), wk =   0.0030864
        k(   42) = (   0.0000000   0.2777778  -0.5000000), wk =   0.0015432
        k(   43) = (   0.0000000   0.3333333   0.0000000), wk =   0.0015432
        k(   44) = (   0.0000000   0.3333333   0.0833333), wk =   0.0030864
        k(   45) = (   0.0000000   0.3333333   0.1666667), wk =   0.0030864
        k(   46) = (   0.0000000   0.3333333   0.2500000), wk =   0.0030864
        k(   47) = (   0.0000000   0.3333333   0.3333333), wk =   0.0030864
        k(   48) = (   0.0000000   0.3333333   0.4166667), wk =   0.0030864
        k(   49) = (   0.0000000   0.3333333  -0.5000000), wk =   0.0015432
        k(   50) = (   0.0000000   0.3888889   0.0000000), wk =   0.0015432
        k(   51) = (   0.0000000   0.3888889   0.0833333), wk =   0.0030864
        k(   52) = (   0.0000000   0.3888889   0.1666667), wk =   0.0030864
        k(   53) = (   0.0000000   0.3888889   0.2500000), wk =   0.0030864
        k(   54) = (   0.0000000   0.3888889   0.3333333), wk =   0.0030864
        k(   55) = (   0.0000000   0.3888889   0.4166667), wk =   0.0030864
        k(   56) = (   0.0000000   0.3888889  -0.5000000), wk =   0.0015432
        k(   57) = (   0.0000000   0.4444444   0.0000000), wk =   0.0015432
        k(   58) = (   0.0000000   0.4444444   0.0833333), wk =   0.0030864
        k(   59) = (   0.0000000   0.4444444   0.1666667), wk =   0.0030864
        k(   60) = (   0.0000000   0.4444444   0.2500000), wk =   0.0030864
        k(   61) = (   0.0000000   0.4444444   0.3333333), wk =   0.0030864
        k(   62) = (   0.0000000   0.4444444   0.4166667), wk =   0.0030864
        k(   63) = (   0.0000000   0.4444444  -0.5000000), wk =   0.0015432
        k(   64) = (   0.0000000  -0.5000000   0.0000000), wk =   0.0007716
        k(   65) = (   0.0000000  -0.5000000   0.0833333), wk =   0.0015432
        k(   66) = (   0.0000000  -0.5000000   0.1666667), wk =   0.0015432
        k(   67) = (   0.0000000  -0.5000000   0.2500000), wk =   0.0015432
        k(   68) = (   0.0000000  -0.5000000   0.3333333), wk =   0.0015432
        k(   69) = (   0.0000000  -0.5000000   0.4166667), wk =   0.0015432
        k(   70) = (   0.0000000  -0.5000000  -0.5000000), wk =   0.0007716
        k(   71) = (   0.0555556   0.0555556   0.0000000), wk =   0.0015432
        k(   72) = (   0.0555556   0.0555556   0.0833333), wk =   0.0030864
        k(   73) = (   0.0555556   0.0555556   0.1666667), wk =   0.0030864
        k(   74) = (   0.0555556   0.0555556   0.2500000), wk =   0.0030864
        k(   75) = (   0.0555556   0.0555556   0.3333333), wk =   0.0030864
        k(   76) = (   0.0555556   0.0555556   0.4166667), wk =   0.0030864
        k(   77) = (   0.0555556   0.0555556  -0.5000000), wk =   0.0015432
        k(   78) = (   0.0555556   0.1111111   0.0000000), wk =   0.0030864
        k(   79) = (   0.0555556   0.1111111   0.0833333), wk =   0.0061728
        k(   80) = (   0.0555556   0.1111111   0.1666667), wk =   0.0061728
        k(   81) = (   0.0555556   0.1111111   0.2500000), wk =   0.0061728
        k(   82) = (   0.0555556   0.1111111   0.3333333), wk =   0.0061728
        k(   83) = (   0.0555556   0.1111111   0.4166667), wk =   0.0061728
        k(   84) = (   0.0555556   0.1111111  -0.5000000), wk =   0.0030864
        k(   85) = (   0.0555556   0.1666667   0.0000000), wk =   0.0030864
        k(   86) = (   0.0555556   0.1666667   0.0833333), wk =   0.0061728
        k(   87) = (   0.0555556   0.1666667   0.1666667), wk =   0.0061728
        k(   88) = (   0.0555556   0.1666667   0.2500000), wk =   0.0061728
        k(   89) = (   0.0555556   0.1666667   0.3333333), wk =   0.0061728
        k(   90) = (   0.0555556   0.1666667   0.4166667), wk =   0.0061728
        k(   91) = (   0.0555556   0.1666667  -0.5000000), wk =   0.0030864
        k(   92) = (   0.0555556   0.2222222   0.0000000), wk =   0.0030864
        k(   93) = (   0.0555556   0.2222222   0.0833333), wk =   0.0061728
        k(   94) = (   0.0555556   0.2222222   0.1666667), wk =   0.0061728
        k(   95) = (   0.0555556   0.2222222   0.2500000), wk =   0.0061728
        k(   96) = (   0.0555556   0.2222222   0.3333333), wk =   0.0061728
        k(   97) = (   0.0555556   0.2222222   0.4166667), wk =   0.0061728
        k(   98) = (   0.0555556   0.2222222  -0.5000000), wk =   0.0030864
        k(   99) = (   0.0555556   0.2777778   0.0000000), wk =   0.0030864
        k(  100) = (   0.0555556   0.2777778   0.0833333), wk =   0.0061728
        k(  101) = (   0.0555556   0.2777778   0.1666667), wk =   0.0061728
        k(  102) = (   0.0555556   0.2777778   0.2500000), wk =   0.0061728
        k(  103) = (   0.0555556   0.2777778   0.3333333), wk =   0.0061728
        k(  104) = (   0.0555556   0.2777778   0.4166667), wk =   0.0061728
        k(  105) = (   0.0555556   0.2777778  -0.5000000), wk =   0.0030864
        k(  106) = (   0.0555556   0.3333333   0.0000000), wk =   0.0030864
        k(  107) = (   0.0555556   0.3333333   0.0833333), wk =   0.0061728
        k(  108) = (   0.0555556   0.3333333   0.1666667), wk =   0.0061728
        k(  109) = (   0.0555556   0.3333333   0.2500000), wk =   0.0061728
        k(  110) = (   0.0555556   0.3333333   0.3333333), wk =   0.0061728
        k(  111) = (   0.0555556   0.3333333   0.4166667), wk =   0.0061728
        k(  112) = (   0.0555556   0.3333333  -0.5000000), wk =   0.0030864
        k(  113) = (   0.0555556   0.3888889   0.0000000), wk =   0.0030864
        k(  114) = (   0.0555556   0.3888889   0.0833333), wk =   0.0061728
        k(  115) = (   0.0555556   0.3888889   0.1666667), wk =   0.0061728
        k(  116) = (   0.0555556   0.3888889   0.2500000), wk =   0.0061728
        k(  117) = (   0.0555556   0.3888889   0.3333333), wk =   0.0061728
        k(  118) = (   0.0555556   0.3888889   0.4166667), wk =   0.0061728
        k(  119) = (   0.0555556   0.3888889  -0.5000000), wk =   0.0030864
        k(  120) = (   0.0555556   0.4444444   0.0000000), wk =   0.0030864
        k(  121) = (   0.0555556   0.4444444   0.0833333), wk =   0.0061728
        k(  122) = (   0.0555556   0.4444444   0.1666667), wk =   0.0061728
        k(  123) = (   0.0555556   0.4444444   0.2500000), wk =   0.0061728
        k(  124) = (   0.0555556   0.4444444   0.3333333), wk =   0.0061728
        k(  125) = (   0.0555556   0.4444444   0.4166667), wk =   0.0061728
        k(  126) = (   0.0555556   0.4444444  -0.5000000), wk =   0.0030864
        k(  127) = (   0.1111111   0.1111111   0.0000000), wk =   0.0015432
        k(  128) = (   0.1111111   0.1111111   0.0833333), wk =   0.0030864
        k(  129) = (   0.1111111   0.1111111   0.1666667), wk =   0.0030864
        k(  130) = (   0.1111111   0.1111111   0.2500000), wk =   0.0030864
        k(  131) = (   0.1111111   0.1111111   0.3333333), wk =   0.0030864
        k(  132) = (   0.1111111   0.1111111   0.4166667), wk =   0.0030864
        k(  133) = (   0.1111111   0.1111111  -0.5000000), wk =   0.0015432
        k(  134) = (   0.1111111   0.1666667   0.0000000), wk =   0.0030864
        k(  135) = (   0.1111111   0.1666667   0.0833333), wk =   0.0061728
        k(  136) = (   0.1111111   0.1666667   0.1666667), wk =   0.0061728
        k(  137) = (   0.1111111   0.1666667   0.2500000), wk =   0.0061728
        k(  138) = (   0.1111111   0.1666667   0.3333333), wk =   0.0061728
        k(  139) = (   0.1111111   0.1666667   0.4166667), wk =   0.0061728
        k(  140) = (   0.1111111   0.1666667  -0.5000000), wk =   0.0030864
        k(  141) = (   0.1111111   0.2222222   0.0000000), wk =   0.0030864
        k(  142) = (   0.1111111   0.2222222   0.0833333), wk =   0.0061728
        k(  143) = (   0.1111111   0.2222222   0.1666667), wk =   0.0061728
        k(  144) = (   0.1111111   0.2222222   0.2500000), wk =   0.0061728
        k(  145) = (   0.1111111   0.2222222   0.3333333), wk =   0.0061728
        k(  146) = (   0.1111111   0.2222222   0.4166667), wk =   0.0061728
        k(  147) = (   0.1111111   0.2222222  -0.5000000), wk =   0.0030864
        k(  148) = (   0.1111111   0.2777778   0.0000000), wk =   0.0030864
        k(  149) = (   0.1111111   0.2777778   0.0833333), wk =   0.0061728
        k(  150) = (   0.1111111   0.2777778   0.1666667), wk =   0.0061728
        k(  151) = (   0.1111111   0.2777778   0.2500000), wk =   0.0061728
        k(  152) = (   0.1111111   0.2777778   0.3333333), wk =   0.0061728
        k(  153) = (   0.1111111   0.2777778   0.4166667), wk =   0.0061728
        k(  154) = (   0.1111111   0.2777778  -0.5000000), wk =   0.0030864
        k(  155) = (   0.1111111   0.3333333   0.0000000), wk =   0.0030864
        k(  156) = (   0.1111111   0.3333333   0.0833333), wk =   0.0061728
        k(  157) = (   0.1111111   0.3333333   0.1666667), wk =   0.0061728
        k(  158) = (   0.1111111   0.3333333   0.2500000), wk =   0.0061728
        k(  159) = (   0.1111111   0.3333333   0.3333333), wk =   0.0061728
        k(  160) = (   0.1111111   0.3333333   0.4166667), wk =   0.0061728
        k(  161) = (   0.1111111   0.3333333  -0.5000000), wk =   0.0030864
        k(  162) = (   0.1111111   0.3888889   0.0000000), wk =   0.0030864
        k(  163) = (   0.1111111   0.3888889   0.0833333), wk =   0.0061728
        k(  164) = (   0.1111111   0.3888889   0.1666667), wk =   0.0061728
        k(  165) = (   0.1111111   0.3888889   0.2500000), wk =   0.0061728
        k(  166) = (   0.1111111   0.3888889   0.3333333), wk =   0.0061728
        k(  167) = (   0.1111111   0.3888889   0.4166667), wk =   0.0061728
        k(  168) = (   0.1111111   0.3888889  -0.5000000), wk =   0.0030864
        k(  169) = (   0.1111111   0.4444444   0.0000000), wk =   0.0015432
        k(  170) = (   0.1111111   0.4444444   0.0833333), wk =   0.0030864
        k(  171) = (   0.1111111   0.4444444   0.1666667), wk =   0.0030864
        k(  172) = (   0.1111111   0.4444444   0.2500000), wk =   0.0030864
        k(  173) = (   0.1111111   0.4444444   0.3333333), wk =   0.0030864
        k(  174) = (   0.1111111   0.4444444   0.4166667), wk =   0.0030864
        k(  175) = (   0.1111111   0.4444444  -0.5000000), wk =   0.0015432
        k(  176) = (   0.1666667   0.1666667   0.0000000), wk =   0.0015432
        k(  177) = (   0.1666667   0.1666667   0.0833333), wk =   0.0030864
        k(  178) = (   0.1666667   0.1666667   0.1666667), wk =   0.0030864
        k(  179) = (   0.1666667   0.1666667   0.2500000), wk =   0.0030864
        k(  180) = (   0.1666667   0.1666667   0.3333333), wk =   0.0030864
        k(  181) = (   0.1666667   0.1666667   0.4166667), wk =   0.0030864
        k(  182) = (   0.1666667   0.1666667  -0.5000000), wk =   0.0015432
        k(  183) = (   0.1666667   0.2222222   0.0000000), wk =   0.0030864
        k(  184) = (   0.1666667   0.2222222   0.0833333), wk =   0.0061728
        k(  185) = (   0.1666667   0.2222222   0.1666667), wk =   0.0061728
        k(  186) = (   0.1666667   0.2222222   0.2500000), wk =   0.0061728
        k(  187) = (   0.1666667   0.2222222   0.3333333), wk =   0.0061728
        k(  188) = (   0.1666667   0.2222222   0.4166667), wk =   0.0061728
        k(  189) = (   0.1666667   0.2222222  -0.5000000), wk =   0.0030864
        k(  190) = (   0.1666667   0.2777778   0.0000000), wk =   0.0030864
        k(  191) = (   0.1666667   0.2777778   0.0833333), wk =   0.0061728
        k(  192) = (   0.1666667   0.2777778   0.1666667), wk =   0.0061728
        k(  193) = (   0.1666667   0.2777778   0.2500000), wk =   0.0061728
        k(  194) = (   0.1666667   0.2777778   0.3333333), wk =   0.0061728
        k(  195) = (   0.1666667   0.2777778   0.4166667), wk =   0.0061728
        k(  196) = (   0.1666667   0.2777778  -0.5000000), wk =   0.0030864
        k(  197) = (   0.1666667   0.3333333   0.0000000), wk =   0.0030864
        k(  198) = (   0.1666667   0.3333333   0.0833333), wk =   0.0061728
        k(  199) = (   0.1666667   0.3333333   0.1666667), wk =   0.0061728
        k(  200) = (   0.1666667   0.3333333   0.2500000), wk =   0.0061728
        k(  201) = (   0.1666667   0.3333333   0.3333333), wk =   0.0061728
        k(  202) = (   0.1666667   0.3333333   0.4166667), wk =   0.0061728
        k(  203) = (   0.1666667   0.3333333  -0.5000000), wk =   0.0030864
        k(  204) = (   0.1666667   0.3888889   0.0000000), wk =   0.0030864
        k(  205) = (   0.1666667   0.3888889   0.0833333), wk =   0.0061728
        k(  206) = (   0.1666667   0.3888889   0.1666667), wk =   0.0061728
        k(  207) = (   0.1666667   0.3888889   0.2500000), wk =   0.0061728
        k(  208) = (   0.1666667   0.3888889   0.3333333), wk =   0.0061728
        k(  209) = (   0.1666667   0.3888889   0.4166667), wk =   0.0061728
        k(  210) = (   0.1666667   0.3888889  -0.5000000), wk =   0.0030864
        k(  211) = (   0.2222222   0.2222222   0.0000000), wk =   0.0015432
        k(  212) = (   0.2222222   0.2222222   0.0833333), wk =   0.0030864
        k(  213) = (   0.2222222   0.2222222   0.1666667), wk =   0.0030864
        k(  214) = (   0.2222222   0.2222222   0.2500000), wk =   0.0030864
        k(  215) = (   0.2222222   0.2222222   0.3333333), wk =   0.0030864
        k(  216) = (   0.2222222   0.2222222   0.4166667), wk =   0.0030864
        k(  217) = (   0.2222222   0.2222222  -0.5000000), wk =   0.0015432
        k(  218) = (   0.2222222   0.2777778   0.0000000), wk =   0.0030864
        k(  219) = (   0.2222222   0.2777778   0.0833333), wk =   0.0061728
        k(  220) = (   0.2222222   0.2777778   0.1666667), wk =   0.0061728
        k(  221) = (   0.2222222   0.2777778   0.2500000), wk =   0.0061728
        k(  222) = (   0.2222222   0.2777778   0.3333333), wk =   0.0061728
        k(  223) = (   0.2222222   0.2777778   0.4166667), wk =   0.0061728
        k(  224) = (   0.2222222   0.2777778  -0.5000000), wk =   0.0030864
        k(  225) = (   0.2222222   0.3333333   0.0000000), wk =   0.0030864
        k(  226) = (   0.2222222   0.3333333   0.0833333), wk =   0.0061728
        k(  227) = (   0.2222222   0.3333333   0.1666667), wk =   0.0061728
        k(  228) = (   0.2222222   0.3333333   0.2500000), wk =   0.0061728
        k(  229) = (   0.2222222   0.3333333   0.3333333), wk =   0.0061728
        k(  230) = (   0.2222222   0.3333333   0.4166667), wk =   0.0061728
        k(  231) = (   0.2222222   0.3333333  -0.5000000), wk =   0.0030864
        k(  232) = (   0.2222222   0.3888889   0.0000000), wk =   0.0015432
        k(  233) = (   0.2222222   0.3888889   0.0833333), wk =   0.0030864
        k(  234) = (   0.2222222   0.3888889   0.1666667), wk =   0.0030864
        k(  235) = (   0.2222222   0.3888889   0.2500000), wk =   0.0030864
        k(  236) = (   0.2222222   0.3888889   0.3333333), wk =   0.0030864
        k(  237) = (   0.2222222   0.3888889   0.4166667), wk =   0.0030864
        k(  238) = (   0.2222222   0.3888889  -0.5000000), wk =   0.0015432
        k(  239) = (   0.2777778   0.2777778   0.0000000), wk =   0.0015432
        k(  240) = (   0.2777778   0.2777778   0.0833333), wk =   0.0030864
        k(  241) = (   0.2777778   0.2777778   0.1666667), wk =   0.0030864
        k(  242) = (   0.2777778   0.2777778   0.2500000), wk =   0.0030864
        k(  243) = (   0.2777778   0.2777778   0.3333333), wk =   0.0030864
        k(  244) = (   0.2777778   0.2777778   0.4166667), wk =   0.0030864
        k(  245) = (   0.2777778   0.2777778  -0.5000000), wk =   0.0015432
        k(  246) = (   0.2777778   0.3333333   0.0000000), wk =   0.0030864
        k(  247) = (   0.2777778   0.3333333   0.0833333), wk =   0.0061728
        k(  248) = (   0.2777778   0.3333333   0.1666667), wk =   0.0061728
        k(  249) = (   0.2777778   0.3333333   0.2500000), wk =   0.0061728
        k(  250) = (   0.2777778   0.3333333   0.3333333), wk =   0.0061728
        k(  251) = (   0.2777778   0.3333333   0.4166667), wk =   0.0061728
        k(  252) = (   0.2777778   0.3333333  -0.5000000), wk =   0.0030864
        k(  253) = (   0.3333333   0.3333333   0.0000000), wk =   0.0005144
        k(  254) = (   0.3333333   0.3333333   0.0833333), wk =   0.0010288
        k(  255) = (   0.3333333   0.3333333   0.1666667), wk =   0.0010288
        k(  256) = (   0.3333333   0.3333333   0.2500000), wk =   0.0010288
        k(  257) = (   0.3333333   0.3333333   0.3333333), wk =   0.0010288
        k(  258) = (   0.3333333   0.3333333   0.4166667), wk =   0.0010288
        k(  259) = (   0.3333333   0.3333333  -0.5000000), wk =   0.0005144

     Dense  grid:   796925 G-vectors     FFT dimensions: ( 100, 100, 180)

     Smooth grid:   201905 G-vectors     FFT dimensions: (  64,  64, 120)

     Dynamical RAM for                 wfc:       1.41 MB

     Dynamical RAM for     wfc (w. buffer):     366.58 MB

     Dynamical RAM for           str. fact:       0.76 MB

     Dynamical RAM for           local pot:       0.00 MB

     Dynamical RAM for          nlocal pot:       2.68 MB

     Dynamical RAM for                qrad:      57.76 MB

     Dynamical RAM for          rho,v,vnew:       6.70 MB

     Dynamical RAM for               rhoin:       2.23 MB

     Dynamical RAM for            rho*nmix:      16.21 MB

     Dynamical RAM for           G-vectors:       0.98 MB

     Dynamical RAM for          h,s,v(r/c):       0.35 MB

     Dynamical RAM for          <psi|beta>:       0.90 MB

     Dynamical RAM for      wfcinit/wfcrot:       2.92 MB

     Dynamical RAM for           addusdens:     518.78 MB

     Estimated static dynamical RAM per process >     457.36 MB

     Estimated max dynamical RAM per process >     976.14 MB

     Estimated total dynamical RAM >      45.76 GB

     Initial potential from superposition of free atoms

     starting charge   72.95469, renormalised to   73.00000
     Starting wfcs are  110 randomized atomic wfcs
     Checking if some PAW data can be deallocated... 
       PAW data deallocated on   42 nodes for type:  1
       PAW data deallocated on   31 nodes for type:  2
       PAW data deallocated on   23 nodes for type:  3

     total cpu time spent up to now is       88.7 secs

     Self-consistent Calculation

     iteration #  1     ecut=    90.00 Ry     beta= 0.70
     CG style diagonalization
     ethr =  1.00E-02,  avg # of iterations =  2.1

     total cpu time spent up to now is      829.6 secs

     total energy              =   -2798.20192673 Ry
     estimated scf accuracy    <       5.15984601 Ry

     iteration #  2     ecut=    90.00 Ry     beta= 0.70
     CG style diagonalization
     c_bands:  2 eigenvalues not converged
     c_bands:  1 eigenvalues not converged
     c_bands:  1 eigenvalues not converged
     c_bands:  3 eigenvalues not converged
     c_bands:  2 eigenvalues not converged
     c_bands:  2 eigenvalues not converged
     c_bands:  1 eigenvalues not converged
     c_bands:  1 eigenvalues not converged
     c_bands:  3 eigenvalues not converged
     c_bands:  1 eigenvalues not converged
     c_bands:  1 eigenvalues not converged
     c_bands:  1 eigenvalues not converged
     c_bands:  1 eigenvalues not converged
     c_bands:  1 eigenvalues not converged
     c_bands:  1 eigenvalues not converged
     c_bands:  1 eigenvalues not converged
     c_bands:  1 eigenvalues not converged
     c_bands:  1 eigenvalues not converged
     c_bands:  1 eigenvalues not converged
     c_bands:  1 eigenvalues not converged
     c_bands:  1 eigenvalues not converged
     c_bands:  1 eigenvalues not converged
     c_bands:  1 eigenvalues not converged
     c_bands:  1 eigenvalues not converged
     c_bands:  2 eigenvalues not converged
     c_bands:  1 eigenvalues not converged
     c_bands:  1 eigenvalues not converged
     c_bands:  1 eigenvalues not converged
     c_bands:  1 eigenvalues not converged
     c_bands:  1 eigenvalues not converged
     c_bands:  1 eigenvalues not converged
     c_bands:  1 eigenvalues not converged
     c_bands:  1 eigenvalues not converged
     c_bands:  1 eigenvalues not converged
     c_bands:  1 eigenvalues not converged
     c_bands:  1 eigenvalues not converged
     c_bands:  1 eigenvalues not converged
     c_bands:  1 eigenvalues not converged
     c_bands:  1 eigenvalues not converged
     c_bands:  1 eigenvalues not converged
     c_bands:  1 eigenvalues not converged
     c_bands:  2 eigenvalues not converged
     c_bands:  1 eigenvalues not converged
     c_bands:  1 eigenvalues not converged
     c_bands:  1 eigenvalues not converged
     c_bands:  1 eigenvalues not converged
     c_bands:  1 eigenvalues not converged
     c_bands:  1 eigenvalues not converged
     ethr =  7.07E-03,  avg # of iterations =  6.3

     total cpu time spent up to now is     2724.5 secs

     total energy              =   -2797.42607746 Ry
     estimated scf accuracy    <      83.34574074 Ry

     iteration #  3     ecut=    90.00 Ry     beta= 0.70
     CG style diagonalization
     c_bands:  1 eigenvalues not converged
     c_bands:  1 eigenvalues not converged
     c_bands:  1 eigenvalues not converged
     c_bands:  1 eigenvalues not converged
     c_bands:  1 eigenvalues not converged
     c_bands:  1 eigenvalues not converged
     c_bands:  1 eigenvalues not converged
     c_bands:  1 eigenvalues not converged
     c_bands:  1 eigenvalues not converged
     c_bands:  1 eigenvalues not converged
     c_bands:  1 eigenvalues not converged
     c_bands:  1 eigenvalues not converged
     c_bands:  1 eigenvalues not converged
     c_bands:  1 eigenvalues not converged
     c_bands:  1 eigenvalues not converged
     c_bands:  1 eigenvalues not converged
     c_bands:  1 eigenvalues not converged
     c_bands:  1 eigenvalues not converged
     c_bands:  1 eigenvalues not converged
     c_bands:  1 eigenvalues not converged
     c_bands:  1 eigenvalues not converged
     ethr =  7.07E-03,  avg # of iterations =  5.0

     total cpu time spent up to now is     4153.6 secs

     total energy              =   -2800.06473153 Ry
     estimated scf accuracy    <      21.17960229 Ry

     iteration #  4     ecut=    90.00 Ry     beta= 0.70
     CG style diagonalization
     c_bands:  1 eigenvalues not converged
     c_bands:  1 eigenvalues not converged
     c_bands:  1 eigenvalues not converged
     c_bands:  1 eigenvalues not converged
     ethr =  7.07E-03,  avg # of iterations =  3.9

     total cpu time spent up to now is     5227.0 secs

     total energy              =   -2801.16945941 Ry
     estimated scf accuracy    <       8.46029339 Ry

     iteration #  5     ecut=    90.00 Ry     beta= 0.70
     CG style diagonalization
     c_bands:  1 eigenvalues not converged
     ethr =  7.07E-03,  avg # of iterations =  3.1

     total cpu time spent up to now is     6042.3 secs

     total energy              =   -2801.46427410 Ry
     estimated scf accuracy    <       6.86518001 Ry

     iteration #  6     ecut=    90.00 Ry     beta= 0.70
     CG style diagonalization
     ethr =  7.07E-03,  avg # of iterations =  3.0

     total cpu time spent up to now is     6825.6 secs

     total energy              =   -2801.20951348 Ry
     estimated scf accuracy    <       6.21926338 Ry

     iteration #  7     ecut=    90.00 Ry     beta= 0.70
     CG style diagonalization
     ethr =  7.07E-03,  avg # of iterations =  3.0

     negative rho (up, down):  4.651E-04 0.000E+00

     total cpu time spent up to now is     7602.9 secs

     total energy              =   -2800.53581827 Ry
     estimated scf accuracy    <       5.02102636 Ry

     iteration #  8     ecut=    90.00 Ry     beta= 0.70
     CG style diagonalization
     ethr =  6.88E-03,  avg # of iterations =  3.1

     negative rho (up, down):  4.270E-04 0.000E+00

     total cpu time spent up to now is     8408.1 secs

     total energy              =   -2800.74770892 Ry
     estimated scf accuracy    <       2.64788068 Ry

     iteration #  9     ecut=    90.00 Ry     beta= 0.70
     CG style diagonalization
     c_bands:  1 eigenvalues not converged
     c_bands:  1 eigenvalues not converged
     c_bands:  1 eigenvalues not converged
     c_bands:  1 eigenvalues not converged
     c_bands:  1 eigenvalues not converged
     c_bands:  1 eigenvalues not converged
     c_bands:  1 eigenvalues not converged
     c_bands:  1 eigenvalues not converged
     c_bands:  1 eigenvalues not converged
     c_bands:  1 eigenvalues not converged
     c_bands:  1 eigenvalues not converged
     c_bands:  1 eigenvalues not converged
     c_bands:  1 eigenvalues not converged
     c_bands:  1 eigenvalues not converged
     c_bands:  1 eigenvalues not converged
     c_bands:  1 eigenvalues not converged
     ethr =  3.63E-03,  avg # of iterations =  4.5

     total cpu time spent up to now is     9678.4 secs

     total energy              =   -2801.95443962 Ry
     estimated scf accuracy    <       0.67305105 Ry

     iteration # 10     ecut=    90.00 Ry     beta= 0.70
     CG style diagonalization
     c_bands:  2 eigenvalues not converged
     c_bands:  1 eigenvalues not converged
     c_bands:  2 eigenvalues not converged
     c_bands:  2 eigenvalues not converged
     c_bands:  1 eigenvalues not converged
     c_bands:  1 eigenvalues not converged
     c_bands:  1 eigenvalues not converged
     c_bands:  1 eigenvalues not converged
     c_bands:  1 eigenvalues not converged
     c_bands:  1 eigenvalues not converged
     c_bands:  1 eigenvalues not converged
     c_bands:  1 eigenvalues not converged
     c_bands:  1 eigenvalues not converged
     c_bands:  1 eigenvalues not converged
     c_bands:  1 eigenvalues not converged
     c_bands:  1 eigenvalues not converged
     c_bands:  3 eigenvalues not converged
     c_bands:  1 eigenvalues not converged
     c_bands:  1 eigenvalues not converged
     c_bands:  1 eigenvalues not converged
     c_bands:  1 eigenvalues not converged
     c_bands:  1 eigenvalues not converged
     c_bands:  2 eigenvalues not converged
     c_bands:  1 eigenvalues not converged
     c_bands:  2 eigenvalues not converged
     c_bands:  2 eigenvalues not converged
     c_bands:  2 eigenvalues not converged
     c_bands:  1 eigenvalues not converged
     c_bands:  2 eigenvalues not converged
     c_bands:  1 eigenvalues not converged
     c_bands:  1 eigenvalues not converged
     c_bands:  1 eigenvalues not converged
     c_bands:  1 eigenvalues not converged
     c_bands:  1 eigenvalues not converged
     c_bands:  1 eigenvalues not converged
     c_bands:  1 eigenvalues not converged
     c_bands:  1 eigenvalues not converged
     c_bands:  2 eigenvalues not converged
     c_bands:  1 eigenvalues not converged
     c_bands:  1 eigenvalues not converged
     c_bands:  2 eigenvalues not converged
     c_bands:  1 eigenvalues not converged
     c_bands:  2 eigenvalues not converged
     c_bands:  1 eigenvalues not converged
     c_bands:  1 eigenvalues not converged
     c_bands:  1 eigenvalues not converged
     c_bands:  1 eigenvalues not converged
     c_bands:  1 eigenvalues not converged
     c_bands:  1 eigenvalues not converged
     c_bands:  2 eigenvalues not converged
     c_bands:  3 eigenvalues not converged
     c_bands:  1 eigenvalues not converged
     c_bands:  1 eigenvalues not converged
     c_bands:  1 eigenvalues not converged
     c_bands:  1 eigenvalues not converged
     c_bands:  1 eigenvalues not converged
     c_bands:  1 eigenvalues not converged
     c_bands:  4 eigenvalues not converged
     c_bands:  1 eigenvalues not converged
     c_bands:  1 eigenvalues not converged
     c_bands:  2 eigenvalues not converged
     c_bands:  1 eigenvalues not converged
     c_bands:  2 eigenvalues not converged
     c_bands:  3 eigenvalues not converged
     c_bands:  2 eigenvalues not converged
     c_bands:  1 eigenvalues not converged
     c_bands:  1 eigenvalues not converged
     c_bands:  2 eigenvalues not converged
     c_bands:  1 eigenvalues not converged
     c_bands:  1 eigenvalues not converged
     c_bands:  1 eigenvalues not converged
     c_bands:  1 eigenvalues not converged
     c_bands:  2 eigenvalues not converged
     c_bands:  2 eigenvalues not converged
     c_bands:  2 eigenvalues not converged
     c_bands:  1 eigenvalues not converged
     c_bands:  1 eigenvalues not converged
     c_bands:  1 eigenvalues not converged
     c_bands:  2 eigenvalues not converged
     c_bands:  2 eigenvalues not converged
     c_bands:  1 eigenvalues not converged
     c_bands:  2 eigenvalues not converged
     c_bands:  1 eigenvalues not converged
     c_bands:  1 eigenvalues not converged
     c_bands:  1 eigenvalues not converged
     c_bands:  1 eigenvalues not converged
     c_bands:  1 eigenvalues not converged
     c_bands:  4 eigenvalues not converged
     c_bands:  1 eigenvalues not converged
     c_bands:  1 eigenvalues not converged
     c_bands:  1 eigenvalues not converged
     c_bands:  1 eigenvalues not converged
     c_bands:  1 eigenvalues not converged
     c_bands:  2 eigenvalues not converged
     c_bands:  2 eigenvalues not converged
     c_bands:  1 eigenvalues not converged
     c_bands:  1 eigenvalues not converged
     c_bands:  1 eigenvalues not converged
     c_bands:  1 eigenvalues not converged
     c_bands:  1 eigenvalues not converged
     ethr =  9.22E-04,  avg # of iterations =  6.1

     negative rho (up, down):  8.428E-04 0.000E+00

     total cpu time spent up to now is    11478.6 secs

     total energy              =   -2802.71106903 Ry
     estimated scf accuracy    <       4.15901692 Ry

     iteration # 11     ecut=    90.00 Ry     beta= 0.70
     CG style diagonalization
     c_bands:  1 eigenvalues not converged
     c_bands:  1 eigenvalues not converged
     c_bands:  1 eigenvalues not converged
     c_bands:  1 eigenvalues not converged
     c_bands:  1 eigenvalues not converged
     c_bands:  1 eigenvalues not converged
     c_bands:  1 eigenvalues not converged
     c_bands:  1 eigenvalues not converged
     c_bands:  1 eigenvalues not converged
     c_bands:  1 eigenvalues not converged
     c_bands:  1 eigenvalues not converged
     c_bands:  1 eigenvalues not converged
     c_bands:  1 eigenvalues not converged
     c_bands:  1 eigenvalues not converged
     c_bands:  1 eigenvalues not converged
     c_bands:  1 eigenvalues not converged
     c_bands:  1 eigenvalues not converged
     c_bands:  1 eigenvalues not converged
     c_bands:  1 eigenvalues not converged
     c_bands:  1 eigenvalues not converged
     c_bands:  1 eigenvalues not converged
     c_bands:  1 eigenvalues not converged
     c_bands:  1 eigenvalues not converged
     c_bands:  1 eigenvalues not converged
     ethr =  9.22E-04,  avg # of iterations =  3.8

     total cpu time spent up to now is    12519.9 secs

     total energy              =   -2801.98355795 Ry
     estimated scf accuracy    <       2.97453516 Ry

     iteration # 12     ecut=    90.00 Ry     beta= 0.70
     CG style diagonalization
     c_bands:  1 eigenvalues not converged
     c_bands:  1 eigenvalues not converged
     c_bands:  1 eigenvalues not converged
     c_bands:  1 eigenvalues not converged
     c_bands:  1 eigenvalues not converged
     c_bands:  1 eigenvalues not converged
     c_bands:  1 eigenvalues not converged
     c_bands:  1 eigenvalues not converged
     c_bands:  1 eigenvalues not converged
     c_bands:  1 eigenvalues not converged
     c_bands:  1 eigenvalues not converged
     c_bands:  2 eigenvalues not converged
     c_bands:  1 eigenvalues not converged
     c_bands:  1 eigenvalues not converged
     c_bands:  1 eigenvalues not converged
     c_bands:  1 eigenvalues not converged
     c_bands:  2 eigenvalues not converged
     c_bands:  1 eigenvalues not converged
     c_bands:  1 eigenvalues not converged
     c_bands:  2 eigenvalues not converged
     c_bands:  1 eigenvalues not converged
     c_bands:  1 eigenvalues not converged
     c_bands:  1 eigenvalues not converged
     c_bands:  1 eigenvalues not converged
     c_bands:  1 eigenvalues not converged
     c_bands:  1 eigenvalues not converged
     c_bands:  2 eigenvalues not converged
     c_bands:  1 eigenvalues not converged
     c_bands:  1 eigenvalues not converged
     c_bands:  3 eigenvalues not converged
     c_bands:  1 eigenvalues not converged
     c_bands:  3 eigenvalues not converged
     c_bands:  2 eigenvalues not converged
     c_bands:  1 eigenvalues not converged
     c_bands:  1 eigenvalues not converged
     c_bands:  1 eigenvalues not converged
     c_bands:  1 eigenvalues not converged
     c_bands:  2 eigenvalues not converged
     c_bands:  2 eigenvalues not converged
     c_bands:  1 eigenvalues not converged
     c_bands:  1 eigenvalues not converged
     c_bands:  1 eigenvalues not converged
     c_bands:  1 eigenvalues not converged
     c_bands:  2 eigenvalues not converged
     c_bands:  1 eigenvalues not converged
     c_bands:  3 eigenvalues not converged
     c_bands:  1 eigenvalues not converged
     c_bands:  1 eigenvalues not converged
     c_bands:  1 eigenvalues not converged
     c_bands:  2 eigenvalues not converged
     c_bands:  2 eigenvalues not converged
     c_bands:  1 eigenvalues not converged
     c_bands:  1 eigenvalues not converged
     c_bands:  1 eigenvalues not converged
     c_bands:  1 eigenvalues not converged
     c_bands:  1 eigenvalues not converged
     c_bands:  1 eigenvalues not converged
     c_bands:  1 eigenvalues not converged
     c_bands:  1 eigenvalues not converged
     c_bands:  1 eigenvalues not converged
     c_bands:  1 eigenvalues not converged
     c_bands:  1 eigenvalues not converged
     c_bands:  1 eigenvalues not converged
     c_bands:  1 eigenvalues not converged
     c_bands:  1 eigenvalues not converged
     c_bands:  1 eigenvalues not converged
     c_bands:  2 eigenvalues not converged
     c_bands:  1 eigenvalues not converged
     c_bands:  1 eigenvalues not converged
     c_bands:  1 eigenvalues not converged
     c_bands:  1 eigenvalues not converged
     ethr =  9.22E-04,  avg # of iterations =  4.9

     total cpu time spent up to now is    13919.3 secs

     total energy              =   -2802.73567513 Ry
     estimated scf accuracy    <       0.81195666 Ry

     iteration # 13     ecut=    90.00 Ry     beta= 0.70
     CG style diagonalization
     c_bands:  1 eigenvalues not converged
     c_bands:  1 eigenvalues not converged
     c_bands:  1 eigenvalues not converged
     c_bands:  1 eigenvalues not converged
     c_bands:  2 eigenvalues not converged
     c_bands:  1 eigenvalues not converged
     c_bands:  1 eigenvalues not converged
     c_bands:  1 eigenvalues not converged
     c_bands:  1 eigenvalues not converged
     c_bands:  1 eigenvalues not converged
     c_bands:  1 eigenvalues not converged
     c_bands:  1 eigenvalues not converged
     c_bands:  1 eigenvalues not converged
     c_bands:  1 eigenvalues not converged
     c_bands:  1 eigenvalues not converged
     c_bands:  1 eigenvalues not converged
     c_bands:  2 eigenvalues not converged
     c_bands:  1 eigenvalues not converged
     c_bands:  1 eigenvalues not converged
     c_bands:  1 eigenvalues not converged
     c_bands:  1 eigenvalues not converged
     c_bands:  1 eigenvalues not converged
     c_bands:  1 eigenvalues not converged
     c_bands:  1 eigenvalues not converged
     c_bands:  1 eigenvalues not converged
     c_bands:  2 eigenvalues not converged
     c_bands:  1 eigenvalues not converged
     c_bands:  1 eigenvalues not converged
     c_bands:  2 eigenvalues not converged
     c_bands:  2 eigenvalues not converged
     c_bands:  1 eigenvalues not converged
     c_bands:  1 eigenvalues not converged
     c_bands:  2 eigenvalues not converged
     c_bands:  1 eigenvalues not converged
     c_bands:  1 eigenvalues not converged
     c_bands:  1 eigenvalues not converged
     c_bands:  1 eigenvalues not converged
     c_bands:  1 eigenvalues not converged
     c_bands:  1 eigenvalues not converged
     c_bands:  3 eigenvalues not converged
     c_bands:  1 eigenvalues not converged
     c_bands:  1 eigenvalues not converged
     c_bands:  1 eigenvalues not converged
     ethr =  9.22E-04,  avg # of iterations =  4.7

     negative rho (up, down):  5.245E-05 0.000E+00

     total cpu time spent up to now is    15253.3 secs

     total energy              =   -2803.05476138 Ry
     estimated scf accuracy    <       2.35299481 Ry

     iteration # 14     ecut=    90.00 Ry     beta= 0.70
     CG style diagonalization
     c_bands:  1 eigenvalues not converged
     c_bands:  1 eigenvalues not converged
     ethr =  9.22E-04,  avg # of iterations =  3.2

     total cpu time spent up to now is    16101.3 secs

     total energy              =   -2803.05417828 Ry
     estimated scf accuracy    <       3.36814621 Ry

     iteration # 15     ecut=    90.00 Ry     beta= 0.70
     CG style diagonalization
     c_bands:  1 eigenvalues not converged
     ethr =  9.22E-04,  avg # of iterations =  3.1

     total cpu time spent up to now is    16900.2 secs

     total energy              =   -2803.10538471 Ry
     estimated scf accuracy    <       2.89849460 Ry

     iteration # 16     ecut=    90.00 Ry     beta= 0.70
     CG style diagonalization
     ethr =  9.22E-04,  avg # of iterations =  3.0

     total cpu time spent up to now is    17677.2 secs

     total energy              =   -2803.01080679 Ry
     estimated scf accuracy    <       3.18133989 Ry

     iteration # 17     ecut=    90.00 Ry     beta= 0.70
     CG style diagonalization
     ethr =  9.22E-04,  avg # of iterations =  3.0

     total cpu time spent up to now is    18452.5 secs

     total energy              =   -2802.83586309 Ry
     estimated scf accuracy    <       2.50328259 Ry

     iteration # 18     ecut=    90.00 Ry     beta= 0.70
     CG style diagonalization
     ethr =  9.22E-04,  avg # of iterations =  3.0

     total cpu time spent up to now is    19227.3 secs

     total energy              =   -2802.82338014 Ry
     estimated scf accuracy    <       1.09998329 Ry

     iteration # 19     ecut=    90.00 Ry     beta= 0.70
     CG style diagonalization
     ethr =  9.22E-04,  avg # of iterations =  3.0

     total cpu time spent up to now is    20001.8 secs

     total energy              =   -2802.83523890 Ry
     estimated scf accuracy    <       0.70424308 Ry

     iteration # 20     ecut=    90.00 Ry     beta= 0.70
     CG style diagonalization
     ethr =  9.22E-04,  avg # of iterations =  3.0

     total cpu time spent up to now is    20776.3 secs

     total energy              =   -2802.81246069 Ry
     estimated scf accuracy    <       0.67649484 Ry

     iteration # 21     ecut=    90.00 Ry     beta= 0.70
     CG style diagonalization
     ethr =  9.22E-04,  avg # of iterations =  3.0

     total cpu time spent up to now is    21550.6 secs

     total energy              =   -2802.73983716 Ry
     estimated scf accuracy    <       0.44630186 Ry

     iteration # 22     ecut=    90.00 Ry     beta= 0.70
     CG style diagonalization
     ethr =  6.11E-04,  avg # of iterations =  3.0

     total cpu time spent up to now is    22341.9 secs

     total energy              =   -2802.77307833 Ry
     estimated scf accuracy    <       0.02736050 Ry

     iteration # 23     ecut=    90.00 Ry     beta= 0.70
     CG style diagonalization
     c_bands:  1 eigenvalues not converged
     c_bands:  1 eigenvalues not converged
     c_bands:  2 eigenvalues not converged
     c_bands:  3 eigenvalues not converged
     c_bands:  1 eigenvalues not converged
     c_bands:  3 eigenvalues not converged
     c_bands:  1 eigenvalues not converged
     c_bands:  1 eigenvalues not converged
     c_bands:  1 eigenvalues not converged
     c_bands:  2 eigenvalues not converged
     c_bands:  1 eigenvalues not converged
     c_bands:  1 eigenvalues not converged
     c_bands:  2 eigenvalues not converged
     c_bands:  3 eigenvalues not converged
     c_bands:  5 eigenvalues not converged
[...]
   -15.0533 -15.0533  -3.1063  -3.1063  -2.3598  -2.3598  -2.1122  -2.1122
    -2.0588  -2.0588  -1.8618  -1.8618  -1.7541  -1.7541  -1.3751  -1.3751
    -1.2486  -1.2486   2.8124   2.8124   3.1090   3.1090   3.3770   3.3770
     3.7278   3.7278   4.7701   4.7701   4.8625   4.8625   4.9529   4.9529
     5.0521   5.0521   5.9304   5.9304   6.2874   6.2874   6.4288   6.4288
     6.4565   6.4565   6.5719   6.5719   6.7175   6.7175   7.2400   7.2400
     7.5243   7.5243   7.9748   7.9752   8.3563   8.3569   8.4654   8.4659
     8.5237   8.5252   8.8068   8.8116   8.9191   8.9206   8.9585   8.9617

     occupation numbers 
     1.0000   1.0000   1.0000   1.0000   1.0000   1.0000   1.0000   1.0000
     1.0000   1.0000   1.0000   1.0000   1.0000   1.0000   1.0000   1.0000
     1.0000   1.0000   1.0000   1.0000   1.0000   1.0000   1.0000   1.0000
     1.0000   1.0000   1.0000   1.0000   1.0000   1.0000   1.0000   1.0000
     1.0000   1.0000   1.0000   1.0000   1.0000   1.0000   1.0000   1.0000
     1.0000   1.0000   1.0000   1.0000   1.0000   1.0000   1.0000   1.0000
     1.0000   1.0000   1.0000   1.0000   1.0000   1.0000   1.0000   1.0000
     1.0000   1.0000   1.0000   1.0000   1.0000   1.0000   1.0000   1.0000
     1.0000   1.0000   1.0000   1.0000   1.0000   1.0000   1.0159   1.0159
     0.9663   0.9663  -0.0172  -0.0174  -0.0023  -0.0023  -0.0004  -0.0004
    -0.0001  -0.0001  -0.0000  -0.0000  -0.0000  -0.0000  -0.0000  -0.0000

          k = 0.2778 0.5453-0.2786 ( 25214 PWs)   bands (ev):

   -56.6823 -56.6823 -56.6747 -56.6747 -56.6460 -56.6460 -31.1363 -31.1363
   -31.1009 -31.1009 -31.0821 -31.0821 -30.3725 -30.3725 -30.3400 -30.3400
   -30.3146 -30.3146 -30.2840 -30.2840 -30.1730 -30.1730 -30.0871 -30.0871
   -15.0533 -15.0533  -3.1058  -3.1058  -2.3568  -2.3568  -2.1089  -2.1089
    -2.0684  -2.0684  -1.8556  -1.8556  -1.7646  -1.7646  -1.3715  -1.3715
    -1.2439  -1.2439   2.8057   2.8057   3.1106   3.1106   3.3799   3.3799
     3.7327   3.7327   4.7706   4.7706   4.8653   4.8653   4.9493   4.9493
     5.0514   5.0514   5.9233   5.9233   6.2862   6.2862   6.4284   6.4284
     6.4563   6.4563   6.5773   6.5773   6.7090   6.7090   7.2393   7.2393
     7.5238   7.5238   7.9742   7.9747   8.3512   8.3540   8.4779   8.4818
     8.5231   8.5244   8.8091   8.8229   8.9143   8.9336   8.9430   9.0741

     occupation numbers 
     1.0000   1.0000   1.0000   1.0000   1.0000   1.0000   1.0000   1.0000
     1.0000   1.0000   1.0000   1.0000   1.0000   1.0000   1.0000   1.0000
     1.0000   1.0000   1.0000   1.0000   1.0000   1.0000   1.0000   1.0000
     1.0000   1.0000   1.0000   1.0000   1.0000   1.0000   1.0000   1.0000
     1.0000   1.0000   1.0000   1.0000   1.0000   1.0000   1.0000   1.0000
     1.0000   1.0000   1.0000   1.0000   1.0000   1.0000   1.0000   1.0000
     1.0000   1.0000   1.0000   1.0000   1.0000   1.0000   1.0000   1.0000
     1.0000   1.0000   1.0000   1.0000   1.0000   1.0000   1.0000   1.0000
     1.0000   1.0000   1.0000   1.0000   1.0000   1.0000   1.0158   1.0158
     0.9670   0.9670  -0.0169  -0.0172  -0.0025  -0.0024  -0.0003  -0.0003
    -0.0001  -0.0001  -0.0000  -0.0000  -0.0000  -0.0000  -0.0000  -0.0000

          k = 0.3333 0.5774 0.0000 ( 25170 PWs)   bands (ev):

   -56.6785 -56.6785 -56.6785 -56.6785 -56.6460 -56.6460 -31.1358 -31.1358
   -31.1001 -31.1001 -31.0829 -31.0829 -30.3717 -30.3717 -30.3380 -30.3380
   -30.3148 -30.3148 -30.2860 -30.2860 -30.1716 -30.1716 -30.0898 -30.0898
   -15.0532 -15.0532  -3.1096  -3.1096  -2.2448  -2.2448  -2.1104  -2.1104
    -2.0944  -2.0944  -1.7940  -1.7940  -1.7802  -1.7802  -1.4393  -1.4393
    -1.3433  -1.3433   2.8971   2.8971   3.1941   3.1941   3.3647   3.3647
     3.4717   3.4717   4.7929   4.7929   4.8411   4.8411   5.0104   5.0104
     5.0327   5.0327   6.2427   6.2427   6.3818   6.3818   6.4500   6.4500
     6.4856   6.4856   6.4981   6.4981   6.5405   6.5405   7.3895   7.3895
     7.3962   7.3962   8.0102   8.0105   8.2474   8.2479   8.4800   8.4804
     8.5989   8.5996   8.8773   8.8774   9.0124   9.0161   9.0558   9.0561

     occupation numbers 
     1.0000   1.0000   1.0000   1.0000   1.0000   1.0000   1.0000   1.0000
     1.0000   1.0000   1.0000   1.0000   1.0000   1.0000   1.0000   1.0000
     1.0000   1.0000   1.0000   1.0000   1.0000   1.0000   1.0000   1.0000
     1.0000   1.0000   1.0000   1.0000   1.0000   1.0000   1.0000   1.0000
     1.0000   1.0000   1.0000   1.0000   1.0000   1.0000   1.0000   1.0000
     1.0000   1.0000   1.0000   1.0000   1.0000   1.0000   1.0000   1.0000
     1.0000   1.0000   1.0000   1.0000   1.0000   1.0000   1.0000   1.0000
     1.0000   1.0000   1.0000   1.0000   1.0000   1.0000   1.0000   1.0000
     1.0000   1.0000   1.0000   1.0000   1.0000   1.0000   1.0354   1.0354
     1.0353   1.0353  -0.0307  -0.0308  -0.0097  -0.0097  -0.0003  -0.0003
    -0.0000  -0.0000  -0.0000  -0.0000  -0.0000  -0.0000  -0.0000  -0.0000

          k = 0.3333 0.5774 0.0464 ( 25176 PWs)   bands (ev):

   -56.6785 -56.6785 -56.6785 -56.6785 -56.6460 -56.6460 -31.1358 -31.1358
   -31.1001 -31.1001 -31.0829 -31.0829 -30.3717 -30.3717 -30.3380 -30.3380
   -30.3148 -30.3148 -30.2860 -30.2860 -30.1716 -30.1716 -30.0898 -30.0898
   -15.0532 -15.0532  -3.1092  -3.1092  -2.2398  -2.2398  -2.1146  -2.1146
    -2.0903  -2.0903  -1.8064  -1.8064  -1.7851  -1.7851  -1.4337  -1.4337
    -1.3356  -1.3356   2.8868   2.8868   3.1951   3.1951   3.3659   3.3659
     3.4830   3.4830   4.7927   4.7927   4.8425   4.8425   5.0077   5.0077
     5.0323   5.0323   6.2387   6.2387   6.3757   6.3757   6.4490   6.4490
     6.4786   6.4786   6.4983   6.4983   6.5451   6.5451   7.3883   7.3883
     7.3953   7.3953   8.0101   8.0106   8.2633   8.2639   8.4734   8.4744
     8.5906   8.5913   8.8694   8.8721   9.0042   9.0062   9.0423   9.0575

     occupation numbers 
     1.0000   1.0000   1.0000   1.0000   1.0000   1.0000   1.0000   1.0000
     1.0000   1.0000   1.0000   1.0000   1.0000   1.0000   1.0000   1.0000
     1.0000   1.0000   1.0000   1.0000   1.0000   1.0000   1.0000   1.0000
     1.0000   1.0000   1.0000   1.0000   1.0000   1.0000   1.0000   1.0000
     1.0000   1.0000   1.0000   1.0000   1.0000   1.0000   1.0000   1.0000
     1.0000   1.0000   1.0000   1.0000   1.0000   1.0000   1.0000   1.0000
     1.0000   1.0000   1.0000   1.0000   1.0000   1.0000   1.0000   1.0000
     1.0000   1.0000   1.0000   1.0000   1.0000   1.0000   1.0000   1.0000
     1.0000   1.0000   1.0000   1.0000   1.0000   1.0000   1.0355   1.0355
     1.0353   1.0353  -0.0307  -0.0308  -0.0081  -0.0080  -0.0003  -0.0003
    -0.0000  -0.0000  -0.0000  -0.0000  -0.0000  -0.0000  -0.0000  -0.0000

          k = 0.3333 0.5774 0.0929 ( 25185 PWs)   bands (ev):

   -56.6785 -56.6785 -56.6785 -56.6785 -56.6460 -56.6460 -31.1358 -31.1358
   -31.1001 -31.1001 -31.0829 -31.0829 -30.3717 -30.3717 -30.3380 -30.3380
   -30.3148 -30.3148 -30.2860 -30.2860 -30.1716 -30.1716 -30.0898 -30.0898
   -15.0532 -15.0532  -3.1082  -3.1082  -2.2250  -2.2250  -2.1207  -2.1207
    -2.0851  -2.0851  -1.8398  -1.8398  -1.7974  -1.7974  -1.4194  -1.4194
    -1.3161  -1.3161   2.8602   2.8602   3.1981   3.1981   3.3692   3.3692
     3.5119   3.5119   4.7921   4.7921   4.8467   4.8467   5.0001   5.0001
     5.0312   5.0312   6.2277   6.2277   6.3590   6.3590   6.4440   6.4440
     6.4661   6.4661   6.4990   6.4990   6.5540   6.5540   7.3848   7.3848
     7.3929   7.3929   8.0098   8.0101   8.3082   8.3086   8.4565   8.4575
     8.5674   8.5680   8.8495   8.8499   8.9840   8.9851   9.0537   9.0614

     occupation numbers 
     1.0000   1.0000   1.0000   1.0000   1.0000   1.0000   1.0000   1.0000
     1.0000   1.0000   1.0000   1.0000   1.0000   1.0000   1.0000   1.0000
     1.0000   1.0000   1.0000   1.0000   1.0000   1.0000   1.0000   1.0000
     1.0000   1.0000   1.0000   1.0000   1.0000   1.0000   1.0000   1.0000
     1.0000   1.0000   1.0000   1.0000   1.0000   1.0000   1.0000   1.0000
     1.0000   1.0000   1.0000   1.0000   1.0000   1.0000   1.0000   1.0000
     1.0000   1.0000   1.0000   1.0000   1.0000   1.0000   1.0000   1.0000
     1.0000   1.0000   1.0000   1.0000   1.0000   1.0000   1.0000   1.0000
     1.0000   1.0000   1.0000   1.0000   1.0000   1.0000   1.0355   1.0355
     1.0354   1.0354  -0.0306  -0.0307  -0.0046  -0.0046  -0.0004  -0.0004
    -0.0000  -0.0000  -0.0000  -0.0000  -0.0000  -0.0000  -0.0000  -0.0000

          k = 0.3333 0.5774 0.1393 ( 25176 PWs)   bands (ev):

   -56.6785 -56.6785 -56.6785 -56.6785 -56.6460 -56.6460 -31.1358 -31.1358
   -31.1001 -31.1001 -31.0829 -31.0829 -30.3717 -30.3717 -30.3380 -30.3380
   -30.3148 -30.3148 -30.2860 -30.2860 -30.1716 -30.1716 -30.0898 -30.0898
   -15.0532 -15.0532  -3.1069  -3.1069  -2.2012  -2.2012  -2.1238  -2.1238
    -2.0839  -2.0839  -1.8863  -1.8863  -1.8117  -1.8117  -1.4013  -1.4013
    -1.2921  -1.2921   2.8270   2.8270   3.2027   3.2027   3.3739   3.3739
     3.5479   3.5479   4.7913   4.7913   4.8535   4.8535   4.9885   4.9885
     5.0295   5.0295   6.2130   6.2130   6.3366   6.3366   6.4310   6.4310
     6.4596   6.4596   6.4997   6.4997   6.5620   6.5620   7.3799   7.3799
     7.3896   7.3896   8.0093   8.0095   8.3700   8.3705   8.4325   8.4342
     8.5375   8.5384   8.8262   8.8378   8.9599   8.9613   9.0398   9.0678

     occupation numbers 
     1.0000   1.0000   1.0000   1.0000   1.0000   1.0000   1.0000   1.0000
     1.0000   1.0000   1.0000   1.0000   1.0000   1.0000   1.0000   1.0000
     1.0000   1.0000   1.0000   1.0000   1.0000   1.0000   1.0000   1.0000
     1.0000   1.0000   1.0000   1.0000   1.0000   1.0000   1.0000   1.0000
     1.0000   1.0000   1.0000   1.0000   1.0000   1.0000   1.0000   1.0000
     1.0000   1.0000   1.0000   1.0000   1.0000   1.0000   1.0000   1.0000
     1.0000   1.0000   1.0000   1.0000   1.0000   1.0000   1.0000   1.0000
     1.0000   1.0000   1.0000   1.0000   1.0000   1.0000   1.0000   1.0000
     1.0000   1.0000   1.0000   1.0000   1.0000   1.0000   1.0354   1.0354
     1.0354   1.0354  -0.0305  -0.0306  -0.0019  -0.0019  -0.0007  -0.0007
    -0.0001  -0.0001  -0.0000  -0.0000  -0.0000  -0.0000  -0.0000  -0.0000

          k = 0.3333 0.5774 0.1857 ( 25185 PWs)   bands (ev):

   -56.6785 -56.6785 -56.6785 -56.6785 -56.6460 -56.6460 -31.1358 -31.1358
   -31.1001 -31.1001 -31.0829 -31.0829 -30.3717 -30.3717 -30.3380 -30.3380
   -30.3148 -30.3148 -30.2860 -30.2860 -30.1716 -30.1716 -30.0898 -30.0898
   -15.0532 -15.0532  -3.1055  -3.1055  -2.1700  -2.1700  -2.1225  -2.1225
    -2.0881  -2.0881  -1.9378  -1.9378  -1.8236  -1.8236  -1.3847  -1.3847
    -1.2704  -1.2704   2.7965   2.7965   3.2076   3.2076   3.3785   3.3785
     3.5809   3.5809   4.7905   4.7905   4.8618   4.8618   4.9751   4.9751
     5.0278   5.0278   6.1986   6.1986   6.3145   6.3145   6.4160   6.4160
     6.4577   6.4577   6.5004   6.5004   6.5678   6.5678   7.3749   7.3749
     7.3861   7.3861   8.0090   8.0090   8.4105   8.4113   8.4316   8.4323
     8.5124   8.5132   8.8048   8.8056   8.9362   8.9367   8.9853   9.0137

     occupation numbers 
     1.0000   1.0000   1.0000   1.0000   1.0000   1.0000   1.0000   1.0000
     1.0000   1.0000   1.0000   1.0000   1.0000   1.0000   1.0000   1.0000
     1.0000   1.0000   1.0000   1.0000   1.0000   1.0000   1.0000   1.0000
     1.0000   1.0000   1.0000   1.0000   1.0000   1.0000   1.0000   1.0000
     1.0000   1.0000   1.0000   1.0000   1.0000   1.0000   1.0000   1.0000
     1.0000   1.0000   1.0000   1.0000   1.0000   1.0000   1.0000   1.0000
     1.0000   1.0000   1.0000   1.0000   1.0000   1.0000   1.0000   1.0000
     1.0000   1.0000   1.0000   1.0000   1.0000   1.0000   1.0000   1.0000
     1.0000   1.0000   1.0000   1.0000   1.0000   1.0000   1.0352   1.0352
     1.0355   1.0355  -0.0304  -0.0304  -0.0010  -0.0010  -0.0007  -0.0007
    -0.0002  -0.0001  -0.0000  -0.0000  -0.0000  -0.0000  -0.0000  -0.0000

          k = 0.3333 0.5774 0.2322 ( 25191 PWs)   bands (ev):

   -56.6785 -56.6785 -56.6785 -56.6785 -56.6460 -56.6460 -31.1358 -31.1358
   -31.1001 -31.1001 -31.0829 -31.0829 -30.3717 -30.3717 -30.3380 -30.3380
   -30.3148 -30.3148 -30.2860 -30.2860 -30.1716 -30.1716 -30.0898 -30.0898
   -15.0532 -15.0532  -3.1045  -3.1045  -2.1364  -2.1364  -2.1169  -2.1169
    -2.0966  -2.0966  -1.9851  -1.9851  -1.8309  -1.8309  -1.3732  -1.3732
    -1.2557  -1.2557   2.7756   2.7756   3.2113   3.2113   3.3820   3.3820
     3.6036   3.6036   4.7898   4.7898   4.8697   4.8697   4.9635   4.9635
     5.0264   5.0264   6.1882   6.1882   6.2986   6.2986   6.4054   6.4054
     6.4571   6.4571   6.5008   6.5008   6.5712   6.5712   7.3713   7.3713
     7.3836   7.3836   8.0088   8.0091   8.3932   8.3940   8.4626   8.4645
     8.5119   8.5133   8.7913   8.7919   8.9208   8.9223   8.9832   9.0736

     occupation numbers 
     1.0000   1.0000   1.0000   1.0000   1.0000   1.0000   1.0000   1.0000
     1.0000   1.0000   1.0000   1.0000   1.0000   1.0000   1.0000   1.0000
     1.0000   1.0000   1.0000   1.0000   1.0000   1.0000   1.0000   1.0000
     1.0000   1.0000   1.0000   1.0000   1.0000   1.0000   1.0000   1.0000
     1.0000   1.0000   1.0000   1.0000   1.0000   1.0000   1.0000   1.0000
     1.0000   1.0000   1.0000   1.0000   1.0000   1.0000   1.0000   1.0000
     1.0000   1.0000   1.0000   1.0000   1.0000   1.0000   1.0000   1.0000
     1.0000   1.0000   1.0000   1.0000   1.0000   1.0000   1.0000   1.0000
     1.0000   1.0000   1.0000   1.0000   1.0000   1.0000   1.0350   1.0350
     1.0354   1.0354  -0.0304  -0.0305  -0.0013  -0.0013  -0.0004  -0.0004
    -0.0002  -0.0001  -0.0000  -0.0000  -0.0000  -0.0000  -0.0000  -0.0000

          k = 0.3333 0.5774-0.2786 ( 25218 PWs)   bands (ev):

   -56.6785 -56.6785 -56.6785 -56.6785 -56.6460 -56.6460 -31.1358 -31.1358
   -31.1001 -31.1001 -31.0829 -31.0829 -30.3717 -30.3717 -30.3380 -30.3380
   -30.3148 -30.3148 -30.2860 -30.2860 -30.1716 -30.1716 -30.0898 -30.0898
   -15.0532 -15.0532  -3.1042  -3.1042  -2.1178  -2.1178  -2.1099  -2.1099
    -2.1048  -2.1048  -2.0086  -2.0086  -1.8332  -1.8332  -1.3692  -1.3692
    -1.2506  -1.2506   2.7682   2.7682   3.2127   3.2127   3.3833   3.3833
     3.6116   3.6116   4.7896   4.7896   4.8731   4.8731   4.9587   4.9587
     5.0258   5.0258   6.1845   6.1845   6.2928   6.2928   6.4015   6.4015
     6.4570   6.4570   6.5009   6.5009   6.5723   6.5723   7.3699   7.3699
     7.3826   7.3826   8.0087   8.0093   8.3879   8.3883   8.4640   8.4646
     8.5250   8.5259   8.7866   8.7871   8.9149   8.9157   9.0288   9.0563

     occupation numbers 
     1.0000   1.0000   1.0000   1.0000   1.0000   1.0000   1.0000   1.0000
     1.0000   1.0000   1.0000   1.0000   1.0000   1.0000   1.0000   1.0000
     1.0000   1.0000   1.0000   1.0000   1.0000   1.0000   1.0000   1.0000
     1.0000   1.0000   1.0000   1.0000   1.0000   1.0000   1.0000   1.0000
     1.0000   1.0000   1.0000   1.0000   1.0000   1.0000   1.0000   1.0000
     1.0000   1.0000   1.0000   1.0000   1.0000   1.0000   1.0000   1.0000
     1.0000   1.0000   1.0000   1.0000   1.0000   1.0000   1.0000   1.0000
     1.0000   1.0000   1.0000   1.0000   1.0000   1.0000   1.0000   1.0000
     1.0000   1.0000   1.0000   1.0000   1.0000   1.0000   1.0349   1.0349
     1.0354   1.0354  -0.0304  -0.0305  -0.0014  -0.0014  -0.0004  -0.0004
    -0.0001  -0.0001  -0.0000  -0.0000  -0.0000  -0.0000  -0.0000  -0.0000

     the Fermi energy is     7.7200 ev

!    total energy              =   -2802.84673511 Ry

     total all-electron energy =    -86113.360568 Ry
     estimated scf accuracy    <          3.8E-11 Ry
     smearing contrib. (-TS)   =      -0.00092268 Ry
     internal energy E=F+TS    =   -2802.84581243 Ry

     The total energy is F=E-TS. E is the sum of the following terms:
     one-electron contribution =    -587.66893237 Ry
     hartree contribution      =     319.15172241 Ry
     xc contribution           =    -143.63792172 Ry
     ewald contribution        =    -170.22688259 Ry
     one-center paw contrib.   =   -2220.46379815 Ry
      -> PAW hartree energy AE =      25.63177681 Ry
      -> PAW hartree energy PS =     -25.53028774 Ry
      -> PAW xc energy AE      =    -384.88042491 Ry
      -> PAW xc energy PS      =      20.54981720 Ry
      -> total E_H with PAW    =     319.25321148 Ry
      -> total E_XC with PAW   =    -507.96852944 Ry

     convergence has been achieved in  64 iterations

     Writing output data file /zfs_data/vergnior/martin/Scratch/CsV3Sb5/P6mmm/bands/tmp/CsV3Sb5.save/
 
     init_run     :     79.56s CPU     81.62s WALL (       1 calls)
     electrons    :  73753.48s CPU  74400.00s WALL (       1 calls)

     Called by init_run:
     wfcinit      :     74.68s CPU     76.28s WALL (       1 calls)
     wfcinit:atom :      0.85s CPU      0.86s WALL (     259 calls)
     wfcinit:wfcr :     70.97s CPU     72.51s WALL (     259 calls)
     potinit      :      0.76s CPU      0.78s WALL (       1 calls)
     hinit0       :      1.07s CPU      1.09s WALL (       1 calls)

     Called by electrons:
     c_bands      :  69745.75s CPU  70296.00s WALL (      64 calls)
     sum_band     :   3818.23s CPU   3890.12s WALL (      64 calls)
     v_of_rho     :      3.23s CPU      3.28s WALL (      65 calls)
     v_h          :      0.27s CPU      0.27s WALL (      65 calls)
     v_xc         :      2.96s CPU      3.01s WALL (      65 calls)
     newd         :    150.85s CPU    174.77s WALL (      65 calls)
     PAW_pot      :     29.66s CPU     29.88s WALL (      65 calls)
     mix_rho      :      5.59s CPU      5.92s WALL (      64 calls)

     Called by c_bands:
     init_us_2    :    105.28s CPU    106.19s WALL (   33411 calls)
     ccgdiagg     :  66097.39s CPU  66589.39s WALL (   16696 calls)
     wfcrot       :   3594.59s CPU   3643.57s WALL (   16696 calls)

     Called by sum_band:
     sum_band:wei :      2.57s CPU      2.58s WALL (      64 calls)
     sum_band:loo :   3675.11s CPU   3707.02s WALL (      64 calls)
     sum_band:buf :     26.88s CPU     32.96s WALL (   16576 calls)
     sum_band:ini :     55.03s CPU     55.40s WALL (   16576 calls)
     sum_band:cal :    235.18s CPU    235.90s WALL (   16576 calls)
     sum_band:bec :    434.70s CPU    435.91s WALL (   16576 calls)
     addusdens    :    138.04s CPU    177.93s WALL (      64 calls)
     addusd:skk   :      0.15s CPU      0.18s WALL (     192 calls)
     addusd:dgemm :     48.33s CPU     87.13s WALL (     192 calls)
     addusd:qvan2 :     87.97s CPU     88.21s WALL (     192 calls)

     Called by *cgdiagg:
     h_psi        :  35247.00s CPU  35580.21s WALL ( 4652114 calls)
     s_psi        :  23992.41s CPU  24142.47s WALL ( 9287532 calls)

     Called by h_psi:
     h_psi:calbec :   7684.47s CPU   7765.25s WALL ( 4652114 calls)
     vloc_psi     :  12831.82s CPU  13022.19s WALL ( 4652114 calls)
     add_vuspsi   :  14574.61s CPU  14646.72s WALL ( 4652114 calls)
     hs_1psi      :  44305.86s CPU  44650.27s WALL ( 4635418 calls)
     s_1psi       :  18031.97s CPU  18136.07s WALL ( 4635418 calls)

     General routines
     calbec       :  14037.46s CPU  14181.25s WALL ( 9304108 calls)
     fft          :      3.28s CPU      3.32s WALL (    1419 calls)
     ffts         :      0.30s CPU      0.30s WALL (     516 calls)
     fftw         :   7605.23s CPU   7697.34s WALL (27358832 calls)
     interpolate  :      0.93s CPU      0.94s WALL (     260 calls)
 
     Parallel routines
     fft_scatt_xy :   1190.81s CPU   1206.16s WALL (27360767 calls)
     fft_scatt_yz :   3645.67s CPU   3702.47s WALL (27360767 calls)

     PAW routines
     PAW_pot      :     29.66s CPU     29.88s WALL (      65 calls)
     PAW_symme    :      1.02s CPU      1.04s WALL (     129 calls)
 
     PWSCF        :     20h30m CPU     20h42m WALL

 
   This run was terminated on:  10: 4:41   7Sep2021            

=------------------------------------------------------------------------------=
   JOB DONE.
=------------------------------------------------------------------------------=
