MPI startup(): Warning: I_MPI_PMI_LIBRARY will be ignored since the hydra process manager was found
MPI startup(): Warning: I_MPI_PMI_LIBRARY will be ignored since the hydra process manager was found
MPI startup(): Warning: I_MPI_PMI_LIBRARY will be ignored since the hydra process manager was found
MPI startup(): Warning: I_MPI_PMI_LIBRARY will be ignored since the hydra process manager was found
MPI startup(): Warning: I_MPI_PMI_LIBRARY will be ignored since the hydra process manager was found
MPI startup(): Warning: I_MPI_PMI_LIBRARY will be ignored since the hydra process manager was found
MPI startup(): Warning: I_MPI_PMI_LIBRARY will be ignored since the hydra process manager was found
MPI startup(): Warning: I_MPI_PMI_LIBRARY will be ignored since the hydra process manager was found
MPI startup(): Warning: I_MPI_PMI_LIBRARY will be ignored since the hydra process manager was found
MPI startup(): Warning: I_MPI_PMI_LIBRARY will be ignored since the hydra process manager was found
MPI startup(): Warning: I_MPI_PMI_LIBRARY will be ignored since the hydra process manager was found
MPI startup(): Warning: I_MPI_PMI_LIBRARY will be ignored since the hydra process manager was found
MPI startup(): Warning: I_MPI_PMI_LIBRARY will be ignored since the hydra process manager was found
MPI startup(): Warning: I_MPI_PMI_LIBRARY will be ignored since the hydra process manager was found
MPI startup(): Warning: I_MPI_PMI_LIBRARY will be ignored since the hydra process manager was found
MPI startup(): Warning: I_MPI_PMI_LIBRARY will be ignored since the hydra process manager was found
MPI startup(): Warning: I_MPI_PMI_LIBRARY will be ignored since the hydra process manager was found
MPI startup(): Warning: I_MPI_PMI_LIBRARY will be ignored since the hydra process manager was found
MPI startup(): Warning: I_MPI_PMI_LIBRARY will be ignored since the hydra process manager was found
MPI startup(): Warning: I_MPI_PMI_LIBRARY will be ignored since the hydra process manager was found
MPI startup(): Warning: I_MPI_PMI_LIBRARY will be ignored since the hydra process manager was found
MPI startup(): Warning: I_MPI_PMI_LIBRARY will be ignored since the hydra process manager was found
MPI startup(): Warning: I_MPI_PMI_LIBRARY will be ignored since the hydra process manager was found
MPI startup(): Warning: I_MPI_PMI_LIBRARY will be ignored since the hydra process manager was found

     Program PWSCF v.6.7MaX starts on  1Aug2021 at 12:44:21 

     This program is part of the open-source Quantum ESPRESSO suite
     for quantum simulation of materials; please cite
         "P. Giannozzi et al., J. Phys.:Condens. Matter 21 395502 (2009);
         "P. Giannozzi et al., J. Phys.:Condens. Matter 29 465901 (2017);
          URL http://www.quantum-espresso.org", 
     in publications or presentations arising from this work. More details at
     http://www.quantum-espresso.org/quote

     Parallel version (MPI), running on    24 processors

     MPI processes distributed on     1 nodes
     R & G space division:  proc/nbgrp/npool/nimage =      24
     Waiting for input...
     Reading input from standard input

     Current dimensions of program PWSCF are:
     Max number of different atomic species (ntypx) = 10
     Max number of k-points (npk) =  40000
     Max angular momentum in pseudopotentials (lmaxx) =  3
     file Cr.rel-pbe-spn-kjpaw_psl.1.0.0.UPF: wavefunction(s)  3S 3P 3P 3D 3D renormalized
     file Si.rel-pbe-n-kjpaw_psl.1.0.0.UPF: wavefunction(s)  3S 3P 3P renormalized

     Subspace diagonalization in iterative solution of the eigenvalue problem:
     a serial algorithm will be used

     Message from routine setup:
     using ibrav=0 with symmetry is DISCOURAGED, use correct ibrav instead
 
     Parallelization info
     --------------------
     sticks:   dense  smooth     PW     G-vecs:    dense   smooth      PW
     Min         228      91     25                12702     3210     487
     Max         229      93     26                12704     3214     492
     Sum        5473    2201    621               304867    77053   11753
 


     bravais-lattice index     =            0
     lattice parameter (alat)  =       8.7475  a.u.
     unit-cell volume          =     669.3575 (a.u.)^3
     number of atoms/cell      =            8
     number of atomic types    =            2
     number of electrons       =        72.00
     number of Kohn-Sham states=           86
     kinetic-energy cutoff     =      90.0000  Ry
     charge density cutoff     =     900.0000  Ry
     scf convergence threshold =      1.0E-06
     mixing beta               =       0.7000
     number of iterations used =            8  plain     mixing
     Exchange-correlation= SLA  PW   PBX  PBC
                           (   1   4   3   4   0   0   0)
     Non magnetic calculation with spin-orbit


     celldm(1)=   8.747542  celldm(2)=   0.000000  celldm(3)=   0.000000
     celldm(4)=   0.000000  celldm(5)=   0.000000  celldm(6)=   0.000000

     crystal axes: (cart. coord. in units of alat)
               a(1) = (   1.000000   0.000000   0.000000 )  
               a(2) = (   0.000000   1.000000   0.000000 )  
               a(3) = (   0.000000   0.000000   1.000000 )  

     reciprocal axes: (cart. coord. in units 2 pi/alat)
               b(1) = (  1.000000  0.000000  0.000000 )  
               b(2) = (  0.000000  1.000000  0.000000 )  
               b(3) = (  0.000000  0.000000  1.000000 )  


     PseudoPot. # 1 for Cr read from file:
     ../../../../pseudo/Cr.rel-pbe-spn-kjpaw_psl.1.0.0.UPF
     MD5 check sum: 1e24e2b5251376a8b945118fca0c7981
     Pseudo is Projector augmented-wave + core cor, Zval = 14.0
     Generated using &quot;atomic&quot; code by A. Dal Corso  v.6.3
     Shape of augmentation charge: PSQ
     Using radial grid of 1183 points, 10 beta functions with: 
                l(1) =   0
                l(2) =   0
                l(3) =   1
                l(4) =   1
                l(5) =   1
                l(6) =   1
                l(7) =   2
                l(8) =   2
                l(9) =   2
               l(10) =   2
     Q(r) pseudized with 0 coefficients 


     PseudoPot. # 2 for Si read from file:
     ../../../../pseudo/Si.rel-pbe-n-kjpaw_psl.1.0.0.UPF
     MD5 check sum: d74f6caf6830ea4c2076867160cab1b0
     Pseudo is Projector augmented-wave + core cor, Zval =  4.0
     Generated using &quot;atomic&quot; code by A. Dal Corso  v.6.3
     Shape of augmentation charge: PSQ
     Using radial grid of 1141 points, 10 beta functions with: 
                l(1) =   0
                l(2) =   0
                l(3) =   1
                l(4) =   1
                l(5) =   1
                l(6) =   1
                l(7) =   2
                l(8) =   2
                l(9) =   2
               l(10) =   2
     Q(r) pseudized with 0 coefficients 


     atomic species   valence    mass     pseudopotential
        Cr            14.00    51.99600     Cr( 1.00)
        Si             4.00    28.08500     Si( 1.00)

     12 Sym. Ops. (no inversion) found ( 9 have fractional translation)


                                    s                        frac. trans.

      isym =  1     identity                                     

 cryst.   s( 1) = (     1          0          0      )
                  (     0          1          0      )
                  (     0          0          1      )

 cart.    s( 1) = (  1.0000000  0.0000000  0.0000000 )
                  (  0.0000000  1.0000000  0.0000000 )
                  (  0.0000000  0.0000000  1.0000000 )


      isym =  2     180 deg rotation - cart. axis [0,0,1]        

 cryst.   s( 2) = (    -1          0          0      )    f =(  0.5000000 )
                  (     0         -1          0      )       (  0.0000000 )
                  (     0          0          1      )       ( -0.5000000 )

 cart.    s( 2) = ( -1.0000000  0.0000000  0.0000000 )    f =(  0.5000000 )
                  (  0.0000000 -1.0000000  0.0000000 )       (  0.0000000 )
                  (  0.0000000  0.0000000  1.0000000 )       ( -0.5000000 )


      isym =  3     180 deg rotation - cart. axis [0,1,0]        

 cryst.   s( 3) = (    -1          0          0      )    f =(  0.0000000 )
                  (     0          1          0      )       ( -0.5000000 )
                  (     0          0         -1      )       (  0.5000000 )

 cart.    s( 3) = ( -1.0000000  0.0000000  0.0000000 )    f =(  0.0000000 )
                  (  0.0000000  1.0000000  0.0000000 )       ( -0.5000000 )
                  (  0.0000000  0.0000000 -1.0000000 )       (  0.5000000 )


      isym =  4     180 deg rotation - cart. axis [1,0,0]        

 cryst.   s( 4) = (     1          0          0      )    f =(  0.5000000 )
                  (     0         -1          0      )       (  0.5000000 )
                  (     0          0         -1      )       (  0.0000000 )

 cart.    s( 4) = (  1.0000000  0.0000000  0.0000000 )    f =(  0.5000000 )
                  (  0.0000000 -1.0000000  0.0000000 )       (  0.5000000 )
                  (  0.0000000  0.0000000 -1.0000000 )       (  0.0000000 )


      isym =  5     120 deg rotation - cart. axis [-1,-1,-1]     

 cryst.   s( 5) = (     0          0          1      )
                  (     1          0          0      )
                  (     0          1          0      )

 cart.    s( 5) = (  0.0000000  1.0000000  0.0000000 )
                  (  0.0000000  0.0000000  1.0000000 )
                  (  1.0000000  0.0000000  0.0000000 )


      isym =  6     120 deg rotation - cart. axis [-1,1,1]       

 cryst.   s( 6) = (     0          0         -1      )    f =(  0.0000000 )
                  (    -1          0          0      )       ( -0.5000000 )
                  (     0          1          0      )       (  0.5000000 )

 cart.    s( 6) = (  0.0000000 -1.0000000  0.0000000 )    f =(  0.0000000 )
                  (  0.0000000  0.0000000  1.0000000 )       ( -0.5000000 )
                  ( -1.0000000  0.0000000  0.0000000 )       (  0.5000000 )


      isym =  7     120 deg rotation - cart. axis [1,1,-1]       

 cryst.   s( 7) = (     0          0         -1      )    f =(  0.5000000 )
                  (     1          0          0      )       (  0.5000000 )
                  (     0         -1          0      )       (  0.0000000 )

 cart.    s( 7) = (  0.0000000  1.0000000  0.0000000 )    f =(  0.5000000 )
                  (  0.0000000  0.0000000 -1.0000000 )       (  0.5000000 )
                  ( -1.0000000  0.0000000  0.0000000 )       (  0.0000000 )


      isym =  8     120 deg rotation - cart. axis [1,-1,1]       

 cryst.   s( 8) = (     0          0          1      )    f =(  0.5000000 )
                  (    -1          0          0      )       (  0.0000000 )
                  (     0         -1          0      )       ( -0.5000000 )

 cart.    s( 8) = (  0.0000000 -1.0000000  0.0000000 )    f =(  0.5000000 )
                  (  0.0000000  0.0000000 -1.0000000 )       (  0.0000000 )
                  (  1.0000000  0.0000000  0.0000000 )       ( -0.5000000 )


      isym =  9     120 deg rotation - cart. axis [1,1,1]        

 cryst.   s( 9) = (     0          1          0      )
                  (     0          0          1      )
                  (     1          0          0      )

 cart.    s( 9) = (  0.0000000  0.0000000  1.0000000 )
                  (  1.0000000  0.0000000  0.0000000 )
                  (  0.0000000  1.0000000  0.0000000 )


      isym = 10     120 deg rotation - cart. axis [-1,1,-1]      

 cryst.   s(10) = (     0         -1          0      )    f =(  0.5000000 )
                  (     0          0         -1      )       (  0.5000000 )
                  (     1          0          0      )       (  0.0000000 )

 cart.    s(10) = (  0.0000000  0.0000000  1.0000000 )    f =(  0.5000000 )
                  ( -1.0000000  0.0000000  0.0000000 )       (  0.5000000 )
                  (  0.0000000 -1.0000000  0.0000000 )       (  0.0000000 )


      isym = 11     120 deg rotation - cart. axis [1,-1,-1]      

 cryst.   s(11) = (     0         -1          0      )    f =(  0.5000000 )
                  (     0          0          1      )       (  0.0000000 )
                  (    -1          0          0      )       ( -0.5000000 )

 cart.    s(11) = (  0.0000000  0.0000000 -1.0000000 )    f =(  0.5000000 )
                  ( -1.0000000  0.0000000  0.0000000 )       (  0.0000000 )
                  (  0.0000000  1.0000000  0.0000000 )       ( -0.5000000 )


      isym = 12     120 deg rotation - cart. axis [-1,-1,1]      

 cryst.   s(12) = (     0          1          0      )    f =(  0.0000000 )
                  (     0          0         -1      )       ( -0.5000000 )
                  (    -1          0          0      )       (  0.5000000 )

 cart.    s(12) = (  0.0000000  0.0000000 -1.0000000 )    f =(  0.0000000 )
                  (  1.0000000  0.0000000  0.0000000 )       ( -0.5000000 )
                  (  0.0000000 -1.0000000  0.0000000 )       (  0.5000000 )


   Cartesian axes

     site n.     atom                  positions (alat units)
         1           Cr  tau(   1) = (   0.8640000   0.3640000   0.1360000  )
         2           Cr  tau(   2) = (   0.3640000   0.1360000   0.8640000  )
         3           Cr  tau(   3) = (   0.1360000   0.8640000   0.3640000  )
         4           Cr  tau(   4) = (   0.6360000   0.6360000   0.6360000  )
         5           Si  tau(   5) = (   0.1540000   0.6540000   0.8460000  )
         6           Si  tau(   6) = (   0.6540000   0.8460000   0.1540000  )
         7           Si  tau(   7) = (   0.8460000   0.1540000   0.6540000  )
         8           Si  tau(   8) = (   0.3460000   0.3460000   0.3460000  )

   Crystallographic axes

     site n.     atom                  positions (cryst. coord.)
         1           Cr  tau(   1) = (  0.8640000  0.3640000  0.1360000  )
         2           Cr  tau(   2) = (  0.3640000  0.1360000  0.8640000  )
         3           Cr  tau(   3) = (  0.1360000  0.8640000  0.3640000  )
         4           Cr  tau(   4) = (  0.6360000  0.6360000  0.6360000  )
         5           Si  tau(   5) = (  0.1540000  0.6540000  0.8460000  )
         6           Si  tau(   6) = (  0.6540000  0.8460000  0.1540000  )
         7           Si  tau(   7) = (  0.8460000  0.1540000  0.6540000  )
         8           Si  tau(   8) = (  0.3460000  0.3460000  0.3460000  )

     number of k points=    24  Methfessel-Paxton smearing, width (Ry)=  0.0200
                       cart. coord. in units 2pi/alat
        k(    1) = (   0.0000000   0.0000000   0.0000000), wk =   0.0046296
        k(    2) = (   0.0000000   0.0000000   0.1666667), wk =   0.0277778
        k(    3) = (   0.0000000   0.0000000   0.3333333), wk =   0.0277778
        k(    4) = (   0.0000000   0.0000000  -0.5000000), wk =   0.0138889
        k(    5) = (   0.0000000   0.1666667   0.1666667), wk =   0.0555556
        k(    6) = (   0.0000000   0.1666667   0.3333333), wk =   0.0555556
        k(    7) = (   0.0000000   0.1666667  -0.5000000), wk =   0.0277778
        k(    8) = (   0.0000000   0.3333333   0.3333333), wk =   0.0555556
        k(    9) = (   0.0000000   0.3333333  -0.5000000), wk =   0.0277778
        k(   10) = (   0.0000000  -0.5000000  -0.5000000), wk =   0.0138889
        k(   11) = (   0.1666667   0.1666667   0.1666667), wk =   0.0370370
        k(   12) = (   0.1666667   0.1666667   0.3333333), wk =   0.1111111
        k(   13) = (   0.1666667   0.1666667  -0.5000000), wk =   0.0555556
        k(   14) = (   0.1666667   0.3333333   0.3333333), wk =   0.1111111
        k(   15) = (   0.1666667   0.3333333  -0.5000000), wk =   0.0555556
        k(   16) = (   0.1666667  -0.5000000  -0.5000000), wk =   0.0277778
        k(   17) = (   0.3333333   0.3333333   0.3333333), wk =   0.0370370
        k(   18) = (   0.3333333   0.3333333  -0.5000000), wk =   0.0555556
        k(   19) = (   0.3333333  -0.5000000  -0.5000000), wk =   0.0277778
        k(   20) = (  -0.5000000  -0.5000000  -0.5000000), wk =   0.0046296
        k(   21) = (   0.0000000   0.3333333   0.1666667), wk =   0.0555556
        k(   22) = (   0.0000000  -0.5000000   0.1666667), wk =   0.0277778
        k(   23) = (   0.0000000  -0.5000000   0.3333333), wk =   0.0277778
        k(   24) = (  -0.1666667  -0.5000000   0.3333333), wk =   0.0555556

                       cryst. coord.
        k(    1) = (   0.0000000   0.0000000   0.0000000), wk =   0.0046296
        k(    2) = (   0.0000000   0.0000000   0.1666667), wk =   0.0277778
        k(    3) = (   0.0000000   0.0000000   0.3333333), wk =   0.0277778
        k(    4) = (   0.0000000   0.0000000  -0.5000000), wk =   0.0138889
        k(    5) = (   0.0000000   0.1666667   0.1666667), wk =   0.0555556
        k(    6) = (   0.0000000   0.1666667   0.3333333), wk =   0.0555556
        k(    7) = (   0.0000000   0.1666667  -0.5000000), wk =   0.0277778
        k(    8) = (   0.0000000   0.3333333   0.3333333), wk =   0.0555556
        k(    9) = (   0.0000000   0.3333333  -0.5000000), wk =   0.0277778
        k(   10) = (   0.0000000  -0.5000000  -0.5000000), wk =   0.0138889
        k(   11) = (   0.1666667   0.1666667   0.1666667), wk =   0.0370370
        k(   12) = (   0.1666667   0.1666667   0.3333333), wk =   0.1111111
        k(   13) = (   0.1666667   0.1666667  -0.5000000), wk =   0.0555556
        k(   14) = (   0.1666667   0.3333333   0.3333333), wk =   0.1111111
        k(   15) = (   0.1666667   0.3333333  -0.5000000), wk =   0.0555556
        k(   16) = (   0.1666667  -0.5000000  -0.5000000), wk =   0.0277778
        k(   17) = (   0.3333333   0.3333333   0.3333333), wk =   0.0370370
        k(   18) = (   0.3333333   0.3333333  -0.5000000), wk =   0.0555556
        k(   19) = (   0.3333333  -0.5000000  -0.5000000), wk =   0.0277778
        k(   20) = (  -0.5000000  -0.5000000  -0.5000000), wk =   0.0046296
        k(   21) = (   0.0000000   0.3333333   0.1666667), wk =   0.0555556
        k(   22) = (   0.0000000  -0.5000000   0.1666667), wk =   0.0277778
        k(   23) = (   0.0000000  -0.5000000   0.3333333), wk =   0.0277778
        k(   24) = (  -0.1666667  -0.5000000   0.3333333), wk =   0.0555556

     Dense  grid:   304867 G-vectors     FFT dimensions: (  90,  90,  90)

     Smooth grid:    77053 G-vectors     FFT dimensions: (  54,  54,  54)

     Dynamical RAM for                 wfc:       1.06 MB

     Dynamical RAM for     wfc (w. buffer):      26.38 MB

     Dynamical RAM for           str. fact:       0.39 MB

     Dynamical RAM for           local pot:       0.00 MB

     Dynamical RAM for          nlocal pot:       1.67 MB

     Dynamical RAM for                qrad:      12.61 MB

     Dynamical RAM for          rho,v,vnew:       5.29 MB

     Dynamical RAM for               rhoin:       1.76 MB

     Dynamical RAM for            rho*nmix:      12.41 MB

     Dynamical RAM for           G-vectors:       0.75 MB

     Dynamical RAM for          h,s,v(r/c):       1.35 MB

     Dynamical RAM for          <psi|beta>:       0.71 MB

     Dynamical RAM for                 psi:       2.11 MB

     Dynamical RAM for                hpsi:       2.11 MB

     Dynamical RAM for                spsi:       2.11 MB

     Dynamical RAM for      wfcinit/wfcrot:       2.35 MB

     Dynamical RAM for           addusdens:     119.02 MB

     Dynamical RAM for          addusforce:     120.34 MB

     Dynamical RAM for         addusstress:     121.74 MB

     Estimated static dynamical RAM per process >      63.81 MB

     Estimated max dynamical RAM per process >     185.55 MB

     Estimated total dynamical RAM >       4.35 GB

     Initial potential from superposition of free atoms

     starting charge   71.99469, renormalised to   72.00000
     Starting wfcs are  112 randomized atomic wfcs
     Checking if some PAW data can be deallocated... 
       PAW data deallocated on   12 nodes for type:  1
       PAW data deallocated on   12 nodes for type:  2

     total cpu time spent up to now is        7.6 secs

     Self-consistent Calculation

     iteration #  1     ecut=    90.00 Ry     beta= 0.70
     Davidson diagonalization with overlap
     ethr =  1.00E-02,  avg # of iterations =  2.0

     Threshold (ethr) on eigenvalues was too large:
     Diagonalizing with lowered threshold

     Davidson diagonalization with overlap
     ethr =  2.09E-04,  avg # of iterations =  4.5

     total cpu time spent up to now is       31.5 secs

     total energy              =   -1180.30981496 Ry
     estimated scf accuracy    <       0.18820474 Ry

     iteration #  2     ecut=    90.00 Ry     beta= 0.70
     Davidson diagonalization with overlap
     ethr =  2.61E-04,  avg # of iterations =  3.1

     total cpu time spent up to now is       43.9 secs

     total energy              =   -1180.31749645 Ry
     estimated scf accuracy    <       0.07412322 Ry

     iteration #  3     ecut=    90.00 Ry     beta= 0.70
     Davidson diagonalization with overlap
     ethr =  1.03E-04,  avg # of iterations =  5.0

     total cpu time spent up to now is       58.9 secs

     total energy              =   -1180.32658933 Ry
     estimated scf accuracy    <       0.15556781 Ry

     iteration #  4     ecut=    90.00 Ry     beta= 0.70
     Davidson diagonalization with overlap
     ethr =  1.03E-04,  avg # of iterations =  4.1

     total cpu time spent up to now is       71.3 secs

     total energy              =   -1180.34994248 Ry
     estimated scf accuracy    <       0.00053949 Ry

     iteration #  5     ecut=    90.00 Ry     beta= 0.70
     Davidson diagonalization with overlap
     ethr =  7.49E-07,  avg # of iterations =  7.7

     total cpu time spent up to now is       88.5 secs

     total energy              =   -1180.35049119 Ry
     estimated scf accuracy    <       0.00018800 Ry

     iteration #  6     ecut=    90.00 Ry     beta= 0.70
     Davidson diagonalization with overlap
     ethr =  2.61E-07,  avg # of iterations =  3.2

     total cpu time spent up to now is       99.6 secs

     End of self-consistent calculation

          k = 0.0000 0.0000 0.0000 (  9771 PWs)   bands (ev):

   -56.5090 -56.5090 -56.4743 -56.4743 -56.4743 -56.4743 -56.4743 -56.4743
   -28.5743 -28.5743 -28.5670 -28.5670 -28.5670 -28.5670 -28.4776 -28.4776
   -27.6084 -27.6084 -27.6084 -27.6084 -27.5319 -27.5319 -27.5319 -27.5319
   -27.5283 -27.5283 -27.4459 -27.4459 -27.4451 -27.4451 -27.4451 -27.4451
     2.6977   2.6977   7.4562   7.4562   7.4562   7.4562   7.4654   7.4654
    10.5373  10.5373  10.5453  10.5453  10.5453  10.5453  11.9119  11.9119
    11.9119  11.9119  11.9229  11.9229  12.6044  12.6044  12.7736  12.7736
    12.7736  12.7736  13.1475  13.1475  13.1475  13.1475  13.1485  13.1485
    13.6747  13.6747  13.6747  13.6747  13.6784  13.6784  15.5559  15.5559
    15.5872  15.5872  15.5872  15.5872  15.7720  15.7720  15.7720  15.7720
    16.6693  16.6693  16.6996  16.6996  16.6996  16.6996

     occupation numbers 
     1.0000   1.0000   1.0000   1.0000   1.0000   1.0000   1.0000   1.0000
     1.0000   1.0000   1.0000   1.0000   1.0000   1.0000   1.0000   1.0000
     1.0000   1.0000   1.0000   1.0000   1.0000   1.0000   1.0000   1.0000
     1.0000   1.0000   1.0000   1.0000   1.0000   1.0000   1.0000   1.0000
     1.0000   1.0000   1.0000   1.0000   1.0000   1.0000   1.0000   1.0000
     1.0000   1.0000   1.0000   1.0000   1.0000   1.0000   1.0000   1.0000
     1.0000   1.0000   1.0000   1.0000   1.0000   1.0000   1.0000   1.0000
     1.0000   1.0000   1.0000   1.0000   1.0000   1.0000   1.0000   1.0000
     1.0000   1.0000   1.0000   1.0000   1.0000   1.0000  -0.0038  -0.0038
    -0.0024  -0.0024  -0.0024  -0.0024  -0.0001  -0.0001  -0.0001  -0.0001
    -0.0000  -0.0000  -0.0000  -0.0000  -0.0000  -0.0000

          k = 0.0000 0.0000 0.1667 (  9663 PWs)   bands (ev):

   -56.5073 -56.5073 -56.4800 -56.4800 -56.4738 -56.4738 -56.4710 -56.4710
   -28.5820 -28.5752 -28.5712 -28.5705 -28.5564 -28.5532 -28.4827 -28.4826
   -27.6251 -27.6170 -27.5954 -27.5876 -27.5448 -27.5388 -27.5355 -27.5256
   -27.5228 -27.5112 -27.4560 -27.4538 -27.4509 -27.4439 -27.4429 -27.4378
     2.8898   2.8898   6.5391   6.5417   7.5624   7.5643   8.1192   8.1285
     9.9484   9.9526  10.6630  10.6655  11.0719  11.0748  11.2878  11.2885
    11.5006  11.5054  12.4508  12.4611  12.7405  12.7627  12.8043  12.8109
    13.0133  13.0166  13.1116  13.1141  13.2009  13.2030  13.2317  13.2320
    13.5344  13.5444  13.6347  13.6372  13.9662  13.9667  15.2977  15.3187
    15.4217  15.4292  15.6987  15.7082  15.7539  15.7723  15.7961  15.8217
    16.4111  16.4266  16.5991  16.6066  16.9938  17.0144

     occupation numbers 
     1.0000   1.0000   1.0000   1.0000   1.0000   1.0000   1.0000   1.0000
     1.0000   1.0000   1.0000   1.0000   1.0000   1.0000   1.0000   1.0000
     1.0000   1.0000   1.0000   1.0000   1.0000   1.0000   1.0000   1.0000
     1.0000   1.0000   1.0000   1.0000   1.0000   1.0000   1.0000   1.0000
     1.0000   1.0000   1.0000   1.0000   1.0000   1.0000   1.0000   1.0000
     1.0000   1.0000   1.0000   1.0000   1.0000   1.0000   1.0000   1.0000
     1.0000   1.0000   1.0000   1.0000   1.0000   1.0000   1.0000   1.0000
     1.0000   1.0000   1.0000   1.0000   1.0000   1.0000   1.0000   1.0000
     1.0000   1.0000   1.0000   1.0000   1.0000   1.0000  -0.0353  -0.0338
    -0.0178  -0.0166  -0.0004  -0.0003  -0.0001  -0.0001  -0.0001  -0.0000
    -0.0000  -0.0000  -0.0000  -0.0000  -0.0000  -0.0000

          k = 0.0000 0.0000 0.3333 (  9606 PWs)   bands (ev):

   -56.5023 -56.5023 -56.4873 -56.4873 -56.4723 -56.4723 -56.4700 -56.4700
   -28.5846 -28.5781 -28.5768 -28.5731 -28.5375 -28.5351 -28.4966 -28.4961
   -27.6328 -27.6249 -27.5771 -27.5727 -27.5573 -27.5373 -27.5321 -27.5236
   -27.5214 -27.4919 -27.4732 -27.4605 -27.4576 -27.4465 -27.4421 -27.4360
     3.4502   3.4502   5.4192   5.4200   7.8597   7.8637   8.5097   8.5193
     9.6515   9.6530  10.6591  10.6614  10.7711  10.7835  11.0446  11.0475
    11.8641  11.8661  12.1357  12.1514  12.8398  12.8560  12.9348  12.9442
    13.1180  13.1239  13.1738  13.1789  13.2616  13.2644  13.3965  13.3989
    13.4544  13.4564  13.9189  13.9227  14.1202  14.1270  14.8931  14.9272
    15.3629  15.3714  15.5415  15.5598  15.7496  15.7779  15.8586  15.8827
    16.1989  16.2147  16.3746  16.3882  17.3088  17.3249

     occupation numbers 
     1.0000   1.0000   1.0000   1.0000   1.0000   1.0000   1.0000   1.0000
     1.0000   1.0000   1.0000   1.0000   1.0000   1.0000   1.0000   1.0000
     1.0000   1.0000   1.0000   1.0000   1.0000   1.0000   1.0000   1.0000
     1.0000   1.0000   1.0000   1.0000   1.0000   1.0000   1.0000   1.0000
     1.0000   1.0000   1.0000   1.0000   1.0000   1.0000   1.0000   1.0000
     1.0000   1.0000   1.0000   1.0000   1.0000   1.0000   1.0000   1.0000
     1.0000   1.0000   1.0000   1.0000   1.0000   1.0000   1.0000   1.0000
     1.0000   1.0000   1.0000   1.0000   1.0000   1.0000   1.0000   1.0000
     1.0000   1.0000   1.0000   1.0000   1.0001   1.0001   0.6855   0.5841
    -0.0276  -0.0262  -0.0047  -0.0036  -0.0001  -0.0001  -0.0000  -0.0000
    -0.0000  -0.0000  -0.0000  -0.0000  -0.0000  -0.0000

          k = 0.0000 0.0000-0.5000 (  9658 PWs)   bands (ev):

   -56.4952 -56.4952 -56.4952 -56.4952 -56.4708 -56.4708 -56.4708 -56.4708
   -28.5822 -28.5822 -28.5766 -28.5766 -28.5163 -28.5163 -28.5149 -28.5149
   -27.6317 -27.6317 -27.5671 -27.5671 -27.5518 -27.5518 -27.5286 -27.5286
   -27.4983 -27.4983 -27.4743 -27.4743 -27.4524 -27.4524 -27.4389 -27.4389
     4.3277   4.3277   4.3278   4.3279   8.2824   8.2824   8.2888   8.2888
    10.0167  10.0167  10.0207  10.0207  10.8978  10.8978  10.9091  10.9091
    12.2488  12.2488  12.2554  12.2554  12.6869  12.6869  12.6994  12.6994
    13.1450  13.1450  13.1454  13.1454  13.2409  13.2409  13.2445  13.2445
    13.7853  13.7853  13.7884  13.7884  14.5685  14.5685  14.5971  14.5971
    15.4067  15.4068  15.4246  15.4246  15.8109  15.8110  15.8407  15.8407
    16.1701  16.1702  16.1838  16.1839  17.5480  17.5511

     occupation numbers 
     1.0000   1.0000   1.0000   1.0000   1.0000   1.0000   1.0000   1.0000
     1.0000   1.0000   1.0000   1.0000   1.0000   1.0000   1.0000   1.0000
     1.0000   1.0000   1.0000   1.0000   1.0000   1.0000   1.0000   1.0000
     1.0000   1.0000   1.0000   1.0000   1.0000   1.0000   1.0000   1.0000
     1.0000   1.0000   1.0000   1.0000   1.0000   1.0000   1.0000   1.0000
     1.0000   1.0000   1.0000   1.0000   1.0000   1.0000   1.0000   1.0000
     1.0000   1.0000   1.0000   1.0000   1.0000   1.0000   1.0000   1.0000
     1.0000   1.0000   1.0000   1.0000   1.0000   1.0000   1.0000   1.0000
     1.0000   1.0000   1.0000   1.0000   1.0311   1.0311   1.0344   1.0344
    -0.0202  -0.0202  -0.0174  -0.0174  -0.0000  -0.0000  -0.0000  -0.0000
    -0.0000  -0.0000  -0.0000  -0.0000  -0.0000  -0.0000

          k = 0.0000 0.1667 0.1667 (  9657 PWs)   bands (ev):

   -56.5056 -56.5056 -56.4818 -56.4818 -56.4744 -56.4744 -56.4702 -56.4702
   -28.5838 -28.5781 -28.5689 -28.5688 -28.5526 -28.5489 -28.4874 -28.4873
   -27.6259 -27.6217 -27.5862 -27.5822 -27.5459 -27.5426 -27.5388 -27.5311
   -27.5147 -27.5020 -27.4648 -27.4611 -27.4539 -27.4449 -27.4383 -27.4341
     3.0794   3.0794   6.3964   6.4008   7.2070   7.2114   8.4065   8.4119
     9.8327   9.8361  10.5098  10.5122  10.7876  10.7888  11.3579  11.3609
    11.7804  11.7807  12.4131  12.4188  12.5892  12.5969  12.9965  12.9978
    13.0931  13.1013  13.1754  13.1762  13.2469  13.2535  13.3392  13.3442
    13.4697  13.4775  13.7352  13.7493  14.0777  14.0851  15.2558  15.2775
    15.3054  15.3247  15.5407  15.5527  15.7010  15.7220  15.8184  15.8428
    16.2813  16.2983  16.6108  16.6205  17.0360  17.0707

     occupation numbers 
     1.0000   1.0000   1.0000   1.0000   1.0000   1.0000   1.0000   1.0000
     1.0000   1.0000   1.0000   1.0000   1.0000   1.0000   1.0000   1.0000
     1.0000   1.0000   1.0000   1.0000   1.0000   1.0000   1.0000   1.0000
     1.0000   1.0000   1.0000   1.0000   1.0000   1.0000   1.0000   1.0000
     1.0000   1.0000   1.0000   1.0000   1.0000   1.0000   1.0000   1.0000
     1.0000   1.0000   1.0000   1.0000   1.0000   1.0000   1.0000   1.0000
     1.0000   1.0000   1.0000   1.0000   1.0000   1.0000   1.0000   1.0000
     1.0000   1.0000   1.0000   1.0000   1.0000   1.0000   1.0000   1.0000
     1.0000   1.0000   1.0000   1.0000   1.0000   1.0000  -0.0330  -0.0352
    -0.0349  -0.0331  -0.0047  -0.0040  -0.0004  -0.0002  -0.0000  -0.0000
    -0.0000  -0.0000  -0.0000  -0.0000  -0.0000  -0.0000

          k = 0.0000 0.1667 0.3333 (  9647 PWs)   bands (ev):

   -56.5010 -56.5010 -56.4874 -56.4874 -56.4734 -56.4734 -56.4702 -56.4702
   -28.5837 -28.5787 -28.5726 -28.5705 -28.5381 -28.5356 -28.5005 -28.5002
   -27.6291 -27.6237 -27.5752 -27.5697 -27.5559 -27.5424 -27.5358 -27.5282
   -27.5160 -27.4881 -27.4821 -27.4665 -27.4597 -27.4480 -27.4347 -27.4309
     3.6319   3.6321   5.5368   5.5385   7.3623   7.3650   8.4324   8.4357
     9.7329   9.7361  10.1893  10.1936  10.9880  10.9910  11.3853  11.3949
    11.7533  11.7576  12.1902  12.1990  12.5958  12.6035  12.8782  12.8870
    13.1151  13.1245  13.2549  13.2607  13.3819  13.3832  13.5289  13.5389
    13.5914  13.6045  13.9915  14.0021  14.2461  14.2585  14.9128  14.9438
    15.2292  15.2479  15.3500  15.3600  15.6591  15.6842  15.8102  15.8405
    16.1559  16.1653  16.4432  16.4563  17.2396  17.2726

     occupation numbers 
     1.0000   1.0000   1.0000   1.0000   1.0000   1.0000   1.0000   1.0000
     1.0000   1.0000   1.0000   1.0000   1.0000   1.0000   1.0000   1.0000
     1.0000   1.0000   1.0000   1.0000   1.0000   1.0000   1.0000   1.0000
     1.0000   1.0000   1.0000   1.0000   1.0000   1.0000   1.0000   1.0000
     1.0000   1.0000   1.0000   1.0000   1.0000   1.0000   1.0000   1.0000
     1.0000   1.0000   1.0000   1.0000   1.0000   1.0000   1.0000   1.0000
     1.0000   1.0000   1.0000   1.0000   1.0000   1.0000   1.0000   1.0000
     1.0000   1.0000   1.0000   1.0000   1.0000   1.0000   1.0000   1.0000
     1.0000   1.0000   1.0000   1.0000   1.0007   1.0009   0.6277   0.5329
    -0.0261  -0.0315  -0.0297  -0.0281  -0.0008  -0.0005  -0.0000  -0.0000
    -0.0000  -0.0000  -0.0000  -0.0000  -0.0000  -0.0000

          k = 0.0000 0.1667-0.5000 (  9654 PWs)   bands (ev):

   -56.4944 -56.4944 -56.4944 -56.4944 -56.4716 -56.4716 -56.4716 -56.4716
   -28.5799 -28.5799 -28.5745 -28.5745 -28.5196 -28.5196 -28.5170 -28.5170
   -27.6274 -27.6274 -27.5671 -27.5671 -27.5525 -27.5525 -27.5281 -27.5281
   -27.5062 -27.5062 -27.4744 -27.4744 -27.4550 -27.4550 -27.4318 -27.4318
     4.4924   4.4924   4.4931   4.4931   7.8946   7.8946   7.9015   7.9015
    10.0150  10.0150  10.0189  10.0189  11.1032  11.1032  11.1173  11.1173
    12.0916  12.0916  12.0962  12.0962  12.5415  12.5415  12.5572  12.5572
    13.2788  13.2788  13.2796  13.2796  13.3940  13.3940  13.3952  13.3952
    13.8690  13.8690  13.8730  13.8730  14.6237  14.6237  14.6551  14.6551
    15.2424  15.2424  15.2571  15.2571  15.7189  15.7190  15.7487  15.7487
    16.2437  16.2437  16.2544  16.2544  17.4869  17.4901

     occupation numbers 
     1.0000   1.0000   1.0000   1.0000   1.0000   1.0000   1.0000   1.0000
     1.0000   1.0000   1.0000   1.0000   1.0000   1.0000   1.0000   1.0000
     1.0000   1.0000   1.0000   1.0000   1.0000   1.0000   1.0000   1.0000
     1.0000   1.0000   1.0000   1.0000   1.0000   1.0000   1.0000   1.0000
     1.0000   1.0000   1.0000   1.0000   1.0000   1.0000   1.0000   1.0000
     1.0000   1.0000   1.0000   1.0000   1.0000   1.0000   1.0000   1.0000
     1.0000   1.0000   1.0000   1.0000   1.0000   1.0000   1.0000   1.0000
     1.0000   1.0000   1.0000   1.0000   1.0000   1.0000   1.0000   1.0000
     1.0000   1.0000   1.0000   1.0000   1.0354   1.0354   1.0326   1.0326
    -0.0302  -0.0302  -0.0332  -0.0332  -0.0003  -0.0003  -0.0001  -0.0001
    -0.0000  -0.0000  -0.0000  -0.0000  -0.0000  -0.0000

          k = 0.0000 0.3333 0.3333 (  9619 PWs)   bands (ev):

   -56.4973 -56.4973 -56.4888 -56.4888 -56.4744 -56.4744 -56.4715 -56.4715
   -28.5798 -28.5759 -28.5689 -28.5679 -28.5358 -28.5336 -28.5114 -28.5106
   -27.6207 -27.6194 -27.5762 -27.5705 -27.5518 -27.5441 -27.5329 -27.5311
   -27.5148 -27.4961 -27.4937 -27.4823 -27.4536 -27.4397 -27.4304 -27.4271
     4.1574   4.1578   5.6389   5.6410   6.6778   6.6806   7.8193   7.8230
    10.0316  10.0343  10.3054  10.3084  10.9415  10.9433  11.2587  11.2609
    11.8954  11.9021  12.1592  12.1637  12.3109  12.3205  12.6298  12.6377
    13.1822  13.1905  13.3934  13.3984  13.5630  13.5658  13.7227  13.7281
    13.8862  13.8979  14.0970  14.1097  14.4907  14.5164  14.8516  14.8633
    14.9447  14.9650  15.0617  15.0783  15.5271  15.5502  15.6070  15.6369
    16.2366  16.2454  16.4936  16.5005  17.1508  17.1814

     occupation numbers 
     1.0000   1.0000   1.0000   1.0000   1.0000   1.0000   1.0000   1.0000
     1.0000   1.0000   1.0000   1.0000   1.0000   1.0000   1.0000   1.0000
     1.0000   1.0000   1.0000   1.0000   1.0000   1.0000   1.0000   1.0000
     1.0000   1.0000   1.0000   1.0000   1.0000   1.0000   1.0000   1.0000
     1.0000   1.0000   1.0000   1.0000   1.0000   1.0000   1.0000   1.0000
     1.0000   1.0000   1.0000   1.0000   1.0000   1.0000   1.0000   1.0000
     1.0000   1.0000   1.0000   1.0000   1.0000   1.0000   1.0000   1.0000
     1.0000   1.0000   1.0000   1.0000   1.0000   1.0000   1.0000   1.0000
     1.0000   1.0000   1.0000   1.0001   1.0184   1.0226   0.7959   0.7667
     0.5303   0.4671   0.1934   0.1554  -0.0056  -0.0041  -0.0018  -0.0011
    -0.0000  -0.0000  -0.0000  -0.0000  -0.0000  -0.0000

          k = 0.0000 0.3333-0.5000 (  9646 PWs)   bands (ev):

   -56.4926 -56.4926 -56.4926 -56.4926 -56.4734 -56.4734 -56.4734 -56.4734
   -28.5740 -28.5740 -28.5699 -28.5699 -28.5260 -28.5260 -28.5231 -28.5231
   -27.6153 -27.6153 -27.5785 -27.5785 -27.5441 -27.5441 -27.5261 -27.5261
   -27.5146 -27.5146 -27.4932 -27.4932 -27.4422 -27.4422 -27.4276 -27.4276
     4.9485   4.9485   4.9499   4.9499   7.0279   7.0279   7.0328   7.0328
    10.3309  10.3309  10.3329  10.3329  11.2384  11.2384  11.2468  11.2468
    11.7618  11.7618  11.7673  11.7673  12.3352  12.3353  12.3426  12.3426
    13.3695  13.3695  13.3766  13.3766  13.6777  13.6777  13.6864  13.6864
    14.1733  14.1733  14.1789  14.1789  14.6142  14.6142  14.6334  14.6334
    14.9471  14.9471  14.9620  14.9620  15.5026  15.5026  15.5268  15.5268
    16.4443  16.4443  16.4551  16.4551  17.1987  17.1992

     occupation numbers 
     1.0000   1.0000   1.0000   1.0000   1.0000   1.0000   1.0000   1.0000
     1.0000   1.0000   1.0000   1.0000   1.0000   1.0000   1.0000   1.0000
     1.0000   1.0000   1.0000   1.0000   1.0000   1.0000   1.0000   1.0000
     1.0000   1.0000   1.0000   1.0000   1.0000   1.0000   1.0000   1.0000
     1.0000   1.0000   1.0000   1.0000   1.0000   1.0000   1.0000   1.0000
     1.0000   1.0000   1.0000   1.0000   1.0000   1.0000   1.0000   1.0000
     1.0000   1.0000   1.0000   1.0000   1.0000   1.0000   1.0000   1.0000
     1.0000   1.0000   1.0000   1.0000   1.0000   1.0000   1.0000   1.0000
     1.0002   1.0002   1.0002   1.0002   1.0354   1.0354   1.0351   1.0351
     0.5227   0.5227   0.4765   0.4765  -0.0076  -0.0076  -0.0056  -0.0056
    -0.0000  -0.0000  -0.0000  -0.0000  -0.0000  -0.0000

          k = 0.0000-0.5000-0.5000 (  9580 PWs)   bands (ev):

   -56.4916 -56.4916 -56.4916 -56.4916 -56.4744 -56.4744 -56.4744 -56.4744
   -28.5688 -28.5688 -28.5688 -28.5688 -28.5282 -28.5282 -28.5282 -28.5282
   -27.5976 -27.5976 -27.5976 -27.5976 -27.5306 -27.5306 -27.5306 -27.5306
   -27.5111 -27.5111 -27.5111 -27.5111 -27.4314 -27.4314 -27.4314 -27.4314
     5.3703   5.3703   5.3703   5.3703   6.4271   6.4271   6.4271   6.4271
    10.7063  10.7063  10.7063  10.7063  11.2440  11.2440  11.2440  11.2440
    11.3856  11.3856  11.3856  11.3856  12.2856  12.2856  12.2856  12.2856
    13.3645  13.3645  13.3645  13.3645  14.0101  14.0101  14.0101  14.0101
    14.2979  14.2979  14.2979  14.2979  14.5284  14.5284  14.5284  14.5284
    14.7608  14.7608  14.7608  14.7608  15.4221  15.4221  15.4221  15.4221
    16.5911  16.5911  16.5911  16.5911  16.9885  16.9887

     occupation numbers 
     1.0000   1.0000   1.0000   1.0000   1.0000   1.0000   1.0000   1.0000
     1.0000   1.0000   1.0000   1.0000   1.0000   1.0000   1.0000   1.0000
     1.0000   1.0000   1.0000   1.0000   1.0000   1.0000   1.0000   1.0000
     1.0000   1.0000   1.0000   1.0000   1.0000   1.0000   1.0000   1.0000
     1.0000   1.0000   1.0000   1.0000   1.0000   1.0000   1.0000   1.0000
     1.0000   1.0000   1.0000   1.0000   1.0000   1.0000   1.0000   1.0000
     1.0000   1.0000   1.0000   1.0000   1.0000   1.0000   1.0000   1.0000
     1.0000   1.0000   1.0000   1.0000   1.0000   1.0000   1.0000   1.0000
     1.0017   1.0017   1.0017   1.0017   1.0247   1.0247   1.0247   1.0247
     0.9639   0.9639   0.9639   0.9639  -0.0177  -0.0177  -0.0177  -0.0177
    -0.0000  -0.0000  -0.0000  -0.0000  -0.0000  -0.0000

          k = 0.1667 0.1667 0.1667 (  9627 PWs)   bands (ev):

   -56.5040 -56.5040 -56.4829 -56.4829 -56.4750 -56.4750 -56.4700 -56.4700
   -28.5842 -28.5789 -28.5670 -28.5669 -28.5505 -28.5466 -28.4921 -28.4917
   -27.6253 -27.6229 -27.5837 -27.5747 -27.5463 -27.5420 -27.5417 -27.5383
   -27.5089 -27.4968 -27.4742 -27.4615 -27.4545 -27.4505 -27.4332 -27.4328
     3.2665   3.2666   6.3441   6.3508   7.0376   7.0463   8.3230   8.3253
     9.7322   9.7349  10.5179  10.5187  10.5472  10.5485  11.3861  11.3916
    11.9884  11.9890  12.3210  12.3292  12.8300  12.8353  12.8359  12.8422
    13.1048  13.1102  13.1367  13.1368  13.2127  13.2187  13.5242  13.5293
    13.6031  13.6125  13.7858  13.7913  14.1547  14.1633  15.2083  15.2229
    15.2762  15.2909  15.4749  15.4760  15.5276  15.5432  15.7964  15.8111
    16.2277  16.2445  16.6062  16.6178  17.0503  17.0905

     occupation numbers 
     1.0000   1.0000   1.0000   1.0000   1.0000   1.0000   1.0000   1.0000
     1.0000   1.0000   1.0000   1.0000   1.0000   1.0000   1.0000   1.0000
     1.0000   1.0000   1.0000   1.0000   1.0000   1.0000   1.0000   1.0000
     1.0000   1.0000   1.0000   1.0000   1.0000   1.0000   1.0000   1.0000
     1.0000   1.0000   1.0000   1.0000   1.0000   1.0000   1.0000   1.0000
     1.0000   1.0000   1.0000   1.0000   1.0000   1.0000   1.0000   1.0000
     1.0000   1.0000   1.0000   1.0000   1.0000   1.0000   1.0000   1.0000
     1.0000   1.0000   1.0000   1.0000   1.0000   1.0000   1.0000   1.0000
     1.0000   1.0000   1.0000   1.0000   1.0001   1.0002  -0.0167  -0.0237
    -0.0352  -0.0354  -0.0105  -0.0104  -0.0056  -0.0045  -0.0001  -0.0000
    -0.0000  -0.0000  -0.0000  -0.0000  -0.0000  -0.0000

          k = 0.1667 0.1667 0.3333 (  9629 PWs)   bands (ev):

   -56.4997 -56.4997 -56.4873 -56.4873 -56.4744 -56.4744 -56.4707 -56.4707
   -28.5823 -28.5778 -28.5697 -28.5681 -28.5392 -28.5365 -28.5046 -28.5038
   -27.6259 -27.6216 -27.5748 -27.5665 -27.5546 -27.5453 -27.5382 -27.5338
   -27.5107 -27.4979 -27.4755 -27.4654 -27.4631 -27.4515 -27.4310 -27.4293
     3.8108   3.8110   5.6513   5.6535   7.1820   7.1860   8.2385   8.2421
     9.3518   9.3543  10.2217  10.2241  10.9247  10.9284  11.4683  11.4716
    11.8296  11.8338  12.2187  12.2208  12.7520  12.7610  12.9463  12.9525
    13.0801  13.0888  13.1980  13.2065  13.2949  13.2984  13.5463  13.5531
    13.7643  13.7696  14.0149  14.0239  14.3544  14.3717  14.9094  14.9368
    15.1935  15.2088  15.2861  15.2960  15.5063  15.5209  15.7166  15.7374
    16.1694  16.1789  16.4562  16.4701  17.2202  17.2522

     occupation numbers 
     1.0000   1.0000   1.0000   1.0000   1.0000   1.0000   1.0000   1.0000
     1.0000   1.0000   1.0000   1.0000   1.0000   1.0000   1.0000   1.0000
     1.0000   1.0000   1.0000   1.0000   1.0000   1.0000   1.0000   1.0000
     1.0000   1.0000   1.0000   1.0000   1.0000   1.0000   1.0000   1.0000
     1.0000   1.0000   1.0000   1.0000   1.0000   1.0000   1.0000   1.0000
     1.0000   1.0000   1.0000   1.0000   1.0000   1.0000   1.0000   1.0000
     1.0000   1.0000   1.0000   1.0000   1.0000   1.0000   1.0000   1.0000
     1.0000   1.0000   1.0000   1.0000   1.0000   1.0000   1.0000   1.0000
     1.0000   1.0000   1.0000   1.0000   1.0039   1.0049   0.6380   0.5546
    -0.0075  -0.0169  -0.0355  -0.0353  -0.0073  -0.0061  -0.0003  -0.0002
    -0.0000  -0.0000  -0.0000  -0.0000  -0.0000  -0.0000

          k = 0.1667 0.1667-0.5000 (  9658 PWs)   bands (ev):

   -56.4936 -56.4936 -56.4936 -56.4936 -56.4724 -56.4724 -56.4724 -56.4724
   -28.5776 -28.5776 -28.5723 -28.5723 -28.5227 -28.5227 -28.5194 -28.5194
   -27.6235 -27.6235 -27.5653 -27.5653 -27.5562 -27.5562 -27.5269 -27.5269
   -27.5124 -27.5124 -27.4706 -27.4706 -27.4579 -27.4579 -27.4293 -27.4293
     4.6536   4.6536   4.6544   4.6544   7.7177   7.7177   7.7240   7.7240
     9.6724   9.6724   9.6737   9.6737  11.3993  11.3993  11.4075  11.4075
    11.8740  11.8740  11.8776  11.8777  12.7989  12.7989  12.8109  12.8109
    13.1832  13.1832  13.1937  13.1937  13.4198  13.4198  13.4239  13.4239
    13.9246  13.9246  13.9325  13.9325  14.6752  14.6752  14.7091  14.7091
    15.1660  15.1660  15.1861  15.1861  15.6071  15.6071  15.6297  15.6297
    16.2631  16.2631  16.2727  16.2727  17.5737  17.5744

     occupation numbers 
     1.0000   1.0000   1.0000   1.0000   1.0000   1.0000   1.0000   1.0000
     1.0000   1.0000   1.0000   1.0000   1.0000   1.0000   1.0000   1.0000
     1.0000   1.0000   1.0000   1.0000   1.0000   1.0000   1.0000   1.0000
     1.0000   1.0000   1.0000   1.0000   1.0000   1.0000   1.0000   1.0000
     1.0000   1.0000   1.0000   1.0000   1.0000   1.0000   1.0000   1.0000
     1.0000   1.0000   1.0000   1.0000   1.0000   1.0000   1.0000   1.0000
     1.0000   1.0000   1.0000   1.0000   1.0000   1.0000   1.0000   1.0000
     1.0000   1.0000   1.0000   1.0000   1.0000   1.0000   1.0000   1.0000
     1.0000   1.0000   1.0000   1.0000   1.0276   1.0276   1.0117   1.0117
     0.0159   0.0159  -0.0020  -0.0020  -0.0018  -0.0018  -0.0013  -0.0013
    -0.0000  -0.0000  -0.0000  -0.0000  -0.0000  -0.0000

          k = 0.1667 0.3333 0.3333 (  9651 PWs)   bands (ev):

   -56.4961 -56.4961 -56.4881 -56.4881 -56.4755 -56.4755 -56.4722 -56.4722
   -28.5779 -28.5741 -28.5663 -28.5654 -28.5378 -28.5356 -28.5149 -28.5139
   -27.6183 -27.6155 -27.5754 -27.5680 -27.5564 -27.5478 -27.5373 -27.5299
   -27.5144 -27.5048 -27.4818 -27.4735 -27.4574 -27.4458 -27.4302 -27.4269
     4.3274   4.3277   5.7571   5.7605   6.7207   6.7262   7.7762   7.7798
     9.2002   9.2036  10.0628  10.0664  10.9686  10.9709  11.5789  11.5832
    11.7453  11.7475  12.2601  12.2637  12.4944  12.5007  12.8127  12.8192
    13.1533  13.1575  13.2541  13.2663  13.4018  13.4092  13.6941  13.7092
    13.9193  13.9355  14.2307  14.2414  14.5666  14.5948  14.8663  14.8804
    14.9506  14.9617  15.1263  15.1530  15.4095  15.4123  15.5559  15.5713
    16.2317  16.2393  16.4605  16.4685  17.1000  17.1248

     occupation numbers 
     1.0000   1.0000   1.0000   1.0000   1.0000   1.0000   1.0000   1.0000
     1.0000   1.0000   1.0000   1.0000   1.0000   1.0000   1.0000   1.0000
     1.0000   1.0000   1.0000   1.0000   1.0000   1.0000   1.0000   1.0000
     1.0000   1.0000   1.0000   1.0000   1.0000   1.0000   1.0000   1.0000
     1.0000   1.0000   1.0000   1.0000   1.0000   1.0000   1.0000   1.0000
     1.0000   1.0000   1.0000   1.0000   1.0000   1.0000   1.0000   1.0000
     1.0000   1.0000   1.0000   1.0000   1.0000   1.0000   1.0000   1.0000
     1.0000   1.0000   1.0000   1.0000   1.0000   1.0000   1.0000   1.0000
     1.0000   1.0000   1.0006   1.0007   1.0308   1.0342   0.7588   0.7210
     0.5118   0.4773   0.0663   0.0301  -0.0198  -0.0193  -0.0038  -0.0031
    -0.0000  -0.0000  -0.0000  -0.0000  -0.0000  -0.0000

          k = 0.1667 0.3333-0.5000 (  9682 PWs)   bands (ev):

   -56.4916 -56.4916 -56.4916 -56.4916 -56.4744 -56.4744 -56.4744 -56.4744
   -28.5717 -28.5717 -28.5676 -28.5676 -28.5290 -28.5290 -28.5258 -28.5258
   -27.6122 -27.6122 -27.5762 -27.5762 -27.5520 -27.5520 -27.5284 -27.5284
   -27.5140 -27.5140 -27.4831 -27.4831 -27.4469 -27.4469 -27.4285 -27.4285
     5.0992   5.0992   5.1006   5.1006   7.0725   7.0725   7.0779   7.0779
     9.6225   9.6225   9.6262   9.6262  11.2875  11.2875  11.2893  11.2893
    11.9350  11.9350  11.9439  11.9439  12.5648  12.5648  12.5740  12.5740
    13.2670  13.2670  13.2731  13.2731  13.5507  13.5507  13.5657  13.5657
    14.2368  14.2368  14.2456  14.2456  14.7118  14.7118  14.7331  14.7331
    14.9649  14.9649  14.9828  14.9828  15.4465  15.4465  15.4633  15.4633
    16.3872  16.3873  16.3947  16.3948  17.1619  17.1648

     occupation numbers 
     1.0000   1.0000   1.0000   1.0000   1.0000   1.0000   1.0000   1.0000
     1.0000   1.0000   1.0000   1.0000   1.0000   1.0000   1.0000   1.0000
     1.0000   1.0000   1.0000   1.0000   1.0000   1.0000   1.0000   1.0000
     1.0000   1.0000   1.0000   1.0000   1.0000   1.0000   1.0000   1.0000
     1.0000   1.0000   1.0000   1.0000   1.0000   1.0000   1.0000   1.0000
     1.0000   1.0000   1.0000   1.0000   1.0000   1.0000   1.0000   1.0000
     1.0000   1.0000   1.0000   1.0000   1.0000   1.0000   1.0000   1.0000
     1.0000   1.0000   1.0000   1.0000   1.0000   1.0000   1.0000   1.0000
     1.0006   1.0006   1.0007   1.0007   1.0099   1.0099   0.9934   0.9934
     0.4675   0.4675   0.4125   0.4124  -0.0141  -0.0141  -0.0119  -0.0119
    -0.0000  -0.0000  -0.0000  -0.0000  -0.0000  -0.0000

          k = 0.1667-0.5000-0.5000 (  9628 PWs)   bands (ev):

   -56.4904 -56.4904 -56.4904 -56.4904 -56.4756 -56.4756 -56.4755 -56.4755
   -28.5664 -28.5664 -28.5663 -28.5663 -28.5313 -28.5313 -28.5310 -28.5310
   -27.5983 -27.5983 -27.5915 -27.5915 -27.5463 -27.5463 -27.5326 -27.5326
   -27.5083 -27.5083 -27.4939 -27.4939 -27.4378 -27.4378 -27.4319 -27.4319
     5.5068   5.5068   5.5082   5.5082   6.5299   6.5299   6.5325   6.5325
     9.8342   9.8342   9.8384   9.8384  10.8962  10.8962  10.8984  10.8984
    12.1902  12.1902  12.1928  12.1928  12.3756  12.3756  12.3787  12.3787
    13.2235  13.2235  13.2242  13.2242  13.7579  13.7579  13.7719  13.7719
    14.3939  14.3939  14.4009  14.4009  14.6982  14.6982  14.7156  14.7156
    14.8396  14.8396  14.8414  14.8414  15.3687  15.3687  15.3689  15.3689
    16.4879  16.4879  16.4894  16.4895  16.9544  16.9560

     occupation numbers 
     1.0000   1.0000   1.0000   1.0000   1.0000   1.0000   1.0000   1.0000
     1.0000   1.0000   1.0000   1.0000   1.0000   1.0000   1.0000   1.0000
     1.0000   1.0000   1.0000   1.0000   1.0000   1.0000   1.0000   1.0000
     1.0000   1.0000   1.0000   1.0000   1.0000   1.0000   1.0000   1.0000
     1.0000   1.0000   1.0000   1.0000   1.0000   1.0000   1.0000   1.0000
     1.0000   1.0000   1.0000   1.0000   1.0000   1.0000   1.0000   1.0000
     1.0000   1.0000   1.0000   1.0000   1.0000   1.0000   1.0000   1.0000
     1.0000   1.0000   1.0000   1.0000   1.0000   1.0000   1.0000   1.0000
     1.0066   1.0066   1.0071   1.0071   1.0180   1.0179   1.0073   1.0073
     0.8243   0.8243   0.8201   0.8201  -0.0266  -0.0266  -0.0266  -0.0266
    -0.0000  -0.0000  -0.0000  -0.0000  -0.0000  -0.0000

          k = 0.3333 0.3333 0.3333 (  9690 PWs)   bands (ev):

   -56.4929 -56.4929 -56.4873 -56.4873 -56.4774 -56.4774 -56.4744 -56.4744
   -28.5723 -28.5692 -28.5614 -28.5612 -28.5405 -28.5387 -28.5241 -28.5227
   -27.6107 -27.6070 -27.5740 -27.5640 -27.5638 -27.5623 -27.5414 -27.5281
   -27.5174 -27.4971 -27.4776 -27.4592 -27.4589 -27.4580 -27.4324 -27.4290
     4.8135   4.8139   5.9656   5.9721   6.6619   6.6723   7.5011   7.5038
     8.7479   8.7530   9.4977   9.5041  10.5489  10.5534  11.1931  11.1949
    12.0062  12.0080  12.4976  12.5007  12.7690  12.7731  12.8492  12.8509
    13.1391  13.1508  13.1960  13.2028  13.2663  13.2685  13.5453  13.5484
    14.1408  14.1455  14.4924  14.5007  14.7930  14.8297  14.8518  14.8634
    14.9966  15.0075  15.1378  15.1437  15.2643  15.2913  15.4145  15.4338
    16.2559  16.2629  16.3897  16.3925  16.9561  16.9644

     occupation numbers 
     1.0000   1.0000   1.0000   1.0000   1.0000   1.0000   1.0000   1.0000
     1.0000   1.0000   1.0000   1.0000   1.0000   1.0000   1.0000   1.0000
     1.0000   1.0000   1.0000   1.0000   1.0000   1.0000   1.0000   1.0000
     1.0000   1.0000   1.0000   1.0000   1.0000   1.0000   1.0000   1.0000
     1.0000   1.0000   1.0000   1.0000   1.0000   1.0000   1.0000   1.0000
     1.0000   1.0000   1.0000   1.0000   1.0000   1.0000   1.0000   1.0000
     1.0000   1.0000   1.0000   1.0000   1.0000   1.0000   1.0000   1.0000
     1.0000   1.0000   1.0000   1.0000   1.0000   1.0000   1.0000   1.0000
     1.0001   1.0001   1.0186   1.0200   0.9170   0.8464   0.7955   0.7662
     0.3706   0.3384   0.0496   0.0417  -0.0342  -0.0354  -0.0189  -0.0160
    -0.0000  -0.0000  -0.0000  -0.0000  -0.0000  -0.0000

          k = 0.3333 0.3333-0.5000 (  9648 PWs)   bands (ev):

   -56.4891 -56.4891 -56.4891 -56.4891 -56.4769 -56.4769 -56.4769 -56.4769
   -28.5655 -28.5655 -28.5620 -28.5620 -28.5359 -28.5359 -28.5328 -28.5328
   -27.6029 -27.6029 -27.5742 -27.5742 -27.5638 -27.5638 -27.5380 -27.5380
   -27.5029 -27.5029 -27.4716 -27.4716 -27.4532 -27.4532 -27.4333 -27.4333
     5.5127   5.5127   5.5146   5.5146   6.9753   6.9753   6.9811   6.9811
     9.0500   9.0500   9.0559   9.0559  10.5630  10.5630  10.5660  10.5660
    12.3851  12.3851  12.3935  12.3935  12.8192  12.8192  12.8268  12.8268
    13.1331  13.1331  13.1441  13.1441  13.3782  13.3782  13.3866  13.3866
    14.4668  14.4668  14.4751  14.4751  14.8618  14.8618  14.8775  14.8775
    15.0817  15.0817  15.1010  15.1010  15.2977  15.2977  15.3140  15.3140
    16.3319  16.3320  16.3414  16.3414  16.9304  16.9324

     occupation numbers 
     1.0000   1.0000   1.0000   1.0000   1.0000   1.0000   1.0000   1.0000
     1.0000   1.0000   1.0000   1.0000   1.0000   1.0000   1.0000   1.0000
     1.0000   1.0000   1.0000   1.0000   1.0000   1.0000   1.0000   1.0000
     1.0000   1.0000   1.0000   1.0000   1.0000   1.0000   1.0000   1.0000
     1.0000   1.0000   1.0000   1.0000   1.0000   1.0000   1.0000   1.0000
     1.0000   1.0000   1.0000   1.0000   1.0000   1.0000   1.0000   1.0000
     1.0000   1.0000   1.0000   1.0000   1.0000   1.0000   1.0000   1.0000
     1.0000   1.0000   1.0000   1.0000   1.0000   1.0000   1.0000   1.0000
     1.0147   1.0147   1.0160   1.0160   0.7704   0.7704   0.7290   0.7290
     0.1481   0.1481   0.1094   0.1094  -0.0353  -0.0353  -0.0342  -0.0342
    -0.0000  -0.0000  -0.0000  -0.0000  -0.0000  -0.0000

          k = 0.3333-0.5000-0.5000 (  9668 PWs)   bands (ev):

   -56.4873 -56.4873 -56.4873 -56.4873 -56.4787 -56.4787 -56.4787 -56.4787
   -28.5596 -28.5596 -28.5593 -28.5593 -28.5393 -28.5393 -28.5390 -28.5390
   -27.5922 -27.5922 -27.5839 -27.5839 -27.5640 -27.5640 -27.5424 -27.5424
   -27.4951 -27.4951 -27.4737 -27.4737 -27.4482 -27.4482 -27.4400 -27.4400
     5.8909   5.8909   5.8940   5.8940   6.6638   6.6638   6.6694   6.6694
     9.0933   9.0933   9.1000   9.1000  10.0569  10.0569  10.0610  10.0610
    12.6146  12.6146  12.6186  12.6186  12.8001  12.8001  12.8022  12.8022
    13.0433  13.0433  13.0434  13.0434  13.3529  13.3529  13.3635  13.3635
    14.6576  14.6576  14.6652  14.6652  14.9736  14.9736  14.9811  14.9811
    15.0655  15.0655  15.0710  15.0710  15.2565  15.2565  15.2683  15.2683
    16.3689  16.3689  16.3703  16.3703  16.7214  16.7220

     occupation numbers 
     1.0000   1.0000   1.0000   1.0000   1.0000   1.0000   1.0000   1.0000
     1.0000   1.0000   1.0000   1.0000   1.0000   1.0000   1.0000   1.0000
     1.0000   1.0000   1.0000   1.0000   1.0000   1.0000   1.0000   1.0000
     1.0000   1.0000   1.0000   1.0000   1.0000   1.0000   1.0000   1.0000
     1.0000   1.0000   1.0000   1.0000   1.0000   1.0000   1.0000   1.0000
     1.0000   1.0000   1.0000   1.0000   1.0000   1.0000   1.0000   1.0000
     1.0000   1.0000   1.0000   1.0000   1.0000   1.0000   1.0000   1.0000
     1.0000   1.0000   1.0000   1.0000   1.0000   1.0000   1.0000   1.0000
     1.0322   1.0322   1.0305   1.0305   0.4405   0.4405   0.4175   0.4175
     0.1845   0.1845   0.1717   0.1717  -0.0331  -0.0331  -0.0346  -0.0346
    -0.0000  -0.0000  -0.0000  -0.0000  -0.0000  -0.0000

          k =-0.5000-0.5000-0.5000 (  9568 PWs)   bands (ev):

   -56.4830 -56.4830 -56.4830 -56.4830 -56.4830 -56.4830 -56.4830 -56.4830
   -28.5501 -28.5501 -28.5494 -28.5494 -28.5494 -28.5494 -28.5494 -28.5494
   -27.5801 -27.5801 -27.5801 -27.5801 -27.5801 -27.5801 -27.5464 -27.5464
   -27.4879 -27.4879 -27.4547 -27.4547 -27.4547 -27.4547 -27.4547 -27.4547
     6.3979   6.3979   6.3979   6.3979   6.3979   6.3979   6.4083   6.4083
     9.2379   9.2379   9.2504   9.2504   9.2504   9.2504   9.2504   9.2504
    12.9181  12.9181  12.9246  12.9246  12.9246  12.9246  12.9246  12.9246
    13.0013  13.0013  13.0061  13.0061  13.0061  13.0061  13.0061  13.0061
    14.9355  14.9355  14.9374  14.9374  14.9374  14.9374  14.9374  14.9374
    15.2377  15.2377  15.2377  15.2377  15.2377  15.2377  15.2808  15.2808
    16.4114  16.4114  16.4237  16.4237  16.4237  16.4237

     occupation numbers 
     1.0000   1.0000   1.0000   1.0000   1.0000   1.0000   1.0000   1.0000
     1.0000   1.0000   1.0000   1.0000   1.0000   1.0000   1.0000   1.0000
     1.0000   1.0000   1.0000   1.0000   1.0000   1.0000   1.0000   1.0000
     1.0000   1.0000   1.0000   1.0000   1.0000   1.0000   1.0000   1.0000
     1.0000   1.0000   1.0000   1.0000   1.0000   1.0000   1.0000   1.0000
     1.0000   1.0000   1.0000   1.0000   1.0000   1.0000   1.0000   1.0000
     1.0000   1.0000   1.0000   1.0000   1.0000   1.0000   1.0000   1.0000
     1.0000   1.0000   1.0000   1.0000   1.0000   1.0000   1.0000   1.0000
     0.5588   0.5588   0.5530   0.5530   0.5530   0.5530   0.5530   0.5530
    -0.0289  -0.0289  -0.0289  -0.0289  -0.0289  -0.0289  -0.0354  -0.0354
    -0.0000  -0.0000  -0.0000  -0.0000  -0.0000  -0.0000

          k = 0.0000 0.3333 0.1667 (  9647 PWs)   bands (ev):

   -56.5010 -56.5010 -56.4874 -56.4874 -56.4734 -56.4734 -56.4702 -56.4702
   -28.5837 -28.5788 -28.5724 -28.5706 -28.5383 -28.5355 -28.5007 -28.5000
   -27.6292 -27.6238 -27.5731 -27.5720 -27.5547 -27.5424 -27.5370 -27.5284
   -27.5154 -27.4899 -27.4794 -27.4681 -27.4591 -27.4478 -27.4346 -27.4312
     3.6318   3.6320   5.5365   5.5374   7.3644   7.3656   8.4322   8.4387
     9.7430   9.7455  10.2564  10.2626  10.9713  10.9745  11.0975  11.1000
    11.8636  11.8659  12.2431  12.2471  12.7983  12.8033  12.9767  12.9819
    13.0680  13.0743  13.2459  13.2521  13.3419  13.3466  13.4901  13.4948
    13.5405  13.5430  13.9679  13.9779  14.2314  14.2435  14.8923  14.9243
    15.2806  15.2989  15.3408  15.3578  15.6488  15.6765  15.7873  15.8131
    16.1578  16.1702  16.4249  16.4391  17.2730  17.3029

     occupation numbers 
     1.0000   1.0000   1.0000   1.0000   1.0000   1.0000   1.0000   1.0000
     1.0000   1.0000   1.0000   1.0000   1.0000   1.0000   1.0000   1.0000
     1.0000   1.0000   1.0000   1.0000   1.0000   1.0000   1.0000   1.0000
     1.0000   1.0000   1.0000   1.0000   1.0000   1.0000   1.0000   1.0000
     1.0000   1.0000   1.0000   1.0000   1.0000   1.0000   1.0000   1.0000
     1.0000   1.0000   1.0000   1.0000   1.0000   1.0000   1.0000   1.0000
     1.0000   1.0000   1.0000   1.0000   1.0000   1.0000   1.0000   1.0000
     1.0000   1.0000   1.0000   1.0000   1.0000   1.0000   1.0000   1.0000
     1.0000   1.0000   1.0000   1.0000   1.0006   1.0007   0.6877   0.5931
    -0.0353  -0.0352  -0.0310  -0.0284  -0.0009  -0.0006  -0.0001  -0.0000
    -0.0000  -0.0000  -0.0000  -0.0000  -0.0000  -0.0000

          k = 0.0000-0.5000 0.1667 (  9654 PWs)   bands (ev):

   -56.4944 -56.4944 -56.4944 -56.4944 -56.4716 -56.4716 -56.4716 -56.4716
   -28.5799 -28.5799 -28.5745 -28.5745 -28.5197 -28.5197 -28.5169 -28.5169
   -27.6276 -27.6276 -27.5661 -27.5661 -27.5532 -27.5532 -27.5283 -27.5283
   -27.5063 -27.5063 -27.4744 -27.4744 -27.4548 -27.4548 -27.4320 -27.4320
     4.4921   4.4921   4.4926   4.4926   7.8965   7.8965   7.9012   7.9012
    10.1027  10.1027  10.1078  10.1078  10.8746  10.8746  10.8819  10.8819
    12.1426  12.1426  12.1476  12.1476  12.8634  12.8634  12.8725  12.8725
    13.1100  13.1100  13.1180  13.1180  13.3990  13.3990  13.4082  13.4082
    13.8096  13.8096  13.8150  13.8150  14.6099  14.6099  14.6410  14.6410
    15.2625  15.2625  15.2848  15.2848  15.6864  15.6864  15.7148  15.7149
    16.2186  16.2186  16.2303  16.2303  17.5941  17.6004

     occupation numbers 
     1.0000   1.0000   1.0000   1.0000   1.0000   1.0000   1.0000   1.0000
     1.0000   1.0000   1.0000   1.0000   1.0000   1.0000   1.0000   1.0000
     1.0000   1.0000   1.0000   1.0000   1.0000   1.0000   1.0000   1.0000
     1.0000   1.0000   1.0000   1.0000   1.0000   1.0000   1.0000   1.0000
     1.0000   1.0000   1.0000   1.0000   1.0000   1.0000   1.0000   1.0000
     1.0000   1.0000   1.0000   1.0000   1.0000   1.0000   1.0000   1.0000
     1.0000   1.0000   1.0000   1.0000   1.0000   1.0000   1.0000   1.0000
     1.0000   1.0000   1.0000   1.0000   1.0000   1.0000   1.0000   1.0000
     1.0000   1.0000   1.0000   1.0000   1.0352   1.0352   1.0346   1.0346
    -0.0340  -0.0340  -0.0354  -0.0354  -0.0005  -0.0005  -0.0003  -0.0003
    -0.0000  -0.0000  -0.0000  -0.0000  -0.0000  -0.0000

          k = 0.0000-0.5000 0.3333 (  9646 PWs)   bands (ev):

   -56.4926 -56.4926 -56.4926 -56.4926 -56.4734 -56.4734 -56.4734 -56.4734
   -28.5740 -28.5740 -28.5699 -28.5699 -28.5261 -28.5261 -28.5229 -28.5229
   -27.6156 -27.6156 -27.5777 -27.5777 -27.5448 -27.5448 -27.5254 -27.5254
   -27.5156 -27.5156 -27.4928 -27.4928 -27.4420 -27.4420 -27.4277 -27.4277
     4.9481   4.9481   4.9489   4.9489   7.0311   7.0311   7.0336   7.0336
    10.5076  10.5076  10.5110  10.5110  10.8272  10.8272  10.8295  10.8295
    11.9950  11.9950  12.0004  12.0004  12.4107  12.4107  12.4212  12.4212
    13.2690  13.2690  13.2755  13.2755  13.9163  13.9163  13.9227  13.9227
    13.9581  13.9581  13.9713  13.9713  14.6454  14.6454  14.6789  14.6789
    14.9052  14.9052  14.9410  14.9410  15.4825  15.4825  15.5057  15.5057
    16.3891  16.3891  16.4010  16.4010  17.2963  17.2978

     occupation numbers 
     1.0000   1.0000   1.0000   1.0000   1.0000   1.0000   1.0000   1.0000
     1.0000   1.0000   1.0000   1.0000   1.0000   1.0000   1.0000   1.0000
     1.0000   1.0000   1.0000   1.0000   1.0000   1.0000   1.0000   1.0000
     1.0000   1.0000   1.0000   1.0000   1.0000   1.0000   1.0000   1.0000
     1.0000   1.0000   1.0000   1.0000   1.0000   1.0000   1.0000   1.0000
     1.0000   1.0000   1.0000   1.0000   1.0000   1.0000   1.0000   1.0000
     1.0000   1.0000   1.0000   1.0000   1.0000   1.0000   1.0000   1.0000
     1.0000   1.0000   1.0000   1.0000   1.0000   1.0000   1.0000   1.0000
     1.0000   1.0000   1.0000   1.0000   1.0341   1.0341   1.0264   1.0264
     0.6505   0.6505   0.5416   0.5416  -0.0096  -0.0096  -0.0074  -0.0074
    -0.0000  -0.0000  -0.0000  -0.0000  -0.0000  -0.0000

          k =-0.1667-0.5000 0.3333 (  9682 PWs)   bands (ev):

   -56.4916 -56.4916 -56.4916 -56.4916 -56.4744 -56.4744 -56.4744 -56.4744
   -28.5717 -28.5717 -28.5676 -28.5676 -28.5290 -28.5290 -28.5257 -28.5257
   -27.6123 -27.6123 -27.5756 -27.5756 -27.5524 -27.5524 -27.5281 -27.5281
   -27.5144 -27.5144 -27.4829 -27.4829 -27.4468 -27.4468 -27.4285 -27.4285
     5.0989   5.0989   5.1000   5.1000   7.0745   7.0745   7.0784   7.0784
     9.6360   9.6360   9.6388   9.6388  11.1981  11.1981  11.2012  11.2012
    11.9973  11.9973  12.0040  12.0040  12.6322  12.6322  12.6425  12.6425
    13.1736  13.1736  13.1816  13.1816  13.6516  13.6516  13.6633  13.6633
    14.1721  14.1721  14.1814  14.1814  14.7183  14.7183  14.7435  14.7436
    14.9642  14.9642  14.9955  14.9955  15.4270  15.4270  15.4442  15.4442
    16.3586  16.3587  16.3694  16.3694  17.2177  17.2199

     occupation numbers 
     1.0000   1.0000   1.0000   1.0000   1.0000   1.0000   1.0000   1.0000
     1.0000   1.0000   1.0000   1.0000   1.0000   1.0000   1.0000   1.0000
     1.0000   1.0000   1.0000   1.0000   1.0000   1.0000   1.0000   1.0000
     1.0000   1.0000   1.0000   1.0000   1.0000   1.0000   1.0000   1.0000
     1.0000   1.0000   1.0000   1.0000   1.0000   1.0000   1.0000   1.0000
     1.0000   1.0000   1.0000   1.0000   1.0000   1.0000   1.0000   1.0000
     1.0000   1.0000   1.0000   1.0000   1.0000   1.0000   1.0000   1.0000
     1.0000   1.0000   1.0000   1.0000   1.0000   1.0000   1.0000   1.0000
     1.0002   1.0002   1.0002   1.0002   1.0054   1.0054   0.9834   0.9834
     0.4697   0.4697   0.3739   0.3739  -0.0170  -0.0170  -0.0144  -0.0144
    -0.0000  -0.0000  -0.0000  -0.0000  -0.0000  -0.0000

     the Fermi energy is    14.9544 ev

!    total energy              =   -1180.35053212 Ry

     total all-electron energy =    -10727.811369 Ry
     estimated scf accuracy    <       0.00000079 Ry
     smearing contrib. (-TS)   =      -0.00130904 Ry
     internal energy E=F+TS    =   -1180.34922308 Ry

     The total energy is F=E-TS. E is the sum of the following terms:
     one-electron contribution =    -336.79979712 Ry
     hartree contribution      =     207.04497030 Ry
     xc contribution           =    -114.36206827 Ry
     ewald contribution        =    -496.51183961 Ry
     one-center paw contrib.   =    -439.72048839 Ry
      -> PAW hartree energy AE =     126.71919816 Ry
      -> PAW hartree energy PS =    -125.75193990 Ry
      -> PAW xc energy AE      =     -96.23989564 Ry
      -> PAW xc energy PS      =      20.93270199 Ry
      -> total E_H with PAW    =     208.01222856 Ry
      -> total E_XC with PAW   =    -189.66926192 Ry

     convergence has been achieved in   6 iterations

     Forces acting on atoms (cartesian axes, Ry/au):

     atom    1 type  1   force =    -0.00284483   -0.00284483    0.00284483
     atom    2 type  1   force =    -0.00284483    0.00284483   -0.00284483
     atom    3 type  1   force =     0.00284483   -0.00284483   -0.00284483
     atom    4 type  1   force =     0.00284483    0.00284483    0.00284483
     atom    5 type  2   force =    -0.00413565   -0.00413565    0.00413565
     atom    6 type  2   force =    -0.00413565    0.00413565   -0.00413565
     atom    7 type  2   force =     0.00413565   -0.00413565   -0.00413565
     atom    8 type  2   force =     0.00413565    0.00413565    0.00413565
     The non-local contrib.  to forces
     atom    1 type  1   force =     0.05141179    0.05141179   -0.05141179
     atom    2 type  1   force =     0.05141179   -0.05141179    0.05141179
     atom    3 type  1   force =    -0.05141179    0.05141179    0.05141179
     atom    4 type  1   force =    -0.05141179   -0.05141179   -0.05141179
     atom    5 type  2   force =    -0.00808485   -0.00808485    0.00808485
     atom    6 type  2   force =    -0.00808485    0.00808485   -0.00808485
     atom    7 type  2   force =     0.00808485   -0.00808485   -0.00808485
     atom    8 type  2   force =     0.00808485    0.00808485    0.00808485
     The ionic contribution  to forces
     atom    1 type  1   force =    -0.85044630   -0.85044630    0.85044630
     atom    2 type  1   force =    -0.85044630    0.85044630   -0.85044630
     atom    3 type  1   force =     0.85044630   -0.85044630   -0.85044630
     atom    4 type  1   force =     0.85044630    0.85044630    0.85044630
     atom    5 type  2   force =    -0.24524978   -0.24524978    0.24524978
     atom    6 type  2   force =    -0.24524978    0.24524978   -0.24524978
     atom    7 type  2   force =     0.24524978   -0.24524978   -0.24524978
     atom    8 type  2   force =     0.24524978    0.24524978    0.24524978
     The local contribution  to forces
     atom    1 type  1   force =     0.79736284    0.79736284   -0.79736284
     atom    2 type  1   force =     0.79736284   -0.79736284    0.79736284
     atom    3 type  1   force =    -0.79736284    0.79736284    0.79736284
     atom    4 type  1   force =    -0.79736284   -0.79736284   -0.79736284
     atom    5 type  2   force =     0.24836216    0.24836216   -0.24836216
     atom    6 type  2   force =     0.24836216   -0.24836216    0.24836216
     atom    7 type  2   force =    -0.24836216    0.24836216    0.24836216
     atom    8 type  2   force =    -0.24836216   -0.24836216   -0.24836216
     The core correction contribution to forces
     atom    1 type  1   force =    -0.00103856   -0.00103856    0.00103856
     atom    2 type  1   force =    -0.00103856    0.00103856   -0.00103856
     atom    3 type  1   force =     0.00103856   -0.00103856   -0.00103856
     atom    4 type  1   force =     0.00103856    0.00103856    0.00103856
     atom    5 type  2   force =     0.00079782    0.00079782   -0.00079782
     atom    6 type  2   force =     0.00079782   -0.00079782    0.00079782
     atom    7 type  2   force =    -0.00079782    0.00079782    0.00079782
     atom    8 type  2   force =    -0.00079782   -0.00079782   -0.00079782
     The Hubbard contrib.    to forces
     atom    1 type  1   force =     0.00000000    0.00000000    0.00000000
     atom    2 type  1   force =     0.00000000    0.00000000    0.00000000
     atom    3 type  1   force =     0.00000000    0.00000000    0.00000000
     atom    4 type  1   force =     0.00000000    0.00000000    0.00000000
     atom    5 type  2   force =     0.00000000    0.00000000    0.00000000
     atom    6 type  2   force =     0.00000000    0.00000000    0.00000000
     atom    7 type  2   force =     0.00000000    0.00000000    0.00000000
     atom    8 type  2   force =     0.00000000    0.00000000    0.00000000
     The SCF correction term to forces
     atom    1 type  1   force =    -0.00013460   -0.00013460    0.00013460
     atom    2 type  1   force =    -0.00013460    0.00013460   -0.00013460
     atom    3 type  1   force =     0.00013460   -0.00013460   -0.00013460
     atom    4 type  1   force =     0.00013460    0.00013460    0.00013460
     atom    5 type  2   force =     0.00003900    0.00003900   -0.00003900
     atom    6 type  2   force =     0.00003900   -0.00003900    0.00003900
     atom    7 type  2   force =    -0.00003900    0.00003900    0.00003900
     atom    8 type  2   force =    -0.00003900   -0.00003900   -0.00003900

     Total force =     0.017388     Total SCF correction =     0.000485


     Computing stress (Cartesian axis) and pressure

          total   stress  (Ry/bohr**3)                   (kbar)     P=      -43.19
  -0.00029359   0.00000000   0.00000000          -43.19        0.00        0.00
   0.00000000  -0.00029359   0.00000000            0.00      -43.19        0.00
   0.00000000   0.00000000  -0.00029359            0.00        0.00      -43.19

     kinetic stress (kbar)  35757.90      0.00      0.00
                                0.00  35757.90      0.00
                                0.00      0.00  35757.90

     local   stress (kbar) -10013.14      0.00     -0.00
                                0.00 -10013.14     -0.00
                               -0.00     -0.00 -10013.14

     nonloc. stress (kbar)   2428.45      0.00      0.00
                                0.00   2428.45      0.00
                                0.00      0.00   2428.45

     hartree stress (kbar)  15167.46     -0.00     -0.00
                               -0.00  15167.46     -0.00
                               -0.00     -0.00  15167.46

     exc-cor stress (kbar)  -1706.61     -0.00     -0.00
                               -0.00  -1706.61      0.00
                               -0.00      0.00  -1706.61

     corecor stress (kbar)  -5304.35     -0.00     -0.00
                               -0.00  -5304.35     -0.00
                               -0.00     -0.00  -5304.35

     ewald   stress (kbar) -36372.90      0.00      0.00
                                0.00 -36372.90      0.00
                                0.00      0.00 -36372.90

     hubbard stress (kbar)      0.00      0.00      0.00
                                0.00      0.00      0.00
                                0.00      0.00      0.00

     DFT-D   stress (kbar)      0.00      0.00      0.00
                                0.00      0.00      0.00
                                0.00      0.00      0.00

     XDM     stress (kbar)      0.00      0.00      0.00
                                0.00      0.00      0.00
                                0.00      0.00      0.00

     dft-nl  stress (kbar)      0.00      0.00      0.00
                                0.00      0.00      0.00
                                0.00      0.00      0.00

     TS-vdW  stress (kbar)      0.00      0.00      0.00
                                0.00      0.00      0.00
                                0.00      0.00      0.00



     Writing output data file /zfs_data/vergnior/martin/Scratch/OAL/CrSi/convergence/smearing/6x6x6/0.02/tmp/CrSi.save/
 
     init_run     :      4.53s CPU      4.83s WALL (       1 calls)
     electrons    :     87.83s CPU     92.06s WALL (       1 calls)
     forces       :      4.00s CPU      4.12s WALL (       1 calls)
     stress       :     10.36s CPU     10.81s WALL (       1 calls)

     Called by init_run:
     wfcinit      :      3.33s CPU      3.43s WALL (       1 calls)
     wfcinit:atom :      0.03s CPU      0.03s WALL (      24 calls)
     wfcinit:wfcr :      3.17s CPU      3.27s WALL (      24 calls)
     potinit      :      0.19s CPU      0.22s WALL (       1 calls)
     hinit0       :      0.18s CPU      0.18s WALL (       1 calls)

     Called by electrons:
     c_bands      :     69.38s CPU     70.66s WALL (       7 calls)
     sum_band     :     14.51s CPU     16.42s WALL (       7 calls)
     v_of_rho     :      0.16s CPU      0.16s WALL (       7 calls)
     v_h          :      0.01s CPU      0.01s WALL (       7 calls)
     v_xc         :      0.19s CPU      0.19s WALL (       9 calls)
     newd         :      3.38s CPU      4.50s WALL (       7 calls)
     PAW_pot      :      0.87s CPU      0.89s WALL (       7 calls)
     mix_rho      :      0.08s CPU      0.09s WALL (       7 calls)

     Called by c_bands:
     init_us_2    :      0.39s CPU      0.40s WALL (     408 calls)
     cegterg      :     62.89s CPU     64.00s WALL (     168 calls)

     Called by sum_band:
     sum_band:wei :      0.02s CPU      0.02s WALL (       7 calls)
     sum_band:loo :     12.41s CPU     12.62s WALL (       7 calls)
     sum_band:buf :      0.11s CPU      0.13s WALL (     168 calls)
     sum_band:ini :      0.17s CPU      0.18s WALL (     168 calls)
     sum_band:cal :      0.90s CPU      0.91s WALL (     168 calls)
     sum_band:bec :      2.15s CPU      2.16s WALL (     168 calls)
     addusdens    :      2.02s CPU      3.71s WALL (       7 calls)
     addusd:skk   :      0.00s CPU      0.00s WALL (      14 calls)
     addusd:dgemm :      0.61s CPU      1.55s WALL (      14 calls)
     addusd:qvan2 :      1.38s CPU      1.39s WALL (      14 calls)

     Called by *egterg:
     cdiaghg      :      6.04s CPU      6.07s WALL (     856 calls)
     cegterg:over :      3.27s CPU      3.28s WALL (     712 calls)
     cegterg:upda :      1.67s CPU      1.70s WALL (     712 calls)
     cegterg:last :      3.04s CPU      3.05s WALL (     430 calls)
     h_psi        :     43.96s CPU     44.99s WALL (     904 calls)
     s_psi        :      6.35s CPU      6.38s WALL (     904 calls)
     g_psi        :      0.10s CPU      0.10s WALL (     712 calls)

     Called by h_psi:
     h_psi:calbec :      3.08s CPU      3.10s WALL (     904 calls)
     vloc_psi     :     34.74s CPU     35.66s WALL (     904 calls)
     add_vuspsi   :      5.94s CPU      5.98s WALL (     904 calls)

     General routines
     calbec       :      4.55s CPU      4.58s WALL (    1192 calls)
     fft          :      0.17s CPU      0.17s WALL (     172 calls)
     ffts         :      0.02s CPU      0.05s WALL (      56 calls)
     fftw         :     32.36s CPU     33.21s WALL (  220328 calls)
     interpolate  :      0.04s CPU      0.07s WALL (      28 calls)
 
     Parallel routines
     fft_scatt_xy :      3.14s CPU      3.22s WALL (  220556 calls)
     fft_scatt_yz :     11.80s CPU     12.10s WALL (  220556 calls)

     PAW routines
     PAW_pot      :      0.87s CPU      0.89s WALL (       7 calls)
     PAW_symme    :      0.01s CPU      0.01s WALL (      14 calls)
 
     PWSCF        :   1m49.63s CPU   1m56.10s WALL

 
   This run was terminated on:  12:46:17   1Aug2021            

=------------------------------------------------------------------------------=
   JOB DONE.
=------------------------------------------------------------------------------=
