
     Program PWSCF v.6.7MaX starts on 18May2022 at 16:21: 7 

     This program is part of the open-source Quantum ESPRESSO suite
     for quantum simulation of materials; please cite
         "P. Giannozzi et al., J. Phys.:Condens. Matter 21 395502 (2009);
         "P. Giannozzi et al., J. Phys.:Condens. Matter 29 465901 (2017);
          URL http://www.quantum-espresso.org", 
     in publications or presentations arising from this work. More details at
     http://www.quantum-espresso.org/quote

     Parallel version (MPI), running on    48 processors

     MPI processes distributed on     1 nodes
     R & G space division:  proc/nbgrp/npool/nimage =      48
     Waiting for input...
     Reading input from standard input

     Current dimensions of program PWSCF are:
     Max number of different atomic species (ntypx) = 10
     Max number of k-points (npk) =  40000
     Max angular momentum in pseudopotentials (lmaxx) =  3
     file O.pbe-nl-kjpaw_psl.1.0.0.UPF: wavefunction(s)  2S 2P renormalized
     file Cl.pbe-nl-kjpaw_psl.1.0.0.UPF: wavefunction(s)  3S renormalized
     file Nb.pbe-spn-kjpaw_psl.1.0.0.UPF: wavefunction(s)  4S 4P 4D renormalized

     Subspace diagonalization in iterative solution of the eigenvalue problem:
     a serial algorithm will be used

     Message from routine setup:
     using ibrav=0 with symmetry is DISCOURAGED, use correct ibrav instead
 
     Parallelization info
     --------------------
     sticks:   dense  smooth     PW     G-vecs:    dense   smooth      PW
     Min         301     120     36                12333     3120     526
     Max         302     121     37                12336     3122     529
     Sum       14481    5793   1765               592063   149795   25323
 


     bravais-lattice index     =            0
     lattice parameter (alat)  =      12.6717  a.u.
     unit-cell volume          =     547.9313 (a.u.)^3
     number of atoms/cell      =            4
     number of atomic types    =            3
     number of electrons       =        33.00
     number of Kohn-Sham states=           21
     kinetic-energy cutoff     =     160.0000  Ry
     charge density cutoff     =    1600.0000  Ry
     scf convergence threshold =      1.0E-10
     mixing beta               =       0.7000
     number of iterations used =            8  plain     mixing
     Exchange-correlation= SLA  PW   PBX  PBC
                           (   1   4   3   4   0   0   0)

     celldm(1)=  12.671676  celldm(2)=   0.000000  celldm(3)=   0.000000
     celldm(4)=   0.000000  celldm(5)=   0.000000  celldm(6)=   0.000000

     crystal axes: (cart. coord. in units of alat)
               a(1) = (  -0.250426   0.291161   0.923316 )  
               a(2) = (   0.250426  -0.291161   0.923316 )  
               a(3) = (   0.250426   0.291161  -0.923316 )  

     reciprocal axes: (cart. coord. in units 2 pi/alat)
               b(1) = (  0.000000  1.717261  0.541527 )  
               b(2) = (  1.996594  0.000000  0.541527 )  
               b(3) = (  1.996594  1.717261  0.000000 )  


     PseudoPot. # 1 for O  read from file:
     /zfs_data/gutierre/Scratch/Cl2NbO/convergence/cutoff/10x10x10/160/pseudo/O.pbe-nl-kjpaw_psl.1.0.0.UPF
     MD5 check sum: df3ddea38124b4e5de5e1084591730e4
     Pseudo is Projector augmented-wave + core cor, Zval =  6.0
     Generated using 'atomic' code by A. Dal Corso  v.6.7MaX
     Shape of augmentation charge: PSQ
     Using radial grid of 1095 points,  4 beta functions with: 
                l(1) =   0
                l(2) =   0
                l(3) =   1
                l(4) =   1
     Q(r) pseudized with 0 coefficients 


     PseudoPot. # 2 for Cl read from file:
     /zfs_data/gutierre/Scratch/Cl2NbO/convergence/cutoff/10x10x10/160/pseudo/Cl.pbe-nl-kjpaw_psl.1.0.0.UPF
     MD5 check sum: 8cf6bde52c08f6236e0f72a8870677af
     Pseudo is Projector augmented-wave + core cor, Zval =  7.0
     Generated using 'atomic' code by A. Dal Corso  v.6.7MaX
     Shape of augmentation charge: PSQ
     Using radial grid of 1157 points,  4 beta functions with: 
                l(1) =   0
                l(2) =   0
                l(3) =   1
                l(4) =   1
     Q(r) pseudized with 0 coefficients 


     PseudoPot. # 3 for Nb read from file:
     /zfs_data/gutierre/Scratch/Cl2NbO/convergence/cutoff/10x10x10/160/pseudo/Nb.pbe-spn-kjpaw_psl.1.0.0.UPF
     MD5 check sum: 1ec1a3aa7bf3cbf7f7e0d720422bce7a
     Pseudo is Projector augmented-wave + core cor, Zval = 13.0
     Generated using 'atomic' code by A. Dal Corso  v.6.7MaX
     Shape of augmentation charge: PSQ
     Using radial grid of 1227 points,  6 beta functions with: 
                l(1) =   0
                l(2) =   0
                l(3) =   1
                l(4) =   1
                l(5) =   2
                l(6) =   2
     Q(r) pseudized with 0 coefficients 


     atomic species   valence    mass     pseudopotential
        O              6.00    15.99940     O ( 1.00)
        Cl             7.00    35.45150     Cl( 1.00)
        Nb            13.00    92.90637     Nb( 1.00)

      8 Sym. Ops., with inversion, found


                                    s                        frac. trans.

      isym =  1     identity                                     

 cryst.   s( 1) = (     1          0          0      )
                  (     0          1          0      )
                  (     0          0          1      )

 cart.    s( 1) = (  1.0000000  0.0000000  0.0000000 )
                  (  0.0000000  1.0000000  0.0000000 )
                  (  0.0000000  0.0000000  1.0000000 )


      isym =  2     180 deg rotation - cart. axis [0,0,1]        

 cryst.   s( 2) = (     0          1          0      )
                  (     1          0          0      )
                  (    -1         -1         -1      )

 cart.    s( 2) = ( -1.0000000  0.0000000  0.0000000 )
                  (  0.0000000 -1.0000000  0.0000000 )
                  (  0.0000000  0.0000000  1.0000000 )


      isym =  3     180 deg rotation - cart. axis [0,1,0]        

 cryst.   s( 3) = (     0          0          1      )
                  (    -1         -1         -1      )
                  (     1          0          0      )

 cart.    s( 3) = ( -1.0000000  0.0000000  0.0000000 )
                  (  0.0000000  1.0000000  0.0000000 )
                  (  0.0000000  0.0000000 -1.0000000 )


      isym =  4     180 deg rotation - cart. axis [1,0,0]        

 cryst.   s( 4) = (    -1         -1         -1      )
                  (     0          0          1      )
                  (     0          1          0      )

 cart.    s( 4) = (  1.0000000  0.0000000  0.0000000 )
                  (  0.0000000 -1.0000000  0.0000000 )
                  (  0.0000000  0.0000000 -1.0000000 )


      isym =  5     inversion                                    

 cryst.   s( 5) = (    -1          0          0      )
                  (     0         -1          0      )
                  (     0          0         -1      )

 cart.    s( 5) = ( -1.0000000  0.0000000  0.0000000 )
                  (  0.0000000 -1.0000000  0.0000000 )
                  (  0.0000000  0.0000000 -1.0000000 )


      isym =  6     inv. 180 deg rotation - cart. axis [0,0,1]   

 cryst.   s( 6) = (     0         -1          0      )
                  (    -1          0          0      )
                  (     1          1          1      )

 cart.    s( 6) = (  1.0000000  0.0000000  0.0000000 )
                  (  0.0000000  1.0000000  0.0000000 )
                  (  0.0000000  0.0000000 -1.0000000 )


      isym =  7     inv. 180 deg rotation - cart. axis [0,1,0]   

 cryst.   s( 7) = (     0          0         -1      )
                  (     1          1          1      )
                  (    -1          0          0      )

 cart.    s( 7) = (  1.0000000  0.0000000  0.0000000 )
                  (  0.0000000 -1.0000000  0.0000000 )
                  (  0.0000000  0.0000000  1.0000000 )


      isym =  8     inv. 180 deg rotation - cart. axis [1,0,0]   

 cryst.   s( 8) = (     1          1          1      )
                  (     0          0         -1      )
                  (     0         -1          0      )

 cart.    s( 8) = ( -1.0000000  0.0000000  0.0000000 )
                  (  0.0000000  1.0000000  0.0000000 )
                  (  0.0000000  0.0000000  1.0000000 )


   Cartesian axes

     site n.     atom                  positions (alat units)
         1           O   tau(   1) = (   0.0000000   0.2911613   0.0000000  )
         2           Cl  tau(   2) = (  -0.0000000   0.2911613   0.6365338  )
         3           Cl  tau(   3) = (   0.2504264  -0.0000000   0.2867819  )
         4           Nb  tau(   4) = (   0.0000000   0.0000000   0.0000000  )

   Crystallographic axes

     site n.     atom                  positions (cryst. coord.)
         1           O   tau(   1) = (  0.5000000  0.0000000  0.5000000  )
         2           Cl  tau(   2) = (  0.8447000  0.3447000  0.5000000  )
         3           Cl  tau(   3) = (  0.1553000  0.6553000  0.5000000  )
         4           Nb  tau(   4) = (  0.0000000  0.0000000  0.0000000  )

     number of k points=   171  Methfessel-Paxton smearing, width (Ry)=  0.0120
                       cart. coord. in units 2pi/alat
        k(    1) = (   0.0000000   0.0000000   0.0000000), wk =   0.0020000
        k(    2) = (   0.1996594   0.1717261   0.0000000), wk =   0.0080000
        k(    3) = (   0.3993189   0.3434523   0.0000000), wk =   0.0080000
        k(    4) = (   0.5989783   0.5151784   0.0000000), wk =   0.0080000
        k(    5) = (   0.7986377   0.6869045   0.0000000), wk =   0.0080000
        k(    6) = (  -0.9982971  -0.8586307   0.0000000), wk =   0.0040000
        k(    7) = (   0.1996594   0.0000000   0.0541527), wk =   0.0080000
        k(    8) = (   0.3993189   0.1717261   0.0541527), wk =   0.0160000
        k(    9) = (   0.5989783   0.3434523   0.0541527), wk =   0.0160000
        k(   10) = (   0.7986377   0.5151784   0.0541527), wk =   0.0160000
        k(   11) = (   0.9982971   0.6869045   0.0541527), wk =   0.0160000
        k(   12) = (  -0.7986377  -0.8586307   0.0541527), wk =   0.0160000
        k(   13) = (  -0.5989783  -0.6869045   0.0541527), wk =   0.0160000
        k(   14) = (  -0.3993189  -0.5151784   0.0541527), wk =   0.0160000
        k(   15) = (  -0.1996594  -0.3434523   0.0541527), wk =   0.0160000
        k(   16) = (   0.0000000  -0.1717261   0.0541527), wk =   0.0080000
        k(   17) = (   0.3993189   0.0000000   0.1083053), wk =   0.0080000
        k(   18) = (   0.5989783   0.1717261   0.1083053), wk =   0.0160000
        k(   19) = (   0.7986377   0.3434523   0.1083053), wk =   0.0160000
        k(   20) = (   0.9982971   0.5151784   0.1083053), wk =   0.0160000
        k(   21) = (   1.1979566   0.6869045   0.1083053), wk =   0.0160000
        k(   22) = (  -0.5989783  -0.8586307   0.1083053), wk =   0.0160000
        k(   23) = (  -0.3993189  -0.6869045   0.1083053), wk =   0.0160000
        k(   24) = (  -0.1996594  -0.5151784   0.1083053), wk =   0.0160000
        k(   25) = (   0.0000000  -0.3434523   0.1083053), wk =   0.0080000
        k(   26) = (   0.1996594  -0.1717261   0.1083053), wk =   0.0160000
        k(   27) = (   0.5989783   0.0000000   0.1624580), wk =   0.0080000
        k(   28) = (   0.7986377   0.1717261   0.1624580), wk =   0.0160000
        k(   29) = (   0.9982971   0.3434523   0.1624580), wk =   0.0160000
        k(   30) = (   1.1979566   0.5151784   0.1624580), wk =   0.0160000
        k(   31) = (   1.3976160   0.6869045   0.1624580), wk =   0.0160000
        k(   32) = (  -0.3993189  -0.8586307   0.1624580), wk =   0.0160000
        k(   33) = (  -0.1996594  -0.6869045   0.1624580), wk =   0.0160000
        k(   34) = (  -0.0000000  -0.5151784   0.1624580), wk =   0.0080000
        k(   35) = (   0.1996594  -0.3434523   0.1624580), wk =   0.0160000
        k(   36) = (   0.3993189  -0.1717261   0.1624580), wk =   0.0160000
        k(   37) = (   0.7986377   0.0000000   0.2166107), wk =   0.0080000
        k(   38) = (   0.9982971   0.1717261   0.2166107), wk =   0.0160000
        k(   39) = (   1.1979566   0.3434523   0.2166107), wk =   0.0160000
        k(   40) = (   1.3976160   0.5151784   0.2166107), wk =   0.0160000
        k(   41) = (   1.5972754   0.6869045   0.2166107), wk =   0.0160000
        k(   42) = (  -0.1996594  -0.8586307   0.2166107), wk =   0.0160000
        k(   43) = (   0.0000000  -0.6869045   0.2166107), wk =   0.0080000
        k(   44) = (   0.1996594  -0.5151784   0.2166107), wk =   0.0160000
        k(   45) = (   0.3993189  -0.3434523   0.2166107), wk =   0.0160000
        k(   46) = (   0.5989783  -0.1717261   0.2166107), wk =   0.0160000
        k(   47) = (  -0.9982971   0.0000000  -0.2707633), wk =   0.0040000
        k(   48) = (  -0.7986377   0.1717261  -0.2707633), wk =   0.0160000
        k(   49) = (  -0.5989783   0.3434523  -0.2707633), wk =   0.0160000
        k(   50) = (  -0.3993189   0.5151784  -0.2707633), wk =   0.0160000
        k(   51) = (  -0.1996594   0.6869045  -0.2707633), wk =   0.0160000
        k(   52) = (  -1.9965943  -0.8586307  -0.2707633), wk =   0.0040000
        k(   53) = (   0.3993189   0.3434523   0.1083053), wk =   0.0160000
        k(   54) = (   0.5989783   0.5151784   0.1083053), wk =   0.0160000
        k(   55) = (   0.7986377   0.6869045   0.1083053), wk =   0.0160000
        k(   56) = (   0.9982971   0.8586307   0.1083053), wk =   0.0080000
        k(   57) = (   0.0000000   0.0000000   0.1083053), wk =   0.0040000
        k(   58) = (   0.5989783   0.3434523   0.1624580), wk =   0.0160000
        k(   59) = (   0.7986377   0.5151784   0.1624580), wk =   0.0160000
        k(   60) = (   0.9982971   0.6869045   0.1624580), wk =   0.0160000
        k(   61) = (   1.1979566   0.8586307   0.1624580), wk =   0.0160000
        k(   62) = (  -0.5989783  -0.6869045   0.1624580), wk =   0.0160000
        k(   63) = (  -0.3993189  -0.5151784   0.1624580), wk =   0.0160000
        k(   64) = (   0.0000000  -0.1717261   0.1624580), wk =   0.0080000
        k(   65) = (   0.1996594   0.0000000   0.1624580), wk =   0.0080000
        k(   66) = (   0.7986377   0.3434523   0.2166107), wk =   0.0160000
        k(   67) = (   0.9982971   0.5151784   0.2166107), wk =   0.0160000
        k(   68) = (   1.1979566   0.6869045   0.2166107), wk =   0.0160000
        k(   69) = (   1.3976160   0.8586307   0.2166107), wk =   0.0160000
        k(   70) = (  -0.3993189  -0.6869045   0.2166107), wk =   0.0160000
        k(   71) = (  -0.0000000  -0.3434523   0.2166107), wk =   0.0080000
        k(   72) = (   0.1996594  -0.1717261   0.2166107), wk =   0.0160000
        k(   73) = (   0.3993189   0.0000000   0.2166107), wk =   0.0080000
        k(   74) = (   0.9982971   0.3434523   0.2707633), wk =   0.0080000
        k(   75) = (   1.1979566   0.5151784   0.2707633), wk =   0.0160000
        k(   76) = (   1.3976160   0.6869045   0.2707633), wk =   0.0160000
        k(   77) = (   1.5972754   0.8586307   0.2707633), wk =   0.0080000
        k(   78) = (   0.0000000  -0.5151784   0.2707633), wk =   0.0080000
        k(   79) = (   0.1996594  -0.3434523   0.2707633), wk =   0.0160000
        k(   80) = (   0.3993189  -0.1717261   0.2707633), wk =   0.0160000
        k(   81) = (   0.5989783   0.0000000   0.2707633), wk =   0.0080000
        k(   82) = (  -0.5989783   0.5151784  -0.2166107), wk =   0.0160000
        k(   83) = (  -1.9965943  -0.6869045  -0.2166107), wk =   0.0080000
        k(   84) = (  -1.7969349  -0.5151784  -0.2166107), wk =   0.0160000
        k(   85) = (  -1.5972754  -0.3434523  -0.2166107), wk =   0.0160000
        k(   86) = (  -1.3976160  -0.1717261  -0.2166107), wk =   0.0160000
        k(   87) = (  -1.1979566   0.0000000  -0.2166107), wk =   0.0080000
        k(   88) = (   0.0000000   0.8586307  -0.1624580), wk =   0.0080000
        k(   89) = (  -1.7969349  -0.6869045  -0.1624580), wk =   0.0160000
        k(   90) = (  -1.5972754  -0.5151784  -0.1624580), wk =   0.0160000
        k(   91) = (  -1.3976160  -0.3434523  -0.1624580), wk =   0.0160000
        k(   92) = (  -1.1979566  -0.1717261  -0.1624580), wk =   0.0160000
        k(   93) = (  -0.9982971   0.0000000  -0.1624580), wk =   0.0080000
        k(   94) = (  -0.0000000   0.6869045  -0.1083053), wk =   0.0080000
        k(   95) = (   0.1996594   0.8586307  -0.1083053), wk =   0.0160000
        k(   96) = (  -1.5972754  -0.6869045  -0.1083053), wk =   0.0160000
        k(   97) = (  -1.3976160  -0.5151784  -0.1083053), wk =   0.0160000
        k(   98) = (  -1.1979566  -0.3434523  -0.1083053), wk =   0.0160000
        k(   99) = (  -0.9982971  -0.1717261  -0.1083053), wk =   0.0160000
        k(  100) = (  -0.7986377   0.0000000  -0.1083053), wk =   0.0080000
        k(  101) = (   0.0000000   0.5151784  -0.0541527), wk =   0.0080000
        k(  102) = (   0.1996594   0.6869045  -0.0541527), wk =   0.0160000
        k(  103) = (   0.3993189   0.8586307  -0.0541527), wk =   0.0160000
        k(  104) = (  -1.3976160  -0.6869045  -0.0541527), wk =   0.0160000
        k(  105) = (  -1.1979566  -0.5151784  -0.0541527), wk =   0.0160000
        k(  106) = (  -0.9982971  -0.3434523  -0.0541527), wk =   0.0160000
        k(  107) = (  -0.7986377  -0.1717261  -0.0541527), wk =   0.0160000
        k(  108) = (  -0.5989783   0.0000000  -0.0541527), wk =   0.0080000
        k(  109) = (   0.0000000   0.3434523   0.0000000), wk =   0.0040000
        k(  110) = (   0.1996594   0.5151784   0.0000000), wk =   0.0080000
        k(  111) = (   0.3993189   0.6869045   0.0000000), wk =   0.0080000
        k(  112) = (   0.5989783   0.8586307   0.0000000), wk =   0.0080000
        k(  113) = (  -1.1979566  -0.6869045   0.0000000), wk =   0.0080000
        k(  114) = (  -0.9982971  -0.5151784   0.0000000), wk =   0.0080000
        k(  115) = (  -0.7986377  -0.3434523   0.0000000), wk =   0.0080000
        k(  116) = (  -0.5989783  -0.1717261   0.0000000), wk =   0.0080000
        k(  117) = (  -0.3993189   0.0000000   0.0000000), wk =   0.0040000
        k(  118) = (   0.7986377   0.6869045   0.2166107), wk =   0.0160000
        k(  119) = (   0.9982971   0.8586307   0.2166107), wk =   0.0080000
        k(  120) = (   0.0000000   0.0000000   0.2166107), wk =   0.0040000
        k(  121) = (   0.9982971   0.6869045   0.2707633), wk =   0.0080000
        k(  122) = (   1.1979566   0.8586307   0.2707633), wk =   0.0080000
        k(  123) = (  -0.0000000  -0.1717261   0.2707633), wk =   0.0080000
        k(  124) = (   0.1996594   0.0000000   0.2707633), wk =   0.0080000
        k(  125) = (   0.0000000  -0.3434523   0.3249160), wk =   0.0080000
        k(  126) = (   0.1996594  -0.1717261   0.3249160), wk =   0.0160000
        k(  127) = (   0.3993189   0.0000000   0.3249160), wk =   0.0080000
        k(  128) = (  -1.9965943  -0.5151784  -0.1624580), wk =   0.0080000
        k(  129) = (  -1.7969349  -0.3434523  -0.1624580), wk =   0.0160000
        k(  130) = (  -1.5972754  -0.1717261  -0.1624580), wk =   0.0160000
        k(  131) = (  -1.3976160   0.0000000  -0.1624580), wk =   0.0080000
        k(  132) = (   0.0000000   1.0303568  -0.1083053), wk =   0.0080000
        k(  133) = (  -1.7969349  -0.5151784  -0.1083053), wk =   0.0160000
        k(  134) = (  -1.5972754  -0.3434523  -0.1083053), wk =   0.0160000
        k(  135) = (  -1.3976160  -0.1717261  -0.1083053), wk =   0.0160000
        k(  136) = (  -1.1979566   0.0000000  -0.1083053), wk =   0.0080000
        k(  137) = (  -0.0000000   0.8586307  -0.0541527), wk =   0.0080000
        k(  138) = (   0.1996594   1.0303568  -0.0541527), wk =   0.0160000
        k(  139) = (  -1.5972754  -0.5151784  -0.0541527), wk =   0.0160000
        k(  140) = (  -1.3976160  -0.3434523  -0.0541527), wk =   0.0160000
        k(  141) = (  -1.1979566  -0.1717261  -0.0541527), wk =   0.0160000
        k(  142) = (  -0.9982971   0.0000000  -0.0541527), wk =   0.0080000
        k(  143) = (   0.0000000   0.6869045   0.0000000), wk =   0.0040000
        k(  144) = (   0.1996594   0.8586307   0.0000000), wk =   0.0080000
        k(  145) = (   0.3993189   1.0303568   0.0000000), wk =   0.0080000
        k(  146) = (  -1.3976160  -0.5151784   0.0000000), wk =   0.0080000
        k(  147) = (  -1.1979566  -0.3434523   0.0000000), wk =   0.0080000
        k(  148) = (  -0.9982971  -0.1717261   0.0000000), wk =   0.0080000
        k(  149) = (  -0.7986377   0.0000000   0.0000000), wk =   0.0040000
        k(  150) = (  -0.0000000   0.0000000   0.3249160), wk =   0.0040000
        k(  151) = (   0.0000000  -0.1717261   0.3790686), wk =   0.0080000
        k(  152) = (   0.1996594   0.0000000   0.3790686), wk =   0.0080000
        k(  153) = (  -1.9965943  -0.3434523  -0.1083053), wk =   0.0080000
        k(  154) = (  -1.7969349  -0.1717261  -0.1083053), wk =   0.0160000
        k(  155) = (  -1.5972754   0.0000000  -0.1083053), wk =   0.0080000
        k(  156) = (   0.0000000   1.2020829  -0.0541527), wk =   0.0080000
        k(  157) = (  -1.7969349  -0.3434523  -0.0541527), wk =   0.0160000
        k(  158) = (  -1.5972754  -0.1717261  -0.0541527), wk =   0.0160000
        k(  159) = (  -1.3976160   0.0000000  -0.0541527), wk =   0.0080000
        k(  160) = (  -0.0000000   1.0303568  -0.0000000), wk =   0.0040000
        k(  161) = (   0.1996594   1.2020829  -0.0000000), wk =   0.0080000
        k(  162) = (  -1.5972754  -0.3434523  -0.0000000), wk =   0.0080000
        k(  163) = (  -1.3976160  -0.1717261  -0.0000000), wk =   0.0080000
        k(  164) = (  -1.1979566   0.0000000  -0.0000000), wk =   0.0040000
        k(  165) = (   0.0000000   0.0000000   0.4332213), wk =   0.0040000
        k(  166) = (  -1.9965943  -0.1717261  -0.0541527), wk =   0.0080000
        k(  167) = (  -1.7969349   0.0000000  -0.0541527), wk =   0.0080000
        k(  168) = (   0.0000000   1.3738091   0.0000000), wk =   0.0040000
        k(  169) = (  -1.7969349  -0.1717261   0.0000000), wk =   0.0080000
        k(  170) = (  -1.5972754   0.0000000   0.0000000), wk =   0.0040000
        k(  171) = (  -1.9965943  -1.7172613  -0.5415266), wk =   0.0020000

                       cryst. coord.
        k(    1) = (   0.0000000   0.0000000   0.0000000), wk =   0.0020000
        k(    2) = (  -0.0000000   0.0000000   0.1000000), wk =   0.0080000
        k(    3) = (  -0.0000000   0.0000000   0.2000000), wk =   0.0080000
        k(    4) = (   0.0000000   0.0000000   0.3000000), wk =   0.0080000
        k(    5) = (  -0.0000000   0.0000000   0.4000000), wk =   0.0080000
        k(    6) = (   0.0000000   0.0000000  -0.5000000), wk =   0.0040000
        k(    7) = (  -0.0000000   0.1000000   0.0000000), wk =   0.0080000
        k(    8) = (  -0.0000000   0.1000000   0.1000000), wk =   0.0160000
        k(    9) = (  -0.0000000   0.1000000   0.2000000), wk =   0.0160000
        k(   10) = (  -0.0000000   0.1000000   0.3000000), wk =   0.0160000
        k(   11) = (  -0.0000000   0.1000000   0.4000000), wk =   0.0160000
        k(   12) = (   0.0000000   0.1000000  -0.5000000), wk =   0.0160000
        k(   13) = (   0.0000000   0.1000000  -0.4000000), wk =   0.0160000
        k(   14) = (   0.0000000   0.1000000  -0.3000000), wk =   0.0160000
        k(   15) = (   0.0000000   0.1000000  -0.2000000), wk =   0.0160000
        k(   16) = (   0.0000000   0.1000000  -0.1000000), wk =   0.0080000
        k(   17) = (  -0.0000000   0.2000000   0.0000000), wk =   0.0080000
        k(   18) = (  -0.0000000   0.2000000   0.1000000), wk =   0.0160000
        k(   19) = (  -0.0000000   0.2000000   0.2000000), wk =   0.0160000
        k(   20) = (   0.0000000   0.2000000   0.3000000), wk =   0.0160000
        k(   21) = (  -0.0000000   0.2000000   0.4000000), wk =   0.0160000
        k(   22) = (   0.0000000   0.2000000  -0.5000000), wk =   0.0160000
        k(   23) = (   0.0000000   0.2000000  -0.4000000), wk =   0.0160000
        k(   24) = (   0.0000000   0.2000000  -0.3000000), wk =   0.0160000
        k(   25) = (   0.0000000   0.2000000  -0.2000000), wk =   0.0080000
        k(   26) = (   0.0000000   0.2000000  -0.1000000), wk =   0.0160000
        k(   27) = (   0.0000000   0.3000000   0.0000000), wk =   0.0080000
        k(   28) = (  -0.0000000   0.3000000   0.1000000), wk =   0.0160000
        k(   29) = (   0.0000000   0.3000000   0.2000000), wk =   0.0160000
        k(   30) = (   0.0000000   0.3000000   0.3000000), wk =   0.0160000
        k(   31) = (  -0.0000000   0.3000000   0.4000000), wk =   0.0160000
        k(   32) = (   0.0000000   0.3000000  -0.5000000), wk =   0.0160000
        k(   33) = (   0.0000000   0.3000000  -0.4000000), wk =   0.0160000
        k(   34) = (   0.0000000   0.3000000  -0.3000000), wk =   0.0080000
        k(   35) = (   0.0000000   0.3000000  -0.2000000), wk =   0.0160000
        k(   36) = (   0.0000000   0.3000000  -0.1000000), wk =   0.0160000
        k(   37) = (  -0.0000000   0.4000000   0.0000000), wk =   0.0080000
        k(   38) = (  -0.0000000   0.4000000   0.1000000), wk =   0.0160000
        k(   39) = (  -0.0000000   0.4000000   0.2000000), wk =   0.0160000
        k(   40) = (  -0.0000000   0.4000000   0.3000000), wk =   0.0160000
        k(   41) = (  -0.0000000   0.4000000   0.4000000), wk =   0.0160000
        k(   42) = (   0.0000000   0.4000000  -0.5000000), wk =   0.0160000
        k(   43) = (   0.0000000   0.4000000  -0.4000000), wk =   0.0080000
        k(   44) = (   0.0000000   0.4000000  -0.3000000), wk =   0.0160000
        k(   45) = (   0.0000000   0.4000000  -0.2000000), wk =   0.0160000
        k(   46) = (  -0.0000000   0.4000000  -0.1000000), wk =   0.0160000
        k(   47) = (   0.0000000  -0.5000000   0.0000000), wk =   0.0040000
        k(   48) = (   0.0000000  -0.5000000   0.1000000), wk =   0.0160000
        k(   49) = (   0.0000000  -0.5000000   0.2000000), wk =   0.0160000
        k(   50) = (   0.0000000  -0.5000000   0.3000000), wk =   0.0160000
        k(   51) = (   0.0000000  -0.5000000   0.4000000), wk =   0.0160000
        k(   52) = (   0.0000000  -0.5000000  -0.5000000), wk =   0.0040000
        k(   53) = (   0.1000000   0.1000000   0.1000000), wk =   0.0160000
        k(   54) = (   0.1000000   0.1000000   0.2000000), wk =   0.0160000
        k(   55) = (   0.1000000   0.1000000   0.3000000), wk =   0.0160000
        k(   56) = (   0.1000000   0.1000000   0.4000000), wk =   0.0080000
        k(   57) = (   0.1000000   0.1000000  -0.1000000), wk =   0.0040000
        k(   58) = (   0.1000000   0.2000000   0.1000000), wk =   0.0160000
        k(   59) = (   0.1000000   0.2000000   0.2000000), wk =   0.0160000
        k(   60) = (   0.1000000   0.2000000   0.3000000), wk =   0.0160000
        k(   61) = (   0.1000000   0.2000000   0.4000000), wk =   0.0160000
        k(   62) = (   0.1000000   0.2000000  -0.5000000), wk =   0.0160000
        k(   63) = (   0.1000000   0.2000000  -0.4000000), wk =   0.0160000
        k(   64) = (   0.1000000   0.2000000  -0.2000000), wk =   0.0080000
        k(   65) = (   0.1000000   0.2000000  -0.1000000), wk =   0.0080000
        k(   66) = (   0.1000000   0.3000000   0.1000000), wk =   0.0160000
        k(   67) = (   0.1000000   0.3000000   0.2000000), wk =   0.0160000
        k(   68) = (   0.1000000   0.3000000   0.3000000), wk =   0.0160000
        k(   69) = (   0.1000000   0.3000000   0.4000000), wk =   0.0160000
        k(   70) = (   0.1000000   0.3000000  -0.5000000), wk =   0.0160000
        k(   71) = (   0.1000000   0.3000000  -0.3000000), wk =   0.0080000
        k(   72) = (   0.1000000   0.3000000  -0.2000000), wk =   0.0160000
        k(   73) = (   0.1000000   0.3000000  -0.1000000), wk =   0.0080000
        k(   74) = (   0.1000000   0.4000000   0.1000000), wk =   0.0080000
        k(   75) = (   0.1000000   0.4000000   0.2000000), wk =   0.0160000
        k(   76) = (   0.1000000   0.4000000   0.3000000), wk =   0.0160000
        k(   77) = (   0.1000000   0.4000000   0.4000000), wk =   0.0080000
        k(   78) = (   0.1000000   0.4000000  -0.4000000), wk =   0.0080000
        k(   79) = (   0.1000000   0.4000000  -0.3000000), wk =   0.0160000
        k(   80) = (   0.1000000   0.4000000  -0.2000000), wk =   0.0160000
        k(   81) = (   0.1000000   0.4000000  -0.1000000), wk =   0.0080000
        k(   82) = (   0.1000000  -0.5000000   0.2000000), wk =   0.0160000
        k(   83) = (   0.1000000  -0.5000000  -0.5000000), wk =   0.0080000
        k(   84) = (   0.1000000  -0.5000000  -0.4000000), wk =   0.0160000
        k(   85) = (   0.1000000  -0.5000000  -0.3000000), wk =   0.0160000
        k(   86) = (   0.1000000  -0.5000000  -0.2000000), wk =   0.0160000
        k(   87) = (   0.1000000  -0.5000000  -0.1000000), wk =   0.0080000
        k(   88) = (   0.1000000  -0.4000000   0.4000000), wk =   0.0080000
        k(   89) = (   0.1000000  -0.4000000  -0.5000000), wk =   0.0160000
        k(   90) = (   0.1000000  -0.4000000  -0.4000000), wk =   0.0160000
        k(   91) = (   0.1000000  -0.4000000  -0.3000000), wk =   0.0160000
        k(   92) = (   0.1000000  -0.4000000  -0.2000000), wk =   0.0160000
        k(   93) = (   0.1000000  -0.4000000  -0.1000000), wk =   0.0080000
        k(   94) = (   0.1000000  -0.3000000   0.3000000), wk =   0.0080000
        k(   95) = (   0.1000000  -0.3000000   0.4000000), wk =   0.0160000
        k(   96) = (   0.1000000  -0.3000000  -0.5000000), wk =   0.0160000
        k(   97) = (   0.1000000  -0.3000000  -0.4000000), wk =   0.0160000
        k(   98) = (   0.1000000  -0.3000000  -0.3000000), wk =   0.0160000
        k(   99) = (   0.1000000  -0.3000000  -0.2000000), wk =   0.0160000
        k(  100) = (   0.1000000  -0.3000000  -0.1000000), wk =   0.0080000
        k(  101) = (   0.1000000  -0.2000000   0.2000000), wk =   0.0080000
        k(  102) = (   0.1000000  -0.2000000   0.3000000), wk =   0.0160000
        k(  103) = (   0.1000000  -0.2000000   0.4000000), wk =   0.0160000
        k(  104) = (   0.1000000  -0.2000000  -0.5000000), wk =   0.0160000
        k(  105) = (   0.1000000  -0.2000000  -0.4000000), wk =   0.0160000
        k(  106) = (   0.1000000  -0.2000000  -0.3000000), wk =   0.0160000
        k(  107) = (   0.1000000  -0.2000000  -0.2000000), wk =   0.0160000
        k(  108) = (   0.1000000  -0.2000000  -0.1000000), wk =   0.0080000
        k(  109) = (   0.1000000  -0.1000000   0.1000000), wk =   0.0040000
        k(  110) = (   0.1000000  -0.1000000   0.2000000), wk =   0.0080000
        k(  111) = (   0.1000000  -0.1000000   0.3000000), wk =   0.0080000
        k(  112) = (   0.1000000  -0.1000000   0.4000000), wk =   0.0080000
        k(  113) = (   0.1000000  -0.1000000  -0.5000000), wk =   0.0080000
        k(  114) = (   0.1000000  -0.1000000  -0.4000000), wk =   0.0080000
        k(  115) = (   0.1000000  -0.1000000  -0.3000000), wk =   0.0080000
        k(  116) = (   0.1000000  -0.1000000  -0.2000000), wk =   0.0080000
        k(  117) = (   0.1000000  -0.1000000  -0.1000000), wk =   0.0040000
        k(  118) = (   0.2000000   0.2000000   0.2000000), wk =   0.0160000
        k(  119) = (   0.2000000   0.2000000   0.3000000), wk =   0.0080000
        k(  120) = (   0.2000000   0.2000000  -0.2000000), wk =   0.0040000
        k(  121) = (   0.2000000   0.3000000   0.2000000), wk =   0.0080000
        k(  122) = (   0.2000000   0.3000000   0.3000000), wk =   0.0080000
        k(  123) = (   0.2000000   0.3000000  -0.3000000), wk =   0.0080000
        k(  124) = (   0.2000000   0.3000000  -0.2000000), wk =   0.0080000
        k(  125) = (   0.2000000   0.4000000  -0.4000000), wk =   0.0080000
        k(  126) = (   0.2000000   0.4000000  -0.3000000), wk =   0.0160000
        k(  127) = (   0.2000000   0.4000000  -0.2000000), wk =   0.0080000
        k(  128) = (   0.2000000  -0.5000000  -0.5000000), wk =   0.0080000
        k(  129) = (   0.2000000  -0.5000000  -0.4000000), wk =   0.0160000
        k(  130) = (   0.2000000  -0.5000000  -0.3000000), wk =   0.0160000
        k(  131) = (   0.2000000  -0.5000000  -0.2000000), wk =   0.0080000
        k(  132) = (   0.2000000  -0.4000000   0.4000000), wk =   0.0080000
        k(  133) = (   0.2000000  -0.4000000  -0.5000000), wk =   0.0160000
        k(  134) = (   0.2000000  -0.4000000  -0.4000000), wk =   0.0160000
        k(  135) = (   0.2000000  -0.4000000  -0.3000000), wk =   0.0160000
        k(  136) = (   0.2000000  -0.4000000  -0.2000000), wk =   0.0080000
        k(  137) = (   0.2000000  -0.3000000   0.3000000), wk =   0.0080000
        k(  138) = (   0.2000000  -0.3000000   0.4000000), wk =   0.0160000
        k(  139) = (   0.2000000  -0.3000000  -0.5000000), wk =   0.0160000
        k(  140) = (   0.2000000  -0.3000000  -0.4000000), wk =   0.0160000
        k(  141) = (   0.2000000  -0.3000000  -0.3000000), wk =   0.0160000
        k(  142) = (   0.2000000  -0.3000000  -0.2000000), wk =   0.0080000
        k(  143) = (   0.2000000  -0.2000000   0.2000000), wk =   0.0040000
        k(  144) = (   0.2000000  -0.2000000   0.3000000), wk =   0.0080000
        k(  145) = (   0.2000000  -0.2000000   0.4000000), wk =   0.0080000
        k(  146) = (   0.2000000  -0.2000000  -0.5000000), wk =   0.0080000
        k(  147) = (   0.2000000  -0.2000000  -0.4000000), wk =   0.0080000
        k(  148) = (   0.2000000  -0.2000000  -0.3000000), wk =   0.0080000
        k(  149) = (   0.2000000  -0.2000000  -0.2000000), wk =   0.0040000
        k(  150) = (   0.3000000   0.3000000  -0.3000000), wk =   0.0040000
        k(  151) = (   0.3000000   0.4000000  -0.4000000), wk =   0.0080000
        k(  152) = (   0.3000000   0.4000000  -0.3000000), wk =   0.0080000
        k(  153) = (   0.3000000  -0.5000000  -0.5000000), wk =   0.0080000
        k(  154) = (   0.3000000  -0.5000000  -0.4000000), wk =   0.0160000
        k(  155) = (   0.3000000  -0.5000000  -0.3000000), wk =   0.0080000
        k(  156) = (   0.3000000  -0.4000000   0.4000000), wk =   0.0080000
        k(  157) = (   0.3000000  -0.4000000  -0.5000000), wk =   0.0160000
        k(  158) = (   0.3000000  -0.4000000  -0.4000000), wk =   0.0160000
        k(  159) = (   0.3000000  -0.4000000  -0.3000000), wk =   0.0080000
        k(  160) = (   0.3000000  -0.3000000   0.3000000), wk =   0.0040000
        k(  161) = (   0.3000000  -0.3000000   0.4000000), wk =   0.0080000
        k(  162) = (   0.3000000  -0.3000000  -0.5000000), wk =   0.0080000
        k(  163) = (   0.3000000  -0.3000000  -0.4000000), wk =   0.0080000
        k(  164) = (   0.3000000  -0.3000000  -0.3000000), wk =   0.0040000
        k(  165) = (   0.4000000   0.4000000  -0.4000000), wk =   0.0040000
        k(  166) = (   0.4000000  -0.5000000  -0.5000000), wk =   0.0080000
        k(  167) = (   0.4000000  -0.5000000  -0.4000000), wk =   0.0080000
        k(  168) = (   0.4000000  -0.4000000   0.4000000), wk =   0.0040000
        k(  169) = (   0.4000000  -0.4000000  -0.5000000), wk =   0.0080000
        k(  170) = (   0.4000000  -0.4000000  -0.4000000), wk =   0.0040000
        k(  171) = (  -0.5000000  -0.5000000  -0.5000000), wk =   0.0020000

     Dense  grid:   592063 G-vectors     FFT dimensions: ( 162, 162, 162)

     Smooth grid:   149795 G-vectors     FFT dimensions: ( 108, 108, 108)

     Dynamical RAM for                 wfc:       0.12 MB

     Dynamical RAM for     wfc (w. buffer):      21.49 MB

     Dynamical RAM for           str. fact:       0.56 MB

     Dynamical RAM for           local pot:       0.00 MB

     Dynamical RAM for          nlocal pot:       0.25 MB

     Dynamical RAM for                qrad:       9.62 MB

     Dynamical RAM for          rho,v,vnew:       2.97 MB

     Dynamical RAM for               rhoin:       0.99 MB

     Dynamical RAM for            rho*nmix:       3.01 MB

     Dynamical RAM for           G-vectors:       0.73 MB

     Dynamical RAM for          h,s,v(r/c):       0.08 MB

     Dynamical RAM for          <psi|beta>:       0.01 MB

     Dynamical RAM for                 psi:       0.25 MB

     Dynamical RAM for                hpsi:       0.25 MB

     Dynamical RAM for                spsi:       0.25 MB

     Dynamical RAM for      wfcinit/wfcrot:       0.31 MB

     Dynamical RAM for           addusdens:      35.38 MB

     Dynamical RAM for          addusforce:      35.86 MB

     Dynamical RAM for         addusstress:      37.83 MB

     Estimated static dynamical RAM per process >      44.39 MB

     Estimated max dynamical RAM per process >      82.22 MB

     Estimated total dynamical RAM >       3.85 GB

     Initial potential from superposition of free atoms

     starting charge   32.99867, renormalised to   33.00000
     Starting wfcs are   25 randomized atomic wfcs
     Checking if some PAW data can be deallocated... 
       PAW data deallocated on   36 nodes for type:  1
       PAW data deallocated on   24 nodes for type:  2
       PAW data deallocated on   36 nodes for type:  3

     total cpu time spent up to now is        9.9 secs

     Self-consistent Calculation

     iteration #  1     ecut=   160.00 Ry     beta= 0.70
     Davidson diagonalization with overlap
     ethr =  1.00E-02,  avg # of iterations =  2.3

     total cpu time spent up to now is       28.8 secs

     total energy              =    -534.52924309 Ry
     estimated scf accuracy    <       0.76108556 Ry

     iteration #  2     ecut=   160.00 Ry     beta= 0.70
     Davidson diagonalization with overlap
     ethr =  2.31E-03,  avg # of iterations =  3.6

     total cpu time spent up to now is       50.8 secs

     total energy              =    -533.59121498 Ry
     estimated scf accuracy    <       8.55419178 Ry

     iteration #  3     ecut=   160.00 Ry     beta= 0.70
     Davidson diagonalization with overlap
     ethr =  2.31E-03,  avg # of iterations =  3.5

     total cpu time spent up to now is       71.6 secs

     total energy              =    -534.97569480 Ry
     estimated scf accuracy    <       0.12739337 Ry

     iteration #  4     ecut=   160.00 Ry     beta= 0.70
     Davidson diagonalization with overlap
     ethr =  3.86E-04,  avg # of iterations =  1.3

     total cpu time spent up to now is       88.7 secs

     total energy              =    -534.96798385 Ry
     estimated scf accuracy    <       0.06127443 Ry

     iteration #  5     ecut=   160.00 Ry     beta= 0.70
     Davidson diagonalization with overlap
     ethr =  1.86E-04,  avg # of iterations =  1.5

     total cpu time spent up to now is      105.9 secs

     total energy              =    -534.96494559 Ry
     estimated scf accuracy    <       0.02290294 Ry

     iteration #  6     ecut=   160.00 Ry     beta= 0.70
     Davidson diagonalization with overlap
     ethr =  6.94E-05,  avg # of iterations =  1.9

     total cpu time spent up to now is      123.5 secs

     total energy              =    -534.96729961 Ry
     estimated scf accuracy    <       0.00079588 Ry

     iteration #  7     ecut=   160.00 Ry     beta= 0.70
     Davidson diagonalization with overlap
     ethr =  2.41E-06,  avg # of iterations =  3.3

     total cpu time spent up to now is      145.4 secs

     total energy              =    -534.96753874 Ry
     estimated scf accuracy    <       0.00014406 Ry

     iteration #  8     ecut=   160.00 Ry     beta= 0.70
     Davidson diagonalization with overlap
     ethr =  4.37E-07,  avg # of iterations =  1.6

     total cpu time spent up to now is      162.9 secs

     total energy              =    -534.96753414 Ry
     estimated scf accuracy    <       0.00003721 Ry

     iteration #  9     ecut=   160.00 Ry     beta= 0.70
     Davidson diagonalization with overlap
     ethr =  1.13E-07,  avg # of iterations =  2.0

     total cpu time spent up to now is      181.5 secs

     total energy              =    -534.96754244 Ry
     estimated scf accuracy    <       0.00000093 Ry

     iteration # 10     ecut=   160.00 Ry     beta= 0.70
     Davidson diagonalization with overlap
     ethr =  2.83E-09,  avg # of iterations =  3.8

     total cpu time spent up to now is      203.4 secs

     total energy              =    -534.96754279 Ry
     estimated scf accuracy    <       0.00000002 Ry

     iteration # 11     ecut=   160.00 Ry     beta= 0.70
     Davidson diagonalization with overlap
     ethr =  4.91E-11,  avg # of iterations =  4.5

     total cpu time spent up to now is      229.6 secs

     total energy              =    -534.96754281 Ry
     estimated scf accuracy    <       0.00000002 Ry

     iteration # 12     ecut=   160.00 Ry     beta= 0.70
     Davidson diagonalization with overlap
     ethr =  4.91E-11,  avg # of iterations =  2.3

     total cpu time spent up to now is      248.3 secs

     total energy              =    -534.96754281 Ry
     estimated scf accuracy    <          6.9E-10 Ry

     iteration # 13     ecut=   160.00 Ry     beta= 0.70
     Davidson diagonalization with overlap
     ethr =  2.10E-12,  avg # of iterations =  2.2

     total cpu time spent up to now is      267.0 secs

     End of self-consistent calculation

          k = 0.0000 0.0000 0.0000 ( 18773 PWs)   bands (ev):

   -49.8746 -26.1493 -25.7929 -25.7124 -12.4408  -9.4963  -8.8062   0.6413
     2.4918   2.7188   2.8782   2.9561   3.4299   3.9406   4.1889   4.2876
     5.5256   7.1784   7.3223   8.6676   9.3616

     occupation numbers 
     1.0000   1.0000   1.0000   1.0000   1.0000   1.0000   1.0000   1.0000
     1.0000   1.0000   1.0000   1.0000   1.0000   1.0000   1.0000   1.0000
     1.0000  -0.0000  -0.0000  -0.0000  -0.0000

          k = 0.1997 0.1717 0.0000 ( 18738 PWs)   bands (ev):

   -49.8729 -26.1656 -25.7886 -25.7326 -12.3143  -9.4258  -8.8110   0.7778
     2.2256   2.3507   2.5845   3.1332   3.2694   3.7438   3.8828   4.0605
     5.8247   7.3894   7.4790   8.7271   9.8411

     occupation numbers 
     1.0000   1.0000   1.0000   1.0000   1.0000   1.0000   1.0000   1.0000
     1.0000   1.0000   1.0000   1.0000   1.0000   1.0000   1.0000   1.0000
     1.0000  -0.0000  -0.0000  -0.0000  -0.0000

          k = 0.3993 0.3435 0.0000 ( 18739 PWs)   bands (ev):

   -49.8685 -26.2075 -25.7850 -25.7774 -11.9704  -9.2340  -8.8254   1.1440
     1.6402   1.8229   2.0557   2.3857   2.7100   3.1667   3.8717   4.0000
     6.4477   7.8519   7.9266   8.9901  10.7703

     occupation numbers 
     1.0000   1.0000   1.0000   1.0000   1.0000   1.0000   1.0000   1.0000
     1.0000   1.0000   1.0000   1.0000   1.0000   1.0000   1.0000   1.0000
     1.0336  -0.0000  -0.0000  -0.0000  -0.0000

          k = 0.5990 0.5152 0.0000 ( 18756 PWs)   bands (ev):

   -49.8629 -26.2577 -25.8487 -25.7635 -11.5144  -8.9803  -8.8466   0.5262
     1.4152   1.6634   1.7289   1.8196   1.8793   2.6932   3.7390   4.0086
     7.2476   8.4182   8.5694   9.3654  11.3228

     occupation numbers 
     1.0000   1.0000   1.0000   1.0000   1.0000   1.0000   1.0000   1.0000
     1.0000   1.0000   1.0000   1.0000   1.0000   1.0000   1.0000   1.0000
    -0.0000  -0.0000  -0.0000  -0.0000  -0.0000

          k = 0.7986 0.6869 0.0000 ( 18741 PWs)   bands (ev):

   -49.8585 -26.2970 -25.8995 -25.7523 -11.1131  -8.8666  -8.7580  -0.3134
     0.8192   1.1723   1.6806   1.7850   2.2218   2.3351   3.4484   3.9490
     8.0777   8.9284   9.1344   9.6564  11.3621

     occupation numbers 
     1.0000   1.0000   1.0000   1.0000   1.0000   1.0000   1.0000   1.0000
     1.0000   1.0000   1.0000   1.0000   1.0000   1.0000   1.0000   1.0000
    -0.0000  -0.0000  -0.0000  -0.0000  -0.0000

          k =-0.9983-0.8586 0.0000 ( 18722 PWs)   bands (ev):

   -49.8568 -26.3118 -25.9187 -25.7480 -10.9503  -8.8749  -8.6680  -0.6326
     0.5799   0.9705   1.7530   1.8545   1.9614   2.6012   3.2784   3.8758
     8.4845   9.1482   9.3381   9.7833  11.3914

     occupation numbers 
     1.0000   1.0000   1.0000   1.0000   1.0000   1.0000   1.0000   1.0000
     1.0000   1.0000   1.0000   1.0000   1.0000   1.0000   1.0000   1.0000
    -0.0000  -0.0000  -0.0000  -0.0000  -0.0000

          k = 0.1997 0.0000 0.0542 ( 18752 PWs)   bands (ev):

   -49.8732 -26.1476 -25.7893 -25.7332 -12.4296  -9.4383  -8.8147   0.7654
     2.3424   2.6807   2.9196   3.0007   3.2276   3.8730   3.9719   4.1352
     5.8130   7.1204   7.2840   8.7162   9.6237

     occupation numbers 
     1.0000   1.0000   1.0000   1.0000   1.0000   1.0000   1.0000   1.0000
     1.0000   1.0000   1.0000   1.0000   1.0000   1.0000   1.0000   1.0000
     1.0000  -0.0003  -0.0000  -0.0000  -0.0000

          k = 0.3993 0.1717 0.0542 ( 18714 PWs)   bands (ev):

   -49.8693 -26.1613 -25.7866 -25.7791 -12.2854  -9.2737  -8.8270   1.0785
     2.0481   2.2933   2.5384   2.6166   3.1361   3.2163   3.8520   4.0524
     6.4155   7.2369   7.3641   8.9761  10.2769

     occupation numbers 
     1.0000   1.0000   1.0000   1.0000   1.0000   1.0000   1.0000   1.0000
     1.0000   1.0000   1.0000   1.0000   1.0000   1.0000   1.0000   1.0000
     1.0257  -0.0000  -0.0000  -0.0000  -0.0000

          k = 0.5990 0.3435 0.0542 ( 18711 PWs)   bands (ev):

   -49.8640 -26.2019 -25.8509 -25.7656 -11.9356  -9.0333  -8.8460   1.4006
     1.5908   1.7921   1.9288   2.0006   2.2203   2.8032   3.8402   4.1035
     7.1745   7.7042   7.8164   9.4055  10.9586

     occupation numbers 
     1.0000   1.0000   1.0000   1.0000   1.0000   1.0000   1.0000   1.0000
     1.0000   1.0000   1.0000   1.0000   1.0000   1.0000   1.0000   1.0000
    -0.0001  -0.0000  -0.0000  -0.0000  -0.0000

          k = 0.7986 0.5152 0.0542 ( 18743 PWs)   bands (ev):

   -49.8593 -26.2529 -25.9013 -25.7540 -11.4873  -8.8733  -8.7955   0.5475
     1.1223   1.1348   1.7021   1.8738   2.3334   2.3613   3.5919   4.0704
     7.9831   8.3402   8.5070   9.7192  11.2296

     occupation numbers 
     1.0000   1.0000   1.0000   1.0000   1.0000   1.0000   1.0000   1.0000
     1.0000   1.0000   1.0000   1.0000   1.0000   1.0000   1.0000   1.0000
    -0.0000  -0.0000  -0.0000  -0.0000  -0.0000

          k = 0.9983 0.6869 0.0542 ( 18742 PWs)   bands (ev):

   -49.8571 -26.2951 -25.9194 -25.7487 -11.1032  -8.8828  -8.6768  -0.3056
     0.6791   0.9482   1.6073   1.9515   2.1070   2.6188   3.3261   3.9194
     8.4771   8.8823   9.1054   9.7734  11.3098

     occupation numbers 
     1.0000   1.0000   1.0000   1.0000   1.0000   1.0000   1.0000   1.0000
     1.0000   1.0000   1.0000   1.0000   1.0000   1.0000   1.0000   1.0000
    -0.0000  -0.0000  -0.0000  -0.0000  -0.0000

          k =-0.7986-0.8586 0.0542 ( 18747 PWs)   bands (ev):

   -49.8581 -26.3137 -25.8988 -25.7517 -10.9599  -8.8788  -8.7276  -0.6395
     0.6994   1.1609   1.4947   1.8289   2.2983   2.4366   3.3825   3.8446
     8.1141   9.1841   9.3711   9.5894  11.3223

     occupation numbers 
     1.0000   1.0000   1.0000   1.0000   1.0000   1.0000   1.0000   1.0000
     1.0000   1.0000   1.0000   1.0000   1.0000   1.0000   1.0000   1.0000
    -0.0000  -0.0000  -0.0000  -0.0000  -0.0000

          k =-0.5990-0.6869 0.0542 ( 18742 PWs)   bands (ev):

   -49.8621 -26.3021 -25.8470 -25.7619 -11.1388  -8.9254  -8.8589  -0.3333
     1.1473   1.4038   1.7368   1.7605   1.9254   2.7251   3.6346   3.8389
     7.3077   9.0307   9.1602   9.3174  11.4361

     occupation numbers 
     1.0000   1.0000   1.0000   1.0000   1.0000   1.0000   1.0000   1.0000
     1.0000   1.0000   1.0000   1.0000   1.0000   1.0000   1.0000   1.0000
    -0.0000  -0.0000  -0.0000  -0.0000  -0.0000

          k =-0.3993-0.5152 0.0542 ( 18737 PWs)   bands (ev):

   -49.8674 -26.2637 -25.7830 -25.7753 -11.5476  -9.1732  -8.8366   0.4981
     1.2754   1.4212   1.9099   2.0534   2.6100   3.1585   3.7657   3.8728
     6.5080   8.5871   8.6219   8.9994  11.1455

     occupation numbers 
     1.0000   1.0000   1.0000   1.0000   1.0000   1.0000   1.0000   1.0000
     1.0000   1.0000   1.0000   1.0000   1.0000   1.0000   1.0000   1.0000
     1.0226  -0.0000  -0.0000  -0.0000  -0.0000

          k =-0.1997-0.3435 0.0542 ( 18740 PWs)   bands (ev):

   -49.8721 -26.2121 -25.7869 -25.7311 -11.9985  -9.3788  -8.8190   0.8491
     1.6094   1.6797   2.3602   2.7932   3.3755   3.5436   3.8022   3.9115
     5.8699   8.0183   8.0339   8.7527  10.2966

     occupation numbers 
     1.0000   1.0000   1.0000   1.0000   1.0000   1.0000   1.0000   1.0000
     1.0000   1.0000   1.0000   1.0000   1.0000   1.0000   1.0000   1.0000
     1.0000  -0.0000  -0.0000  -0.0000  -0.0000

          k = 0.0000-0.1717 0.0542 ( 18761 PWs)   bands (ev):

   -49.8743 -26.1672 -25.7922 -25.7119 -12.3253  -9.4766  -8.8117   0.6755
     2.1939   2.5065   2.5754   3.2932   3.3166   3.8282   3.9971   4.2074
     5.5451   7.4607   7.5233   8.6869   9.5938

     occupation numbers 
     1.0000   1.0000   1.0000   1.0000   1.0000   1.0000   1.0000   1.0000
     1.0000   1.0000   1.0000   1.0000   1.0000   1.0000   1.0000   1.0000
     1.0000  -0.0000  -0.0000  -0.0000  -0.0000

          k = 0.3993 0.0000 0.1083 ( 18710 PWs)   bands (ev):

   -49.8696 -26.1434 -25.7872 -25.7797 -12.4004  -9.2822  -8.8351   1.0642
     2.0621   2.4189   2.6474   2.9786   3.1877   3.5179   3.8266   3.9872
     6.4255   6.9824   7.1606   8.9393  10.0070

     occupation numbers 
     1.0000   1.0000   1.0000   1.0000   1.0000   1.0000   1.0000   1.0000
     1.0000   1.0000   1.0000   1.0000   1.0000   1.0000   1.0000   1.0000
     1.0284  -0.0100  -0.0001  -0.0000  -0.0000

          k = 0.5990 0.1717 0.1083 ( 18709 PWs)   bands (ev):

   -49.8648 -26.1559 -25.8526 -25.7672 -12.2497  -9.0721  -8.8491   1.3254
     1.6853   1.8958   2.2334   2.6538   2.9535   3.1334   3.8205   3.9992
     7.0127   7.1834   7.2759   9.3891  10.3849

     occupation numbers 
     1.0000   1.0000   1.0000   1.0000   1.0000   1.0000   1.0000   1.0000
     1.0000   1.0000   1.0000   1.0000   1.0000   1.0000   1.0000   1.0000
    -0.0054  -0.0000  -0.0000  -0.0000  -0.0000

          k = 0.7986 0.3435 0.1083 ( 18736 PWs)   bands (ev):

   -49.8603 -26.1973 -25.9036 -25.7560 -11.9074  -8.9047  -8.8170   1.0298
     1.4274   1.6270   1.7868   1.9603   2.4976   2.7788   3.7560   4.0989
     7.4689   7.7097   8.0852   9.7394  10.8130

     occupation numbers 
     1.0000   1.0000   1.0000   1.0000   1.0000   1.0000   1.0000   1.0000
     1.0000   1.0000   1.0000   1.0000   1.0000   1.0000   1.0000   1.0000
    -0.0000  -0.0000  -0.0000  -0.0000  -0.0000

          k = 0.9983 0.5152 0.1083 ( 18743 PWs)   bands (ev):

   -49.8579 -26.2510 -25.9213 -25.7503 -11.4768  -8.9033  -8.6995   0.5499
     0.8673   1.0057   1.4827   1.9721   2.4596   2.7007   3.4657   4.0096
     8.1979   8.4787   8.4907   9.7618  11.0643

     occupation numbers 
     1.0000   1.0000   1.0000   1.0000   1.0000   1.0000   1.0000   1.0000
     1.0000   1.0000   1.0000   1.0000   1.0000   1.0000   1.0000   1.0000
    -0.0000  -0.0000  -0.0000  -0.0000  -0.0000

          k = 1.1980 0.6869 0.1083 ( 18740 PWs)   bands (ev):

   -49.8585 -26.2970 -25.8995 -25.7523 -11.1130  -8.9040  -8.7172  -0.3135
     0.7842   1.1024   1.3859   1.9050   2.4473   2.5736   3.4197   3.8252
     8.1300   8.9191   9.1368   9.5296  11.1994

     occupation numbers 
     1.0000   1.0000   1.0000   1.0000   1.0000   1.0000   1.0000   1.0000
     1.0000   1.0000   1.0000   1.0000   1.0000   1.0000   1.0000   1.0000
    -0.0000  -0.0000  -0.0000  -0.0000  -0.0000

          k =-0.5990-0.8586 0.1083 ( 18746 PWs)   bands (ev):

   -49.8618 -26.3189 -25.8463 -25.7612 -10.9848  -8.8897  -8.8780  -0.6576
     1.0055   1.2855   1.6875   1.7081   2.1120   2.8018   3.6108   3.6935
     7.3497   9.1386   9.3367   9.4436  11.4213

     occupation numbers 
     1.0000   1.0000   1.0000   1.0000   1.0000   1.0000   1.0000   1.0000
     1.0000   1.0000   1.0000   1.0000   1.0000   1.0000   1.0000   1.0000
    -0.0000  -0.0000  -0.0000  -0.0000  -0.0000

          k =-0.3993-0.6869 0.1083 ( 18737 PWs)   bands (ev):

   -49.8666 -26.3083 -25.7813 -25.7736 -11.1701  -9.1062  -8.8656  -0.3572
     1.1121   1.4229   1.6204   1.9877   2.5796   3.1215   3.5869   3.8326
     6.5662   8.8747   9.2093   9.2933  11.3506

     occupation numbers 
     1.0000   1.0000   1.0000   1.0000   1.0000   1.0000   1.0000   1.0000
     1.0000   1.0000   1.0000   1.0000   1.0000   1.0000   1.0000   1.0000
     0.9290  -0.0000  -0.0000  -0.0000  -0.0000

          k =-0.1997-0.5152 0.1083 ( 18743 PWs)   bands (ev):

   -49.8710 -26.2685 -25.7848 -25.7292 -11.5743  -9.3092  -8.8429   0.4740
     0.9575   1.2747   2.3019   2.4401   3.1108   3.5159   3.6410   3.9277
     5.9251   8.6759   8.7690   8.8253  10.7171

     occupation numbers 
     1.0000   1.0000   1.0000   1.0000   1.0000   1.0000   1.0000   1.0000
     1.0000   1.0000   1.0000   1.0000   1.0000   1.0000   1.0000   1.0000
     1.0000  -0.0000  -0.0000  -0.0000  -0.0000

          k = 0.0000-0.3435 0.1083 ( 18731 PWs)   bands (ev):

   -49.8735 -26.2138 -25.7905 -25.7104 -12.0091  -9.4222  -8.8295   0.7633
     1.5913   1.6502   2.5459   3.0250   3.2852   3.5849   3.9161   4.0831
     5.5859   8.0528   8.1203   8.7375  10.0707

     occupation numbers 
     1.0000   1.0000   1.0000   1.0000   1.0000   1.0000   1.0000   1.0000
     1.0000   1.0000   1.0000   1.0000   1.0000   1.0000   1.0000   1.0000
     1.0000  -0.0000  -0.0000  -0.0000  -0.0000

          k = 0.1997-0.1717 0.1083 ( 18734 PWs)   bands (ev):

   -49.8729 -26.1656 -25.7886 -25.7326 -12.3141  -9.4126  -8.8272   0.8192
     2.2357   2.3516   2.5868   3.1137   3.2436   3.6640   3.9128   4.0595
     5.8395   7.3857   7.4927   8.7250   9.8929

     occupation numbers 
     1.0000   1.0000   1.0000   1.0000   1.0000   1.0000   1.0000   1.0000
     1.0000   1.0000   1.0000   1.0000   1.0000   1.0000   1.0000   1.0000
     1.0000  -0.0000  -0.0000  -0.0000  -0.0000

          k = 0.5990 0.0000 0.1625 ( 18704 PWs)   bands (ev):

   -49.8651 -26.1381 -25.8533 -25.7679 -12.3644  -9.0873  -8.8493   1.2694
     1.6054   1.9594   2.3370   3.0560   3.3853   3.4658   3.7133   3.7908
     6.8423   6.9419   7.2260   9.3266  10.0470

     occupation numbers 
     1.0000   1.0000   1.0000   1.0000   1.0000   1.0000   1.0000   1.0000
     1.0000   1.0000   1.0000   1.0000   1.0000   1.0000   1.0000   1.0000
    -0.0310  -0.0194  -0.0000  -0.0000  -0.0000

          k = 0.7986 0.1717 0.1625 ( 18728 PWs)   bands (ev):

   -49.8612 -26.1516 -25.9054 -25.7576 -12.2208  -8.9443  -8.8189   0.9611
     1.4236   1.8721   2.0026   2.7870   2.9262   3.3120   3.8001   3.9432
     6.9420   7.0031   8.0470   9.6923  10.2336

     occupation numbers 
     1.0000   1.0000   1.0000   1.0000   1.0000   1.0000   1.0000   1.0000
     1.0000   1.0000   1.0000   1.0000   1.0000   1.0000   1.0000   1.0000
    -0.0194  -0.0067  -0.0000  -0.0000  -0.0000

          k = 0.9983 0.3435 0.1625 ( 18736 PWs)   bands (ev):

   -49.8589 -26.1956 -25.9236 -25.7523 -11.8965  -8.9284  -8.7271   0.7626
     1.3459   1.4698   1.7603   1.9703   2.7345   3.0225   3.6665   4.0341
     7.4544   7.6642   8.4648   9.7395  10.6487

     occupation numbers 
     1.0000   1.0000   1.0000   1.0000   1.0000   1.0000   1.0000   1.0000
     1.0000   1.0000   1.0000   1.0000   1.0000   1.0000   1.0000   1.0000
    -0.0000  -0.0000  -0.0000  -0.0000  -0.0000

          k = 1.1980 0.5152 0.1625 ( 18727 PWs)   bands (ev):

   -49.8593 -26.2529 -25.9013 -25.7540 -11.4870  -8.9353  -8.7282   0.5455
     0.9989   1.1063   1.3254   2.0320   2.6050   2.7247   3.5577   3.9047
     8.1163   8.2726   8.5128   9.5020  10.9768

     occupation numbers 
     1.0000   1.0000   1.0000   1.0000   1.0000   1.0000   1.0000   1.0000
     1.0000   1.0000   1.0000   1.0000   1.0000   1.0000   1.0000   1.0000
    -0.0000  -0.0000  -0.0000  -0.0000  -0.0000

          k = 1.3976 0.6869 0.1625 ( 18740 PWs)   bands (ev):

   -49.8621 -26.3021 -25.8470 -25.7619 -11.1385  -8.9346  -8.8482  -0.3338
     1.0727   1.2931   1.6174   1.7105   2.2977   2.8702   3.6278   3.7106
     7.3633   8.9650   9.1953   9.2243  11.3273

     occupation numbers 
     1.0000   1.0000   1.0000   1.0000   1.0000   1.0000   1.0000   1.0000
     1.0000   1.0000   1.0000   1.0000   1.0000   1.0000   1.0000   1.0000
    -0.0000  -0.0000  -0.0000  -0.0000  -0.0000

          k =-0.3993-0.8586 0.1625 ( 18714 PWs)   bands (ev):

   -49.8662 -26.3252 -25.7807 -25.7730 -11.0151  -9.0548  -8.9041  -0.6799
     1.0214   1.3707   1.6961   1.8853   2.5927   3.0565   3.5009   3.8510
     6.6023   8.8549   9.4537   9.5076  11.4132

     occupation numbers 
     1.0000   1.0000   1.0000   1.0000   1.0000   1.0000   1.0000   1.0000
     1.0000   1.0000   1.0000   1.0000   1.0000   1.0000   1.0000   1.0000
     0.8100  -0.0000  -0.0000  -0.0000  -0.0000

          k =-0.1997-0.6869 0.1625 ( 18729 PWs)   bands (ev):

   -49.8702 -26.3133 -25.7831 -25.7276 -11.1951  -9.2368  -8.8818  -0.3763
     0.8563   1.2554   2.0321   2.3342   2.8926   3.4650   3.5379   3.9539
     5.9717   8.7952   9.3067   9.3673  11.0037

     occupation numbers 
     1.0000   1.0000   1.0000   1.0000   1.0000   1.0000   1.0000   1.0000
     1.0000   1.0000   1.0000   1.0000   1.0000   1.0000   1.0000   1.0000
     1.0000  -0.0000  -0.0000  -0.0000  -0.0000

          k =-0.0000-0.5152 0.1625 ( 18744 PWs)   bands (ev):

   -49.8724 -26.2703 -25.7884 -25.7085 -11.5843  -9.3469  -8.8611   0.4624
     0.8630   1.2679   2.5962   2.7015   2.7639   3.5326   3.9600   3.9948
     5.6327   8.7285   8.7975   8.8632  10.5276

     occupation numbers 
     1.0000   1.0000   1.0000   1.0000   1.0000   1.0000   1.0000   1.0000
     1.0000   1.0000   1.0000   1.0000   1.0000   1.0000   1.0000   1.0000
     1.0000  -0.0000  -0.0000  -0.0000  -0.0000

          k = 0.1997-0.3435 0.1625 ( 18717 PWs)   bands (ev):

   -49.8721 -26.2121 -25.7869 -25.7311 -11.9982  -9.3541  -8.8489   0.9155
     1.6028   1.7341   2.3497   2.7893   3.1598   3.5576   3.7239   4.0409
     5.8886   8.0268   8.0344   8.7542  10.3895

     occupation numbers 
     1.0000   1.0000   1.0000   1.0000   1.0000   1.0000   1.0000   1.0000
     1.0000   1.0000   1.0000   1.0000   1.0000   1.0000   1.0000   1.0000
     1.0000  -0.0000  -0.0000  -0.0000  -0.0000

          k = 0.3993-0.1717 0.1625 ( 18718 PWs)   bands (ev):

   -49.8693 -26.1613 -25.7866 -25.7791 -12.2851  -9.2565  -8.8464   1.1074
     2.0629   2.2416   2.4985   2.6206   3.1099   3.2885   3.8514   4.0517
     6.4514   7.2164   7.3831   8.9025  10.2837

     occupation numbers 
     1.0000   1.0000   1.0000   1.0000   1.0000   1.0000   1.0000   1.0000
     1.0000   1.0000   1.0000   1.0000   1.0000   1.0000   1.0000   1.0000
     1.0341  -0.0000  -0.0000  -0.0000  -0.0000

          k = 0.7986 0.0000 0.2166 ( 18717 PWs)   bands (ev):

   -49.8615 -26.1339 -25.9061 -25.7583 -12.3353  -8.9711  -8.8066   0.9130
     1.3390   2.0090   2.0544   3.1686   3.4369   3.5103   3.7070   3.8131
     6.6897   6.7513   8.0452   9.5835   9.9397

     occupation numbers 
     1.0000   1.0000   1.0000   1.0000   1.0000   1.0000   1.0000   1.0000
     1.0000   1.0000   1.0000   1.0000   1.0000   1.0000   1.0000   1.0000
     0.3860   0.1227  -0.0000  -0.0000  -0.0000

          k = 0.9983 0.1717 0.2166 ( 18717 PWs)   bands (ev):

   -49.8598 -26.1499 -25.9255 -25.7540 -12.2098  -8.9485  -8.7492   0.7073
     1.3402   1.8384   1.9511   2.8559   2.9827   3.4791   3.8518   3.8571
     6.8854   6.9308   8.4475   9.6522  10.1837

     occupation numbers 
     1.0000   1.0000   1.0000   1.0000   1.0000   1.0000   1.0000   1.0000
     1.0000   1.0000   1.0000   1.0000   1.0000   1.0000   1.0000   1.0000
    -0.0339  -0.0225  -0.0000  -0.0000  -0.0000

          k = 1.1980 0.3435 0.2166 ( 18722 PWs)   bands (ev):

   -49.8603 -26.1973 -25.9036 -25.7560 -11.9072  -8.9629  -8.7537   0.9292
     1.2795   1.4782   1.7716   2.1209   2.7488   2.9908   3.7353   3.9967
     7.4937   7.7094   8.1080   9.5160  10.6106

     occupation numbers 
     1.0000   1.0000   1.0000   1.0000   1.0000   1.0000   1.0000   1.0000
     1.0000   1.0000   1.0000   1.0000   1.0000   1.0000   1.0000   1.0000
    -0.0000  -0.0000  -0.0000  -0.0000  -0.0000

          k = 1.3976 0.5152 0.2166 ( 18727 PWs)   bands (ev):

   -49.8629 -26.2577 -25.8487 -25.7635 -11.5139  -8.9886  -8.8357   0.5221
     1.3093   1.3427   1.5736   1.8557   2.4266   2.9262   3.6732   3.8983
     7.3417   8.3854   8.5864   9.1599  11.1303

     occupation numbers 
     1.0000   1.0000   1.0000   1.0000   1.0000   1.0000   1.0000   1.0000
     1.0000   1.0000   1.0000   1.0000   1.0000   1.0000   1.0000   1.0000
    -0.0000  -0.0000  -0.0000  -0.0000  -0.0000

          k = 1.5973 0.6869 0.2166 ( 18721 PWs)   bands (ev):

   -49.8666 -26.3083 -25.7813 -25.7736 -11.1697  -9.0635  -8.9109  -0.3580
     1.0955   1.4540   1.6705   1.9555   2.5827   3.0795   3.4907   3.9304
     6.6039   8.8237   9.2359   9.2672  11.3516

     occupation numbers 
     1.0000   1.0000   1.0000   1.0000   1.0000   1.0000   1.0000   1.0000
     1.0000   1.0000   1.0000   1.0000   1.0000   1.0000   1.0000   1.0000
     0.8037  -0.0000  -0.0000  -0.0000  -0.0000

          k =-0.1997-0.8586 0.2166 ( 18713 PWs)   bands (ev):

   -49.8698 -26.3303 -25.7824 -25.7270 -11.0392  -9.1915  -8.9167  -0.6979
     0.7763   1.3999   1.8545   2.2588   2.8215   3.4288   3.5068   3.9717
     5.9942   8.8120   9.5338   9.5930  11.1234

     occupation numbers 
     1.0000   1.0000   1.0000   1.0000   1.0000   1.0000   1.0000   1.0000
     1.0000   1.0000   1.0000   1.0000   1.0000   1.0000   1.0000   1.0000
     1.0000  -0.0000  -0.0000  -0.0000  -0.0000

          k = 0.0000-0.6869 0.2166 ( 18735 PWs)   bands (ev):

   -49.8716 -26.3153 -25.7867 -25.7070 -11.2045  -9.2748  -8.9005  -0.3838
     0.7536   1.2601   2.3263   2.4671   2.6418   3.4634   3.9409   3.9733
     5.6707   8.8508   9.3046   9.4386  10.8403

     occupation numbers 
     1.0000   1.0000   1.0000   1.0000   1.0000   1.0000   1.0000   1.0000
     1.0000   1.0000   1.0000   1.0000   1.0000   1.0000   1.0000   1.0000
     1.0000  -0.0000  -0.0000  -0.0000  -0.0000

          k = 0.1997-0.5152 0.2166 ( 18734 PWs)   bands (ev):

   -49.8710 -26.2685 -25.7848 -25.7292 -11.5739  -9.2772  -8.8803   0.4702
     0.9946   1.4057   2.1841   2.4758   2.9427   3.5241   3.5687   4.0345
     5.9440   8.7118   8.7537   8.8133  10.8140

     occupation numbers 
     1.0000   1.0000   1.0000   1.0000   1.0000   1.0000   1.0000   1.0000
     1.0000   1.0000   1.0000   1.0000   1.0000   1.0000   1.0000   1.0000
     1.0000  -0.0000  -0.0000  -0.0000  -0.0000

          k = 0.3993-0.3435 0.2166 ( 18716 PWs)   bands (ev):

   -49.8684 -26.2075 -25.7850 -25.7774 -11.9699  -9.2012  -8.8619   1.1779
     1.6137   1.9051   2.0245   2.3367   2.6370   3.2665   3.7223   4.1076
     6.5074   7.8345   7.9510   8.8805  10.7835

     occupation numbers 
     1.0000   1.0000   1.0000   1.0000   1.0000   1.0000   1.0000   1.0000
     1.0000   1.0000   1.0000   1.0000   1.0000   1.0000   1.0000   1.0000
     1.0230  -0.0000  -0.0000  -0.0000  -0.0000

          k = 0.5990-0.1717 0.2166 ( 18712 PWs)   bands (ev):

   -49.8648 -26.1559 -25.8526 -25.7673 -12.2495  -9.0753  -8.8443   1.2568
     1.5452   1.9266   2.3078   2.6842   3.0210   3.2124   3.8034   4.0159
     7.0147   7.1798   7.2913   9.2503  10.2964

     occupation numbers 
     1.0000   1.0000   1.0000   1.0000   1.0000   1.0000   1.0000   1.0000
     1.0000   1.0000   1.0000   1.0000   1.0000   1.0000   1.0000   1.0000
    -0.0052  -0.0000  -0.0000  -0.0000  -0.0000

          k =-0.9983 0.0000-0.2708 ( 18712 PWs)   bands (ev):

   -49.8601 -26.1323 -25.9262 -25.7546 -12.3242  -8.9561  -8.7575   0.6853
     1.3280   1.9175   2.0334   3.3102   3.3382   3.4763   3.7580   3.9316
     6.5683   6.7211   8.4386   9.5260  10.0172

     occupation numbers 
     1.0000   1.0000   1.0000   1.0000   1.0000   1.0000   1.0000   1.0000
     1.0000   1.0000   1.0000   1.0000   1.0000   1.0000   1.0000   1.0000
     0.9233   0.2381  -0.0000  -0.0000  -0.0000

          k =-0.7986 0.1717-0.2708 ( 18714 PWs)   bands (ev):

   -49.8612 -26.1516 -25.9054 -25.7577 -12.2207  -8.9771  -8.7830   0.9034
     1.2904   1.8726   2.1106   2.7966   3.0031   3.3958   3.7762   3.9610
     6.9258   6.9961   8.0724   9.5491  10.1474

     occupation numbers 
     1.0000   1.0000   1.0000   1.0000   1.0000   1.0000   1.0000   1.0000
     1.0000   1.0000   1.0000   1.0000   1.0000   1.0000   1.0000   1.0000
    -0.0239  -0.0077  -0.0000  -0.0000  -0.0000

          k =-0.5990 0.3435-0.2708 ( 18729 PWs)   bands (ev):

   -49.8640 -26.2019 -25.8509 -25.7656 -11.9352  -9.0395  -8.8373   1.2755
     1.4557   1.6382   1.8467   2.1256   2.5749   3.0013   3.7801   4.0605
     7.2774   7.6518   7.8264   9.1872  10.7788

     occupation numbers 
     1.0000   1.0000   1.0000   1.0000   1.0000   1.0000   1.0000   1.0000
     1.0000   1.0000   1.0000   1.0000   1.0000   1.0000   1.0000   1.0000
    -0.0000  -0.0000  -0.0000  -0.0000  -0.0000

          k =-0.3993 0.5152-0.2708 ( 18720 PWs)   bands (ev):

   -49.8674 -26.2637 -25.7830 -25.7753 -11.5471  -9.1288  -8.8849   0.4931
     1.2387   1.6189   1.7364   2.1373   2.5346   3.2057   3.5521   4.0399
     6.5683   8.5588   8.6666   8.8939  11.1542

     occupation numbers 
     1.0000   1.0000   1.0000   1.0000   1.0000   1.0000   1.0000   1.0000
     1.0000   1.0000   1.0000   1.0000   1.0000   1.0000   1.0000   1.0000
     0.9232  -0.0000  -0.0000  -0.0000  -0.0000

          k =-0.1997 0.6869-0.2708 ( 18728 PWs)   bands (ev):

   -49.8702 -26.3133 -25.7831 -25.7276 -11.1948  -9.2091  -8.9129  -0.3769
     0.8525   1.4222   1.9057   2.3189   2.8350   3.4403   3.5273   4.0010
     5.9841   8.8074   9.2972   9.3696  11.0636

     occupation numbers 
     1.0000   1.0000   1.0000   1.0000   1.0000   1.0000   1.0000   1.0000
     1.0000   1.0000   1.0000   1.0000   1.0000   1.0000   1.0000   1.0000
     1.0000  -0.0000  -0.0000  -0.0000  -0.0000

          k =-1.9966-0.8586-0.2708 ( 18722 PWs)   bands (ev):

   -49.8712 -26.3322 -25.7860 -25.7064 -11.0483  -9.2423  -8.9217  -0.7047
     0.6795   1.3359   2.1354   2.3846   2.6588   3.4367   3.9220   3.9704
     5.6853   8.8704   9.5345   9.6588  10.9511

     occupation numbers 
     1.0000   1.0000   1.0000   1.0000   1.0000   1.0000   1.0000   1.0000
     1.0000   1.0000   1.0000   1.0000   1.0000   1.0000   1.0000   1.0000
     1.0000  -0.0000  -0.0000  -0.0000  -0.0000

          k = 0.3993 0.3435 0.1083 ( 18731 PWs)   bands (ev):

   -49.8684 -26.2075 -25.7850 -25.7774 -11.9703  -9.2255  -8.8349   1.1513
     1.6333   1.8473   2.0475   2.3899   2.6562   3.2099   3.8178   4.0424
     6.4638   7.8450   7.9360   8.9575  10.7771

     occupation numbers 
     1.0000   1.0000   1.0000   1.0000   1.0000   1.0000   1.0000   1.0000
     1.0000   1.0000   1.0000   1.0000   1.0000   1.0000   1.0000   1.0000
     1.0354  -0.0000  -0.0000  -0.0000  -0.0000

          k = 0.5990 0.5152 0.1083 ( 18742 PWs)   bands (ev):

   -49.8629 -26.2577 -25.8487 -25.7635 -11.5143  -8.9816  -8.8449   0.5256
     1.3963   1.6033   1.6911   1.7674   2.0401   2.7344   3.7299   3.9931
     7.2609   8.4081   8.5730   9.3402  11.3001

     occupation numbers 
     1.0000   1.0000   1.0000   1.0000   1.0000   1.0000   1.0000   1.0000
     1.0000   1.0000   1.0000   1.0000   1.0000   1.0000   1.0000   1.0000
    -0.0000  -0.0000  -0.0000  -0.0000  -0.0000

          k = 0.7986 0.6869 0.1083 ( 18753 PWs)   bands (ev):

   -49.8585 -26.2970 -25.8995 -25.7523 -11.1131  -8.8718  -8.7525  -0.3135
     0.8189   1.1518   1.6945   1.7436   2.2485   2.3781   3.4401   3.9391
     8.0840   8.9224   9.1349   9.6448  11.3537

     occupation numbers 
     1.0000   1.0000   1.0000   1.0000   1.0000   1.0000   1.0000   1.0000
     1.0000   1.0000   1.0000   1.0000   1.0000   1.0000   1.0000   1.0000
    -0.0000  -0.0000  -0.0000  -0.0000  -0.0000

          k = 0.9983 0.8586 0.1083 ( 18738 PWs)   bands (ev):

   -49.8568 -26.3118 -25.9187 -25.7480 -10.9503  -8.8749  -8.6681  -0.6326
     0.5877   0.9523   1.7699   1.8762   1.9377   2.6086   3.2473   3.8960
     8.4858   9.1492   9.3437   9.7644  11.3785

     occupation numbers 
     1.0000   1.0000   1.0000   1.0000   1.0000   1.0000   1.0000   1.0000
     1.0000   1.0000   1.0000   1.0000   1.0000   1.0000   1.0000   1.0000
    -0.0000  -0.0000  -0.0000  -0.0000  -0.0000

          k = 0.0000 0.0000 0.1083 ( 18763 PWs)   bands (ev):

   -49.8746 -26.1493 -25.7929 -25.7124 -12.4406  -9.4816  -8.8249   0.6917
     2.5074   2.7022   2.8451   3.0077   3.4226   3.8589   4.1579   4.2631
     5.5376   7.1785   7.3422   8.7014   9.4213

     occupation numbers 
     1.0000   1.0000   1.0000   1.0000   1.0000   1.0000   1.0000   1.0000
     1.0000   1.0000   1.0000   1.0000   1.0000   1.0000   1.0000   1.0000
     1.0000  -0.0000  -0.0000  -0.0000  -0.0000

          k = 0.5990 0.3435 0.1625 ( 18723 PWs)   bands (ev):

   -49.8640 -26.2019 -25.8509 -25.7656 -11.9355  -9.0358  -8.8426   1.3499
     1.5400   1.7099   1.8839   2.0529   2.3820   2.8851   3.8181   4.0881
     7.2118   7.6813   7.8216   9.3240  10.8916

     occupation numbers 
     1.0000   1.0000   1.0000   1.0000   1.0000   1.0000   1.0000   1.0000
     1.0000   1.0000   1.0000   1.0000   1.0000   1.0000   1.0000   1.0000
    -0.0000  -0.0000  -0.0000  -0.0000  -0.0000

          k = 0.7986 0.5152 0.1625 ( 18744 PWs)   bands (ev):

   -49.8593 -26.2529 -25.9013 -25.7540 -11.4872  -8.8945  -8.7731   0.5469
     1.0942   1.1154   1.6051   1.8923   2.4091   2.4725   3.5790   4.0376
     8.0141   8.3213   8.5080   9.6674  11.1746

     occupation numbers 
     1.0000   1.0000   1.0000   1.0000   1.0000   1.0000   1.0000   1.0000
     1.0000   1.0000   1.0000   1.0000   1.0000   1.0000   1.0000   1.0000
    -0.0000  -0.0000  -0.0000  -0.0000  -0.0000

          k = 0.9983 0.6869 0.1625 ( 18740 PWs)   bands (ev):

   -49.8571 -26.2951 -25.9194 -25.7487 -11.1032  -8.8828  -8.6768  -0.3056
     0.6949   0.9166   1.6596   1.8970   2.1209   2.6427   3.2810   3.9462
     8.4818   8.8809   9.1112   9.7472  11.2984

     occupation numbers 
     1.0000   1.0000   1.0000   1.0000   1.0000   1.0000   1.0000   1.0000
     1.0000   1.0000   1.0000   1.0000   1.0000   1.0000   1.0000   1.0000
    -0.0000  -0.0000  -0.0000  -0.0000  -0.0000

          k = 1.1980 0.8586 0.1625 ( 18745 PWs)   bands (ev):

   -49.8581 -26.3137 -25.8988 -25.7517 -10.9599  -8.8788  -8.7276  -0.6395
     0.7051   1.1347   1.5582   1.7666   2.3073   2.4553   3.3688   3.8499
     8.1153   9.1691   9.3752   9.5950  11.3445

     occupation numbers 
     1.0000   1.0000   1.0000   1.0000   1.0000   1.0000   1.0000   1.0000
     1.0000   1.0000   1.0000   1.0000   1.0000   1.0000   1.0000   1.0000
    -0.0000  -0.0000  -0.0000  -0.0000  -0.0000

          k =-0.5990-0.6869 0.1625 ( 18756 PWs)   bands (ev):

   -49.8621 -26.3021 -25.8470 -25.7619 -11.1387  -8.9278  -8.8562  -0.3334
     1.1195   1.4290   1.6270   1.7196   2.0800   2.7636   3.6307   3.8090
     7.3205   8.9852   9.1815   9.3150  11.4298

     occupation numbers 
     1.0000   1.0000   1.0000   1.0000   1.0000   1.0000   1.0000   1.0000
     1.0000   1.0000   1.0000   1.0000   1.0000   1.0000   1.0000   1.0000
    -0.0000  -0.0000  -0.0000  -0.0000  -0.0000

          k =-0.3993-0.5152 0.1625 ( 18734 PWs)   bands (ev):

   -49.8674 -26.2637 -25.7830 -25.7753 -11.5474  -9.1579  -8.8534   0.4961
     1.2418   1.5124   1.8275   2.1275   2.5418   3.1952   3.6558   3.9641
     6.5305   8.5688   8.6492   8.9546  11.1519

     occupation numbers 
     1.0000   1.0000   1.0000   1.0000   1.0000   1.0000   1.0000   1.0000
     1.0000   1.0000   1.0000   1.0000   1.0000   1.0000   1.0000   1.0000
     0.9994  -0.0000  -0.0000  -0.0000  -0.0000

          k = 0.0000-0.1717 0.1625 ( 18750 PWs)   bands (ev):

   -49.8743 -26.1672 -25.7923 -25.7119 -12.3249  -9.4480  -8.8477   0.7713
     2.2134   2.5357   2.5720   3.2177   3.3071   3.6590   4.0434   4.1590
     5.5586   7.4605   7.5448   8.7480   9.7140

     occupation numbers 
     1.0000   1.0000   1.0000   1.0000   1.0000   1.0000   1.0000   1.0000
     1.0000   1.0000   1.0000   1.0000   1.0000   1.0000   1.0000   1.0000
     1.0000  -0.0000  -0.0000  -0.0000  -0.0000

          k = 0.1997 0.0000 0.1625 ( 18750 PWs)   bands (ev):

   -49.8732 -26.1476 -25.7893 -25.7332 -12.4293  -9.4119  -8.8472   0.8507
     2.3563   2.6389   2.8622   3.0936   3.1940   3.7447   3.9998   4.0828
     5.8467   7.1099   7.3193   8.7146   9.7115

     occupation numbers 
     1.0000   1.0000   1.0000   1.0000   1.0000   1.0000   1.0000   1.0000
     1.0000   1.0000   1.0000   1.0000   1.0000   1.0000   1.0000   1.0000
     1.0000  -0.0004  -0.0000  -0.0000  -0.0000

          k = 0.7986 0.3435 0.2166 ( 18719 PWs)   bands (ev):

   -49.8603 -26.1973 -25.9036 -25.7560 -11.9073  -8.9369  -8.7826   0.9758
     1.3715   1.5560   1.7745   2.0177   2.6301   2.8746   3.7430   4.0589
     7.4820   7.7091   8.0913   9.6358  10.7279

     occupation numbers 
     1.0000   1.0000   1.0000   1.0000   1.0000   1.0000   1.0000   1.0000
     1.0000   1.0000   1.0000   1.0000   1.0000   1.0000   1.0000   1.0000
    -0.0000  -0.0000  -0.0000  -0.0000  -0.0000

          k = 0.9983 0.5152 0.2166 ( 18748 PWs)   bands (ev):

   -49.8579 -26.2510 -25.9213 -25.7503 -11.4768  -8.9033  -8.6995   0.5493
     0.8626   0.9968   1.5525   1.8911   2.4466   2.7600   3.4302   4.0248
     8.2130   8.4766   8.4831   9.7379  11.0740

     occupation numbers 
     1.0000   1.0000   1.0000   1.0000   1.0000   1.0000   1.0000   1.0000
     1.0000   1.0000   1.0000   1.0000   1.0000   1.0000   1.0000   1.0000
    -0.0000  -0.0000  -0.0000  -0.0000  -0.0000

          k = 1.1980 0.6869 0.2166 ( 18745 PWs)   bands (ev):

   -49.8585 -26.2970 -25.8995 -25.7523 -11.1130  -8.8955  -8.7267  -0.3135
     0.8020   1.0920   1.4885   1.8433   2.3912   2.5365   3.4125   3.8683
     8.1175   8.9094   9.1377   9.5683  11.2630

     occupation numbers 
     1.0000   1.0000   1.0000   1.0000   1.0000   1.0000   1.0000   1.0000
     1.0000   1.0000   1.0000   1.0000   1.0000   1.0000   1.0000   1.0000
    -0.0000  -0.0000  -0.0000  -0.0000  -0.0000

          k = 1.3976 0.8586 0.2166 ( 18755 PWs)   bands (ev):

   -49.8618 -26.3189 -25.8463 -25.7612 -10.9848  -8.8896  -8.8781  -0.6576
     0.9963   1.3302   1.6389   1.6847   2.1548   2.7994   3.6301   3.6695
     7.3495   9.0991   9.3867   9.4369  11.4509

     occupation numbers 
     1.0000   1.0000   1.0000   1.0000   1.0000   1.0000   1.0000   1.0000
     1.0000   1.0000   1.0000   1.0000   1.0000   1.0000   1.0000   1.0000
    -0.0000  -0.0000  -0.0000  -0.0000  -0.0000

          k =-0.3993-0.6869 0.2166 ( 18732 PWs)   bands (ev):

   -49.8666 -26.3083 -25.7813 -25.7736 -11.1700  -9.0895  -8.8835  -0.3576
     1.0914   1.4813   1.6071   1.9865   2.5660   3.1001   3.5490   3.8804
     6.5830   8.8508   9.2299   9.2726  11.3517

     occupation numbers 
     1.0000   1.0000   1.0000   1.0000   1.0000   1.0000   1.0000   1.0000
     1.0000   1.0000   1.0000   1.0000   1.0000   1.0000   1.0000   1.0000
     0.8796  -0.0000  -0.0000  -0.0000  -0.0000

          k =-0.0000-0.3435 0.2166 ( 18743 PWs)   bands (ev):

   -49.8735 -26.2138 -25.7906 -25.7104 -12.0086  -9.3822  -8.8784   0.8785
     1.5914   1.7240   2.5824   2.9724   3.0205   3.4769   4.0183   4.0801
     5.5955   8.0524   8.1195   8.8093  10.2373

     occupation numbers 
     1.0000   1.0000   1.0000   1.0000   1.0000   1.0000   1.0000   1.0000
     1.0000   1.0000   1.0000   1.0000   1.0000   1.0000   1.0000   1.0000
     1.0000  -0.0000  -0.0000  -0.0000  -0.0000

          k = 0.1997-0.1717 0.2166 ( 18728 PWs)   bands (ev):

   -49.8729 -26.1656 -25.7886 -25.7326 -12.3137  -9.3743  -8.8736   0.9398
     2.2434   2.3604   2.5896   3.0361   3.1912   3.5694   3.8895   4.0612
     5.8756   7.3793   7.5236   8.7365  10.0099

     occupation numbers 
     1.0000   1.0000   1.0000   1.0000   1.0000   1.0000   1.0000   1.0000
     1.0000   1.0000   1.0000   1.0000   1.0000   1.0000   1.0000   1.0000
     1.0000  -0.0000  -0.0000  -0.0000  -0.0000

          k = 0.3993 0.0000 0.2166 ( 18716 PWs)   bands (ev):

   -49.8696 -26.1434 -25.7872 -25.7797 -12.4000  -9.2571  -8.8635   1.1126
     2.0788   2.2637   2.6825   2.9245   3.2866   3.5385   3.8685   3.9405
     6.4762   6.9502   7.1867   8.8387  10.0038

     occupation numbers 
     1.0000   1.0000   1.0000   1.0000   1.0000   1.0000   1.0000   1.0000
     1.0000   1.0000   1.0000   1.0000   1.0000   1.0000   1.0000   1.0000
     1.0350  -0.0172  -0.0000  -0.0000  -0.0000

          k = 0.9983 0.3435 0.2708 ( 18746 PWs)   bands (ev):

   -49.8589 -26.1956 -25.9236 -25.7523 -11.8965  -8.9284  -8.7271   0.7520
     1.3485   1.5283   1.7535   1.9090   2.7292   3.0578   3.6516   4.0367
     7.4590   7.6649   8.4614   9.7196  10.6704

     occupation numbers 
     1.0000   1.0000   1.0000   1.0000   1.0000   1.0000   1.0000   1.0000
     1.0000   1.0000   1.0000   1.0000   1.0000   1.0000   1.0000   1.0000
    -0.0000  -0.0000  -0.0000  -0.0000  -0.0000

          k = 1.1980 0.5152 0.2708 ( 18738 PWs)   bands (ev):

   -49.8593 -26.2529 -25.9013 -25.7540 -11.4871  -8.9176  -8.7479   0.5461
     1.0409   1.1075   1.4571   1.9615   2.5016   2.6212   3.5621   3.9779
     8.0659   8.2931   8.5103   9.5842  11.0805

     occupation numbers 
     1.0000   1.0000   1.0000   1.0000   1.0000   1.0000   1.0000   1.0000
     1.0000   1.0000   1.0000   1.0000   1.0000   1.0000   1.0000   1.0000
    -0.0000  -0.0000  -0.0000  -0.0000  -0.0000

          k = 1.3976 0.6869 0.2708 ( 18747 PWs)   bands (ev):

   -49.8621 -26.3021 -25.8470 -25.7619 -11.1386  -8.9313  -8.8520  -0.3336
     1.0903   1.3773   1.6375   1.6646   2.2124   2.8192   3.6274   3.7601
     7.3416   8.9541   9.1953   9.2856  11.3933

     occupation numbers 
     1.0000   1.0000   1.0000   1.0000   1.0000   1.0000   1.0000   1.0000
     1.0000   1.0000   1.0000   1.0000   1.0000   1.0000   1.0000   1.0000
    -0.0000  -0.0000  -0.0000  -0.0000  -0.0000

          k = 1.5973 0.8586 0.2708 ( 18726 PWs)   bands (ev):

   -49.8662 -26.3252 -25.7807 -25.7730 -11.0151  -9.0548  -8.9041  -0.6799
     1.0112   1.3906   1.6964   1.8761   2.5996   3.0303   3.5255   3.8454
     6.6025   8.8535   9.4622   9.4991  11.4127

     occupation numbers 
     1.0000   1.0000   1.0000   1.0000   1.0000   1.0000   1.0000   1.0000
     1.0000   1.0000   1.0000   1.0000   1.0000   1.0000   1.0000   1.0000
     0.8089  -0.0000  -0.0000  -0.0000  -0.0000

          k = 0.0000-0.5152 0.2708 ( 18713 PWs)   bands (ev):

   -49.8724 -26.2703 -25.7884 -25.7085 -11.5838  -9.3018  -8.9142   0.4579
     0.9421   1.4150   2.4748   2.6283   2.7017   3.4071   3.9352   4.1098
     5.6411   8.7168   8.8450   8.8763  10.6825

     occupation numbers 
     1.0000   1.0000   1.0000   1.0000   1.0000   1.0000   1.0000   1.0000
     1.0000   1.0000   1.0000   1.0000   1.0000   1.0000   1.0000   1.0000
     1.0000  -0.0000  -0.0000  -0.0000  -0.0000

          k = 0.1997-0.3435 0.2708 ( 18725 PWs)   bands (ev):

   -49.8721 -26.2121 -25.7869 -25.7311 -11.9976  -9.3066  -8.9048   1.0391
     1.6049   1.8207   2.2871   2.7805   2.9769   3.4704   3.6488   4.1618
     5.9191   8.0331   8.0355   8.7786  10.5233

     occupation numbers 
     1.0000   1.0000   1.0000   1.0000   1.0000   1.0000   1.0000   1.0000
     1.0000   1.0000   1.0000   1.0000   1.0000   1.0000   1.0000   1.0000
     1.0000  -0.0000  -0.0000  -0.0000  -0.0000

          k = 0.3993-0.1717 0.2708 ( 18728 PWs)   bands (ev):

   -49.8693 -26.1613 -25.7866 -25.7791 -12.2847  -9.2247  -8.8819   1.1687
     1.9884   2.2263   2.4594   2.6306   3.1424   3.3295   3.8211   4.0651
     6.5126   7.1935   7.4026   8.8033  10.2716

     occupation numbers 
[...]

   -49.8743 -26.1672 -25.7923 -25.7119 -12.3237  -9.3161  -9.0034   1.1892
     2.2421   2.5471   2.6488   2.7557   3.2600   3.4977   3.9918   4.0045
     5.5848   7.4602   7.6264   8.9447  10.0679

     occupation numbers 
     1.0000   1.0000   1.0000   1.0000   1.0000   1.0000   1.0000   1.0000
     1.0000   1.0000   1.0000   1.0000   1.0000   1.0000   1.0000   1.0000
     1.0000  -0.0000  -0.0000  -0.0000  -0.0000

          k = 0.1997 0.0000 0.3791 ( 18731 PWs)   bands (ev):

   -49.8732 -26.1476 -25.7893 -25.7332 -12.4282  -9.2929  -8.9858   1.2387
     2.1396   2.6330   2.7929   3.0645   3.3219   3.5786   3.8711   3.9040
     5.9245   7.0919   7.4158   8.7941   9.8924

     occupation numbers 
     1.0000   1.0000   1.0000   1.0000   1.0000   1.0000   1.0000   1.0000
     1.0000   1.0000   1.0000   1.0000   1.0000   1.0000   1.0000   1.0000
     1.0000  -0.0007  -0.0000  -0.0000  -0.0000

          k =-1.9966-0.3435-0.1083 ( 18719 PWs)   bands (ev):

   -49.8735 -26.2138 -25.7906 -25.7104 -12.0075  -9.2368  -9.0437   1.2140
     1.6542   1.9014   2.3618   2.6804   3.0030   3.1685   3.8677   4.2736
     5.6159   8.0787   8.1185   8.9687  10.5861

     occupation numbers 
     1.0000   1.0000   1.0000   1.0000   1.0000   1.0000   1.0000   1.0000
     1.0000   1.0000   1.0000   1.0000   1.0000   1.0000   1.0000   1.0000
     1.0000  -0.0000  -0.0000  -0.0000  -0.0000

          k =-1.7969-0.1717-0.1083 ( 18721 PWs)   bands (ev):

   -49.8729 -26.1656 -25.7887 -25.7326 -12.3126  -9.2406  -9.0253   1.3562
     1.9982   2.4554   2.5448   2.9317   3.0943   3.4856   3.7575   4.0289
     5.9411   7.3711   7.5815   8.8283  10.1910

     occupation numbers 
     1.0000   1.0000   1.0000   1.0000   1.0000   1.0000   1.0000   1.0000
     1.0000   1.0000   1.0000   1.0000   1.0000   1.0000   1.0000   1.0000
     1.0000  -0.0000  -0.0000  -0.0000  -0.0000

          k =-1.5973 0.0000-0.1083 ( 18700 PWs)   bands (ev):

   -49.8696 -26.1434 -25.7872 -25.7798 -12.3993  -9.1805  -8.9472   1.3107
     1.7472   2.3122   2.6731   2.8570   3.5142   3.6448   3.7761   3.8632
     6.5989   6.8987   7.2246   8.6811   9.9311

     occupation numbers 
     1.0000   1.0000   1.0000   1.0000   1.0000   1.0000   1.0000   1.0000
     1.0000   1.0000   1.0000   1.0000   1.0000   1.0000   1.0000   1.0000
     0.8230  -0.0312  -0.0000  -0.0000  -0.0000

          k = 0.0000 1.2021-0.0542 ( 18696 PWs)   bands (ev):

   -49.8724 -26.2703 -25.7885 -25.7085 -11.5830  -9.1693  -9.0595   0.4525
     1.2458   1.4273   2.3353   2.6885   2.6995   2.9335   3.8340   4.3479
     5.6508   8.7228   8.8585   8.9606  10.8853

     occupation numbers 
     1.0000   1.0000   1.0000   1.0000   1.0000   1.0000   1.0000   1.0000
     1.0000   1.0000   1.0000   1.0000   1.0000   1.0000   1.0000   1.0000
     1.0000  -0.0000  -0.0000  -0.0000  -0.0000

          k =-1.7969-0.3435-0.0542 ( 18706 PWs)   bands (ev):

   -49.8721 -26.2121 -25.7870 -25.7311 -11.9968  -9.1637  -9.0611   1.3182
     1.7039   1.9017   2.0000   2.7124   2.9582   3.2676   3.5046   4.2878
     5.9675   8.0335   8.0365   8.8608  10.7021

     occupation numbers 
     1.0000   1.0000   1.0000   1.0000   1.0000   1.0000   1.0000   1.0000
     1.0000   1.0000   1.0000   1.0000   1.0000   1.0000   1.0000   1.0000
     1.0000  -0.0000  -0.0000  -0.0000  -0.0000

          k =-1.5973-0.1717-0.0542 ( 18715 PWs)   bands (ev):

   -49.8693 -26.1613 -25.7866 -25.7791 -12.2841  -9.1506  -8.9618   1.3805
     1.6435   2.2764   2.4952   2.6129   3.2871   3.3315   3.6959   4.1007
     6.6187   7.1711   7.4147   8.6874  10.2051

     occupation numbers 
     1.0000   1.0000   1.0000   1.0000   1.0000   1.0000   1.0000   1.0000
     1.0000   1.0000   1.0000   1.0000   1.0000   1.0000   1.0000   1.0000
     0.7407  -0.0001  -0.0000  -0.0000  -0.0000

          k =-1.3976 0.0000-0.0542 ( 18723 PWs)   bands (ev):

   -49.8651 -26.1381 -25.8533 -25.7679 -12.3638  -9.0964  -8.8349   1.1148
     1.2830   2.0537   2.5472   2.9638   3.6139   3.6336   3.7904   3.8737
     6.7327   6.9315   7.3786   8.8685   9.7848

     occupation numbers 
     1.0000   1.0000   1.0000   1.0000   1.0000   1.0000   1.0000   1.0000
     1.0000   1.0000   1.0000   1.0000   1.0000   1.0000   1.0000   1.0000
     0.1902  -0.0223  -0.0000  -0.0000  -0.0000

          k =-0.0000 1.0304-0.0000 ( 18729 PWs)   bands (ev):

   -49.8716 -26.3153 -25.7867 -25.7070 -11.2038  -9.1878  -8.9973  -0.3852
     0.9821   1.1653   2.4660   2.5270   2.6849   2.7889   3.8673   4.2833
     5.6730   8.9228   9.3072   9.4373  10.9375

     occupation numbers 
     1.0000   1.0000   1.0000   1.0000   1.0000   1.0000   1.0000   1.0000
     1.0000   1.0000   1.0000   1.0000   1.0000   1.0000   1.0000   1.0000
     1.0000  -0.0000  -0.0000  -0.0000  -0.0000

          k = 0.1997 1.2021-0.0000 ( 18719 PWs)   bands (ev):

   -49.8710 -26.2685 -25.7848 -25.7292 -11.5729  -9.1038  -9.0679   0.4624
     1.3860   1.3988   2.0362   2.4010   2.9637   3.1270   3.4047   4.3104
     5.9890   8.6390   8.7825   8.9199  11.0214

     occupation numbers 
     1.0000   1.0000   1.0000   1.0000   1.0000   1.0000   1.0000   1.0000
     1.0000   1.0000   1.0000   1.0000   1.0000   1.0000   1.0000   1.0000
     1.0000  -0.0000  -0.0000  -0.0000  -0.0000

          k =-1.5973-0.3435-0.0000 ( 18688 PWs)   bands (ev):

   -49.8684 -26.2075 -25.7850 -25.7774 -11.9691  -9.1002  -8.9700   1.4127
     1.4333   1.8220   2.1021   2.1550   2.9345   3.1754   3.5213   4.2172
     6.6334   7.8380   7.9386   8.7372  10.7320

     occupation numbers 
     1.0000   1.0000   1.0000   1.0000   1.0000   1.0000   1.0000   1.0000
     1.0000   1.0000   1.0000   1.0000   1.0000   1.0000   1.0000   1.0000
     0.6725  -0.0000  -0.0000  -0.0000  -0.0000

          k =-1.3976-0.1717-0.0000 ( 18710 PWs)   bands (ev):

   -49.8648 -26.1559 -25.8526 -25.7673 -12.2490  -9.0831  -8.8323   1.1284
     1.2944   1.9226   2.4727   2.7027   3.1970   3.4612   3.7398   4.0491
     6.9872   7.1857   7.3904   8.8741  10.0539

     occupation numbers 
     1.0000   1.0000   1.0000   1.0000   1.0000   1.0000   1.0000   1.0000
     1.0000   1.0000   1.0000   1.0000   1.0000   1.0000   1.0000   1.0000
    -0.0091  -0.0000  -0.0000  -0.0000  -0.0000

          k =-1.1980 0.0000-0.0000 ( 18719 PWs)   bands (ev):

   -49.8615 -26.1339 -25.9061 -25.7583 -12.3351  -9.0250  -8.7453   0.8315
     1.0558   1.9915   2.3458   3.1160   3.4849   3.6391   3.7749   3.9450
     6.6667   6.6744   8.1253   9.3432   9.6602

     occupation numbers 
     1.0000   1.0000   1.0000   1.0000   1.0000   1.0000   1.0000   1.0000
     1.0000   1.0000   1.0000   1.0000   1.0000   1.0000   1.0000   1.0000
     0.5042   0.4641  -0.0000  -0.0000  -0.0000

          k = 0.0000 0.0000 0.4332 ( 18721 PWs)   bands (ev):

   -49.8746 -26.1493 -25.7930 -25.7124 -12.4389  -9.2866  -9.0540   1.3242
     2.2661   2.6722   2.7593   3.3232   3.3264   3.3446   3.8259   4.0686
     5.5762   7.1794   7.5054   8.9859   9.8567

     occupation numbers 
     1.0000   1.0000   1.0000   1.0000   1.0000   1.0000   1.0000   1.0000
     1.0000   1.0000   1.0000   1.0000   1.0000   1.0000   1.0000   1.0000
     1.0000  -0.0000  -0.0000  -0.0000  -0.0000

          k =-1.9966-0.1717-0.0542 ( 18717 PWs)   bands (ev):

   -49.8743 -26.1672 -25.7923 -25.7119 -12.3233  -9.2292  -9.0976   1.4070
     2.1630   2.5085   2.6315   2.6927   3.2367   3.4784   3.9578   3.9639
     5.5886   7.4601   7.6545   9.0055  10.1643

     occupation numbers 
     1.0000   1.0000   1.0000   1.0000   1.0000   1.0000   1.0000   1.0000
     1.0000   1.0000   1.0000   1.0000   1.0000   1.0000   1.0000   1.0000
     1.0000  -0.0000  -0.0000  -0.0000  -0.0000

          k =-1.7969 0.0000-0.0542 ( 18709 PWs)   bands (ev):

   -49.8732 -26.1476 -25.7894 -25.7332 -12.4278  -9.2219  -9.0628   1.4849
     1.8950   2.6910   2.7796   3.0104   3.4216   3.5535   3.7690   3.8595
     5.9404   7.0886   7.4429   8.8386   9.9229

     occupation numbers 
     1.0000   1.0000   1.0000   1.0000   1.0000   1.0000   1.0000   1.0000
     1.0000   1.0000   1.0000   1.0000   1.0000   1.0000   1.0000   1.0000
     1.0000  -0.0008  -0.0000  -0.0000  -0.0000

          k = 0.0000 1.3738 0.0000 ( 18709 PWs)   bands (ev):

   -49.8735 -26.2138 -25.7906 -25.7104 -12.0073  -9.1533  -9.1306   1.2862
     1.7129   1.9107   2.2364   2.7007   2.9981   3.1051   3.8408   4.2969
     5.6191   8.0863   8.1184   8.9958  10.6425

     occupation numbers 
     1.0000   1.0000   1.0000   1.0000   1.0000   1.0000   1.0000   1.0000
     1.0000   1.0000   1.0000   1.0000   1.0000   1.0000   1.0000   1.0000
     1.0000  -0.0000  -0.0000  -0.0000  -0.0000

          k =-1.7969-0.1717 0.0000 ( 18730 PWs)   bands (ev):

   -49.8729 -26.1656 -25.7887 -25.7326 -12.3125  -9.1885  -9.0805   1.5147
     1.8493   2.4900   2.5203   2.9557   3.0583   3.4749   3.7322   4.0199
     5.9503   7.3701   7.5906   8.8513  10.2122

     occupation numbers 
     1.0000   1.0000   1.0000   1.0000   1.0000   1.0000   1.0000   1.0000
     1.0000   1.0000   1.0000   1.0000   1.0000   1.0000   1.0000   1.0000
     1.0000  -0.0000  -0.0000  -0.0000  -0.0000

          k =-1.5973 0.0000 0.0000 ( 18696 PWs)   bands (ev):

   -49.8696 -26.1434 -25.7872 -25.7798 -12.3991  -9.1610  -8.9679   1.3967
     1.6298   2.3387   2.6651   2.8484   3.5902   3.6803   3.7079   3.8406
     6.6208   6.8915   7.2295   8.6624   9.9113

     occupation numbers 
     1.0000   1.0000   1.0000   1.0000   1.0000   1.0000   1.0000   1.0000
     1.0000   1.0000   1.0000   1.0000   1.0000   1.0000   1.0000   1.0000
     0.7314  -0.0327  -0.0000  -0.0000  -0.0000

          k =-1.9966-1.7173-0.5415 ( 18710 PWs)   bands (ev):

   -49.8746 -26.1493 -25.7930 -25.7124 -12.4387  -9.2224  -9.1222   1.4809
     2.1146   2.6980   2.7539   3.3041   3.3090   3.3847   3.7620   4.0475
     5.5762   7.1795   7.5242   9.0195   9.8980

     occupation numbers 
     1.0000   1.0000   1.0000   1.0000   1.0000   1.0000   1.0000   1.0000
     1.0000   1.0000   1.0000   1.0000   1.0000   1.0000   1.0000   1.0000
     1.0000  -0.0000  -0.0000  -0.0000  -0.0000

     the Fermi energy is     6.6675 ev

!    total energy              =    -534.96754281 Ry

     total all-electron energy =     -9636.857785 Ry
     estimated scf accuracy    <          2.6E-11 Ry
     smearing contrib. (-TS)   =      -0.00010160 Ry
     internal energy E=F+TS    =    -534.96744121 Ry

     The total energy is F=E-TS. E is the sum of the following terms:
     one-electron contribution =     -93.92922234 Ry
     hartree contribution      =      61.19778420 Ry
     xc contribution           =     -39.53672764 Ry
     ewald contribution        =    -135.48921389 Ry
     one-center paw contrib.   =    -327.21006153 Ry
      -> PAW hartree energy AE =      29.12782234 Ry
      -> PAW hartree energy PS =     -29.09774588 Ry
      -> PAW xc energy AE      =     -17.04341611 Ry
      -> PAW xc energy PS      =       7.41927466 Ry
      -> total E_H with PAW    =      61.22786066 Ry
      -> total E_XC with PAW   =     -49.16086909 Ry

     convergence has been achieved in  13 iterations

     Forces acting on atoms (cartesian axes, Ry/au):

     atom    1 type  1   force =    -0.00000000   -0.00000000    0.00000000
     atom    2 type  2   force =    -0.00000000   -0.00000000    0.03592318
     atom    3 type  2   force =    -0.00000000   -0.00000000   -0.03592318
     atom    4 type  3   force =     0.00000000    0.00000000    0.00000000
     The non-local contrib.  to forces
     atom    1 type  1   force =    -0.00000000   -0.00000000   -0.00000000
     atom    2 type  2   force =    -0.00000000   -0.00000000    0.06501342
     atom    3 type  2   force =     0.00000000    0.00000000   -0.06501342
     atom    4 type  3   force =     0.00000000    0.00000000    0.00000000
     The ionic contribution  to forces
     atom    1 type  1   force =    -0.00000000   -0.00000000    0.00000000
     atom    2 type  2   force =     0.00000001    0.00000000  -10.07462875
     atom    3 type  2   force =    -0.00000001   -0.00000000   10.07462875
     atom    4 type  3   force =    -0.00000000   -0.00000000    0.00000000
     The local contribution  to forces
     atom    1 type  1   force =     0.00000000    0.00000000   -0.00000000
     atom    2 type  2   force =     0.00000002   -0.00000003   10.04403497
     atom    3 type  2   force =    -0.00000002    0.00000003  -10.04403497
     atom    4 type  3   force =     0.00000000    0.00000000   -0.00000000
     The core correction contribution to forces
     atom    1 type  1   force =     0.00000000    0.00000000    0.00000000
     atom    2 type  2   force =    -0.00000000    0.00000000    0.00150133
     atom    3 type  2   force =     0.00000000   -0.00000000   -0.00150133
     atom    4 type  3   force =     0.00000000    0.00000000    0.00000000
     The Hubbard contrib.    to forces
     atom    1 type  1   force =     0.00000000    0.00000000    0.00000000
     atom    2 type  2   force =     0.00000000    0.00000000    0.00000000
     atom    3 type  2   force =     0.00000000    0.00000000    0.00000000
     atom    4 type  3   force =     0.00000000    0.00000000    0.00000000
     The SCF correction term to forces
     atom    1 type  1   force =     0.00000000    0.00000000    0.00000000
     atom    2 type  2   force =    -0.00000000    0.00000000    0.00000222
     atom    3 type  2   force =     0.00000000   -0.00000000   -0.00000222
     atom    4 type  3   force =     0.00000000    0.00000000    0.00000000

     Total force =     0.050803     Total SCF correction =     0.000003


     Computing stress (Cartesian axis) and pressure

          total   stress  (Ry/bohr**3)                   (kbar)     P=      -39.02
  -0.00028078   0.00000000   0.00000000          -41.30        0.00        0.00
   0.00000000  -0.00025711  -0.00000000            0.00      -37.82       -0.00
   0.00000000  -0.00000000  -0.00025791            0.00       -0.00      -37.94

     kinetic stress (kbar)  14780.34      0.00      0.00
                                0.00  14773.95      0.00
                                0.00      0.00  14795.61

     local   stress (kbar) -18930.63      0.00      0.00
                                0.00 -24136.30      0.00
                                0.00      0.00   4068.49

     nonloc. stress (kbar)   8008.86      0.00     -0.00
                                0.00   7931.94     -0.00
                                0.00      0.00   8007.18

     hartree stress (kbar)   8385.60     -0.00      0.00
                               -0.00  10084.98      0.00
                                0.00      0.00  -2040.58

     exc-cor stress (kbar)  -1130.81     -0.00     -0.00
                               -0.00  -1122.12     -0.00
                               -0.00     -0.00  -1130.39

     corecor stress (kbar)  -2029.53     -0.00      0.00
                               -0.00  -2028.81      0.00
                                0.00      0.00  -2029.54

     ewald   stress (kbar)  -9125.13      0.00     -0.00
                                0.00  -5541.44     -0.00
                               -0.00     -0.00 -21708.70

     hubbard stress (kbar)      0.00      0.00      0.00
                                0.00      0.00      0.00
                                0.00      0.00      0.00

     DFT-D   stress (kbar)      0.00      0.00      0.00
                                0.00      0.00      0.00
                                0.00      0.00      0.00

     XDM     stress (kbar)      0.00      0.00      0.00
                                0.00      0.00      0.00
                                0.00      0.00      0.00

     dft-nl  stress (kbar)      0.00      0.00      0.00
                                0.00      0.00      0.00
                                0.00      0.00      0.00

     TS-vdW  stress (kbar)      0.00      0.00      0.00
                                0.00      0.00      0.00
                                0.00      0.00      0.00



     Writing output data file /zfs_data/gutierre/Scratch/Cl2NbO/convergence/cutoff/10x10x10/160/tmp/Cl2NbO.save/
 
     init_run     :      9.26s CPU      9.58s WALL (       1 calls)
     electrons    :    252.30s CPU    257.17s WALL (       1 calls)
     forces       :      1.36s CPU      1.39s WALL (       1 calls)
     stress       :      3.28s CPU      3.33s WALL (       1 calls)

     Called by init_run:
     wfcinit      :      7.23s CPU      7.39s WALL (       1 calls)
     wfcinit:atom :      0.04s CPU      0.04s WALL (     171 calls)
     wfcinit:wfcr :      7.06s CPU      7.22s WALL (     171 calls)
     potinit      :      0.57s CPU      0.60s WALL (       1 calls)
     hinit0       :      0.74s CPU      0.81s WALL (       1 calls)

     Called by electrons:
     c_bands      :    197.26s CPU    200.72s WALL (      13 calls)
     sum_band     :     49.96s CPU     51.05s WALL (      13 calls)
     v_of_rho     :      2.28s CPU      2.35s WALL (      14 calls)
     v_h          :      0.21s CPU      0.21s WALL (      14 calls)
     v_xc         :      2.38s CPU      2.44s WALL (      16 calls)
     newd         :      1.68s CPU      1.92s WALL (      14 calls)
     PAW_pot      :      0.72s CPU      0.74s WALL (      14 calls)
     mix_rho      :      0.40s CPU      0.41s WALL (      13 calls)

     Called by c_bands:
     init_us_2    :      1.87s CPU      1.97s WALL (    4959 calls)
     cegterg      :    193.43s CPU    196.69s WALL (    2223 calls)

     Called by sum_band:
     sum_band:wei :      0.08s CPU      0.08s WALL (      13 calls)
     sum_band:loo :     47.94s CPU     48.64s WALL (      13 calls)
     sum_band:buf :      0.32s CPU      0.33s WALL (    2223 calls)
     sum_band:ini :      0.88s CPU      0.90s WALL (    2223 calls)
     sum_band:cal :      0.62s CPU      0.63s WALL (    2223 calls)
     sum_band:bec :      0.07s CPU      0.07s WALL (    2223 calls)
     addusdens    :      1.62s CPU      2.00s WALL (      13 calls)
     addusd:skk   :      0.01s CPU      0.01s WALL (      39 calls)
     addusd:dgemm :      0.44s CPU      0.81s WALL (      39 calls)
     addusd:qvan2 :      1.08s CPU      1.09s WALL (      39 calls)

     Called by *egterg:
     cdiaghg      :      4.63s CPU      4.71s WALL (    8023 calls)
     cegterg:over :      2.37s CPU      2.41s WALL (    5800 calls)
     cegterg:upda :      0.83s CPU      0.85s WALL (    5800 calls)
     cegterg:last :      1.28s CPU      1.30s WALL (    4344 calls)
     h_psi        :    188.01s CPU    191.22s WALL (    8194 calls)
     s_psi        :      0.93s CPU      0.94s WALL (    8194 calls)
     g_psi        :      0.15s CPU      0.16s WALL (    5800 calls)

     Called by h_psi:
     h_psi:calbec :      2.99s CPU      3.05s WALL (    8194 calls)
     vloc_psi     :    183.05s CPU    186.17s WALL (    8194 calls)
     add_vuspsi   :      1.52s CPU      1.55s WALL (    8194 calls)

     General routines
     calbec       :      3.74s CPU      3.82s WALL (   11272 calls)
     fft          :      2.38s CPU      2.48s WALL (     205 calls)
     ffts         :      0.05s CPU      0.05s WALL (      27 calls)
     fftw         :    190.93s CPU    194.20s WALL (  280143 calls)
     interpolate  :      0.21s CPU      0.22s WALL (      14 calls)
 
     Parallel routines
     fft_scatt_xy :     33.95s CPU     34.64s WALL (  280375 calls)
     fft_scatt_yz :     58.39s CPU     59.43s WALL (  280375 calls)

     PAW routines
     PAW_pot      :      0.72s CPU      0.74s WALL (      14 calls)
     PAW_symme    :      0.04s CPU      0.04s WALL (      27 calls)
 
     PWSCF        :   4m27.69s CPU   4m35.30s WALL

 
   This run was terminated on:  16:25:43  18May2022            

=------------------------------------------------------------------------------=
   JOB DONE.
=------------------------------------------------------------------------------=
