
     Program PWSCF v.6.7MaX starts on 18May2022 at 17:37:33 

     This program is part of the open-source Quantum ESPRESSO suite
     for quantum simulation of materials; please cite
         "P. Giannozzi et al., J. Phys.:Condens. Matter 21 395502 (2009);
         "P. Giannozzi et al., J. Phys.:Condens. Matter 29 465901 (2017);
          URL http://www.quantum-espresso.org", 
     in publications or presentations arising from this work. More details at
     http://www.quantum-espresso.org/quote

     Parallel version (MPI), running on    48 processors

     MPI processes distributed on     1 nodes
     R & G space division:  proc/nbgrp/npool/nimage =      48
     Waiting for input...
     Reading input from standard input

     Current dimensions of program PWSCF are:
     Max number of different atomic species (ntypx) = 10
     Max number of k-points (npk) =  40000
     Max angular momentum in pseudopotentials (lmaxx) =  3
     file O.pbe-nl-kjpaw_psl.1.0.0.UPF: wavefunction(s)  2S 2P renormalized
     file Cl.pbe-nl-kjpaw_psl.1.0.0.UPF: wavefunction(s)  3S renormalized
     file Nb.pbe-spn-kjpaw_psl.1.0.0.UPF: wavefunction(s)  4S 4P 4D renormalized

     Subspace diagonalization in iterative solution of the eigenvalue problem:
     a serial algorithm will be used

     Message from routine setup:
     using ibrav=0 with symmetry is DISCOURAGED, use correct ibrav instead
 
     Parallelization info
     --------------------
     sticks:   dense  smooth     PW     G-vecs:    dense   smooth      PW
     Min         226      90     28                 8011     2025     357
     Max         227      91     29                 8013     2026     359
     Sum       10861    4353   1363               384583    97215   17183
 


     bravais-lattice index     =            0
     lattice parameter (alat)  =      12.6717  a.u.
     unit-cell volume          =     547.9313 (a.u.)^3
     number of atoms/cell      =            4
     number of atomic types    =            3
     number of electrons       =        33.00
     number of Kohn-Sham states=           21
     kinetic-energy cutoff     =     120.0000  Ry
     charge density cutoff     =    1200.0000  Ry
     scf convergence threshold =      1.0E-10
     mixing beta               =       0.7000
     number of iterations used =            8  plain     mixing
     Exchange-correlation= SLA  PW   PBX  PBC
                           (   1   4   3   4   0   0   0)

     celldm(1)=  12.671676  celldm(2)=   0.000000  celldm(3)=   0.000000
     celldm(4)=   0.000000  celldm(5)=   0.000000  celldm(6)=   0.000000

     crystal axes: (cart. coord. in units of alat)
               a(1) = (  -0.250426   0.291161   0.923316 )  
               a(2) = (   0.250426  -0.291161   0.923316 )  
               a(3) = (   0.250426   0.291161  -0.923316 )  

     reciprocal axes: (cart. coord. in units 2 pi/alat)
               b(1) = (  0.000000  1.717261  0.541527 )  
               b(2) = (  1.996594  0.000000  0.541527 )  
               b(3) = (  1.996594  1.717261  0.000000 )  


     PseudoPot. # 1 for O  read from file:
     /zfs_data/gutierre/Scratch/Cl2NbO/smearing/12x12x12/0.008/pseudo/O.pbe-nl-kjpaw_psl.1.0.0.UPF
     MD5 check sum: df3ddea38124b4e5de5e1084591730e4
     Pseudo is Projector augmented-wave + core cor, Zval =  6.0
     Generated using 'atomic' code by A. Dal Corso  v.6.7MaX
     Shape of augmentation charge: PSQ
     Using radial grid of 1095 points,  4 beta functions with: 
                l(1) =   0
                l(2) =   0
                l(3) =   1
                l(4) =   1
     Q(r) pseudized with 0 coefficients 


     PseudoPot. # 2 for Cl read from file:
     /zfs_data/gutierre/Scratch/Cl2NbO/smearing/12x12x12/0.008/pseudo/Cl.pbe-nl-kjpaw_psl.1.0.0.UPF
     MD5 check sum: 8cf6bde52c08f6236e0f72a8870677af
     Pseudo is Projector augmented-wave + core cor, Zval =  7.0
     Generated using 'atomic' code by A. Dal Corso  v.6.7MaX
     Shape of augmentation charge: PSQ
     Using radial grid of 1157 points,  4 beta functions with: 
                l(1) =   0
                l(2) =   0
                l(3) =   1
                l(4) =   1
     Q(r) pseudized with 0 coefficients 


     PseudoPot. # 3 for Nb read from file:
     /zfs_data/gutierre/Scratch/Cl2NbO/smearing/12x12x12/0.008/pseudo/Nb.pbe-spn-kjpaw_psl.1.0.0.UPF
     MD5 check sum: 1ec1a3aa7bf3cbf7f7e0d720422bce7a
     Pseudo is Projector augmented-wave + core cor, Zval = 13.0
     Generated using 'atomic' code by A. Dal Corso  v.6.7MaX
     Shape of augmentation charge: PSQ
     Using radial grid of 1227 points,  6 beta functions with: 
                l(1) =   0
                l(2) =   0
                l(3) =   1
                l(4) =   1
                l(5) =   2
                l(6) =   2
     Q(r) pseudized with 0 coefficients 


     atomic species   valence    mass     pseudopotential
        O              6.00    15.99940     O ( 1.00)
        Cl             7.00    35.45150     Cl( 1.00)
        Nb            13.00    92.90637     Nb( 1.00)

      8 Sym. Ops., with inversion, found


                                    s                        frac. trans.

      isym =  1     identity                                     

 cryst.   s( 1) = (     1          0          0      )
                  (     0          1          0      )
                  (     0          0          1      )

 cart.    s( 1) = (  1.0000000  0.0000000  0.0000000 )
                  (  0.0000000  1.0000000  0.0000000 )
                  (  0.0000000  0.0000000  1.0000000 )


      isym =  2     180 deg rotation - cart. axis [0,0,1]        

 cryst.   s( 2) = (     0          1          0      )
                  (     1          0          0      )
                  (    -1         -1         -1      )

 cart.    s( 2) = ( -1.0000000  0.0000000  0.0000000 )
                  (  0.0000000 -1.0000000  0.0000000 )
                  (  0.0000000  0.0000000  1.0000000 )


      isym =  3     180 deg rotation - cart. axis [0,1,0]        

 cryst.   s( 3) = (     0          0          1      )
                  (    -1         -1         -1      )
                  (     1          0          0      )

 cart.    s( 3) = ( -1.0000000  0.0000000  0.0000000 )
                  (  0.0000000  1.0000000  0.0000000 )
                  (  0.0000000  0.0000000 -1.0000000 )


      isym =  4     180 deg rotation - cart. axis [1,0,0]        

 cryst.   s( 4) = (    -1         -1         -1      )
                  (     0          0          1      )
                  (     0          1          0      )

 cart.    s( 4) = (  1.0000000  0.0000000  0.0000000 )
                  (  0.0000000 -1.0000000  0.0000000 )
                  (  0.0000000  0.0000000 -1.0000000 )


      isym =  5     inversion                                    

 cryst.   s( 5) = (    -1          0          0      )
                  (     0         -1          0      )
                  (     0          0         -1      )

 cart.    s( 5) = ( -1.0000000  0.0000000  0.0000000 )
                  (  0.0000000 -1.0000000  0.0000000 )
                  (  0.0000000  0.0000000 -1.0000000 )


      isym =  6     inv. 180 deg rotation - cart. axis [0,0,1]   

 cryst.   s( 6) = (     0         -1          0      )
                  (    -1          0          0      )
                  (     1          1          1      )

 cart.    s( 6) = (  1.0000000  0.0000000  0.0000000 )
                  (  0.0000000  1.0000000  0.0000000 )
                  (  0.0000000  0.0000000 -1.0000000 )


      isym =  7     inv. 180 deg rotation - cart. axis [0,1,0]   

 cryst.   s( 7) = (     0          0         -1      )
                  (     1          1          1      )
                  (    -1          0          0      )

 cart.    s( 7) = (  1.0000000  0.0000000  0.0000000 )
                  (  0.0000000 -1.0000000  0.0000000 )
                  (  0.0000000  0.0000000  1.0000000 )


      isym =  8     inv. 180 deg rotation - cart. axis [1,0,0]   

 cryst.   s( 8) = (     1          1          1      )
                  (     0          0         -1      )
                  (     0         -1          0      )

 cart.    s( 8) = ( -1.0000000  0.0000000  0.0000000 )
                  (  0.0000000  1.0000000  0.0000000 )
                  (  0.0000000  0.0000000  1.0000000 )


   Cartesian axes

     site n.     atom                  positions (alat units)
         1           O   tau(   1) = (   0.0000000   0.2911613   0.0000000  )
         2           Cl  tau(   2) = (  -0.0000000   0.2911613   0.6365338  )
         3           Cl  tau(   3) = (   0.2504264  -0.0000000   0.2867819  )
         4           Nb  tau(   4) = (   0.0000000   0.0000000   0.0000000  )

   Crystallographic axes

     site n.     atom                  positions (cryst. coord.)
         1           O   tau(   1) = (  0.5000000  0.0000000  0.5000000  )
         2           Cl  tau(   2) = (  0.8447000  0.3447000  0.5000000  )
         3           Cl  tau(   3) = (  0.1553000  0.6553000  0.5000000  )
         4           Nb  tau(   4) = (  0.0000000  0.0000000  0.0000000  )

     number of k points=   280  Methfessel-Paxton smearing, width (Ry)=  0.0080
                       cart. coord. in units 2pi/alat
        k(    1) = (   0.0000000   0.0000000   0.0000000), wk =   0.0011574
        k(    2) = (   0.1663829   0.1431051   0.0000000), wk =   0.0046296
        k(    3) = (   0.3327657   0.2862102   0.0000000), wk =   0.0046296
        k(    4) = (   0.4991486   0.4293153   0.0000000), wk =   0.0046296
        k(    5) = (   0.6655314   0.5724204   0.0000000), wk =   0.0046296
        k(    6) = (   0.8319143   0.7155256   0.0000000), wk =   0.0046296
        k(    7) = (  -0.9982971  -0.8586307   0.0000000), wk =   0.0023148
        k(    8) = (   0.1663829   0.0000000   0.0451272), wk =   0.0046296
        k(    9) = (   0.3327657   0.1431051   0.0451272), wk =   0.0092593
        k(   10) = (   0.4991486   0.2862102   0.0451272), wk =   0.0092593
        k(   11) = (   0.6655314   0.4293153   0.0451272), wk =   0.0092593
        k(   12) = (   0.8319143   0.5724204   0.0451272), wk =   0.0092593
        k(   13) = (   0.9982971   0.7155256   0.0451272), wk =   0.0092593
        k(   14) = (  -0.8319143  -0.8586307   0.0451272), wk =   0.0092593
        k(   15) = (  -0.6655314  -0.7155256   0.0451272), wk =   0.0092593
        k(   16) = (  -0.4991486  -0.5724204   0.0451272), wk =   0.0092593
        k(   17) = (  -0.3327657  -0.4293153   0.0451272), wk =   0.0092593
        k(   18) = (  -0.1663829  -0.2862102   0.0451272), wk =   0.0092593
        k(   19) = (  -0.0000000  -0.1431051   0.0451272), wk =   0.0046296
        k(   20) = (   0.3327657   0.0000000   0.0902544), wk =   0.0046296
        k(   21) = (   0.4991486   0.1431051   0.0902544), wk =   0.0092593
        k(   22) = (   0.6655314   0.2862102   0.0902544), wk =   0.0092593
        k(   23) = (   0.8319143   0.4293153   0.0902544), wk =   0.0092593
        k(   24) = (   0.9982971   0.5724204   0.0902544), wk =   0.0092593
        k(   25) = (   1.1646800   0.7155256   0.0902544), wk =   0.0092593
        k(   26) = (  -0.6655314  -0.8586307   0.0902544), wk =   0.0092593
        k(   27) = (  -0.4991486  -0.7155256   0.0902544), wk =   0.0092593
        k(   28) = (  -0.3327657  -0.5724204   0.0902544), wk =   0.0092593
        k(   29) = (  -0.1663829  -0.4293153   0.0902544), wk =   0.0092593
        k(   30) = (   0.0000000  -0.2862102   0.0902544), wk =   0.0046296
        k(   31) = (   0.1663829  -0.1431051   0.0902544), wk =   0.0092593
        k(   32) = (   0.4991486   0.0000000   0.1353817), wk =   0.0046296
        k(   33) = (   0.6655314   0.1431051   0.1353817), wk =   0.0092593
        k(   34) = (   0.8319143   0.2862102   0.1353817), wk =   0.0092593
        k(   35) = (   0.9982971   0.4293153   0.1353817), wk =   0.0092593
        k(   36) = (   1.1646800   0.5724204   0.1353817), wk =   0.0092593
        k(   37) = (   1.3310629   0.7155256   0.1353817), wk =   0.0092593
        k(   38) = (  -0.4991486  -0.8586307   0.1353817), wk =   0.0092593
        k(   39) = (  -0.3327657  -0.7155256   0.1353817), wk =   0.0092593
        k(   40) = (  -0.1663829  -0.5724204   0.1353817), wk =   0.0092593
        k(   41) = (   0.0000000  -0.4293153   0.1353817), wk =   0.0046296
        k(   42) = (   0.1663829  -0.2862102   0.1353817), wk =   0.0092593
        k(   43) = (   0.3327657  -0.1431051   0.1353817), wk =   0.0092593
        k(   44) = (   0.6655314   0.0000000   0.1805089), wk =   0.0046296
        k(   45) = (   0.8319143   0.1431051   0.1805089), wk =   0.0092593
        k(   46) = (   0.9982971   0.2862102   0.1805089), wk =   0.0092593
        k(   47) = (   1.1646800   0.4293153   0.1805089), wk =   0.0092593
        k(   48) = (   1.3310629   0.5724204   0.1805089), wk =   0.0092593
        k(   49) = (   1.4974457   0.7155256   0.1805089), wk =   0.0092593
        k(   50) = (  -0.3327657  -0.8586307   0.1805089), wk =   0.0092593
        k(   51) = (  -0.1663829  -0.7155256   0.1805089), wk =   0.0092593
        k(   52) = (  -0.0000000  -0.5724204   0.1805089), wk =   0.0046296
        k(   53) = (   0.1663829  -0.4293153   0.1805089), wk =   0.0092593
        k(   54) = (   0.3327657  -0.2862102   0.1805089), wk =   0.0092593
        k(   55) = (   0.4991486  -0.1431051   0.1805089), wk =   0.0092593
        k(   56) = (   0.8319143   0.0000000   0.2256361), wk =   0.0046296
        k(   57) = (   0.9982971   0.1431051   0.2256361), wk =   0.0092593
        k(   58) = (   1.1646800   0.2862102   0.2256361), wk =   0.0092593
        k(   59) = (   1.3310629   0.4293153   0.2256361), wk =   0.0092593
        k(   60) = (   1.4974457   0.5724204   0.2256361), wk =   0.0092593
        k(   61) = (   1.6638286   0.7155256   0.2256361), wk =   0.0092593
        k(   62) = (  -0.1663829  -0.8586307   0.2256361), wk =   0.0092593
        k(   63) = (   0.0000000  -0.7155256   0.2256361), wk =   0.0046296
        k(   64) = (   0.1663829  -0.5724204   0.2256361), wk =   0.0092593
        k(   65) = (   0.3327657  -0.4293153   0.2256361), wk =   0.0092593
        k(   66) = (   0.4991486  -0.2862102   0.2256361), wk =   0.0092593
        k(   67) = (   0.6655314  -0.1431051   0.2256361), wk =   0.0092593
        k(   68) = (  -0.9982971   0.0000000  -0.2707633), wk =   0.0023148
        k(   69) = (  -0.8319143   0.1431051  -0.2707633), wk =   0.0092593
        k(   70) = (  -0.6655314   0.2862102  -0.2707633), wk =   0.0092593
        k(   71) = (  -0.4991486   0.4293153  -0.2707633), wk =   0.0092593
        k(   72) = (  -0.3327657   0.5724204  -0.2707633), wk =   0.0092593
        k(   73) = (  -0.1663829   0.7155256  -0.2707633), wk =   0.0092593
        k(   74) = (  -1.9965943  -0.8586307  -0.2707633), wk =   0.0023148
        k(   75) = (   0.3327657   0.2862102   0.0902544), wk =   0.0092593
        k(   76) = (   0.4991486   0.4293153   0.0902544), wk =   0.0092593
        k(   77) = (   0.6655314   0.5724204   0.0902544), wk =   0.0092593
        k(   78) = (   0.8319143   0.7155256   0.0902544), wk =   0.0092593
        k(   79) = (   0.9982971   0.8586307   0.0902544), wk =   0.0046296
        k(   80) = (  -0.0000000  -0.0000000   0.0902544), wk =   0.0023148
        k(   81) = (   0.4991486   0.2862102   0.1353817), wk =   0.0092593
        k(   82) = (   0.6655314   0.4293153   0.1353817), wk =   0.0092593
        k(   83) = (   0.8319143   0.5724204   0.1353817), wk =   0.0092593
        k(   84) = (   0.9982971   0.7155256   0.1353817), wk =   0.0092593
        k(   85) = (   1.1646800   0.8586307   0.1353817), wk =   0.0092593
        k(   86) = (  -0.6655314  -0.7155256   0.1353817), wk =   0.0092593
        k(   87) = (  -0.4991486  -0.5724204   0.1353817), wk =   0.0092593
        k(   88) = (  -0.3327657  -0.4293153   0.1353817), wk =   0.0092593
        k(   89) = (   0.0000000  -0.1431051   0.1353817), wk =   0.0046296
        k(   90) = (   0.1663829  -0.0000000   0.1353817), wk =   0.0046296
        k(   91) = (   0.6655314   0.2862102   0.1805089), wk =   0.0092593
        k(   92) = (   0.8319143   0.4293153   0.1805089), wk =   0.0092593
        k(   93) = (   0.9982971   0.5724204   0.1805089), wk =   0.0092593
        k(   94) = (   1.1646800   0.7155256   0.1805089), wk =   0.0092593
        k(   95) = (   1.3310629   0.8586307   0.1805089), wk =   0.0092593
        k(   96) = (  -0.4991486  -0.7155256   0.1805089), wk =   0.0092593
        k(   97) = (  -0.3327657  -0.5724204   0.1805089), wk =   0.0092593
        k(   98) = (   0.0000000  -0.2862102   0.1805089), wk =   0.0046296
        k(   99) = (   0.1663829  -0.1431051   0.1805089), wk =   0.0092593
        k(  100) = (   0.3327657  -0.0000000   0.1805089), wk =   0.0046296
        k(  101) = (   0.8319143   0.2862102   0.2256361), wk =   0.0092593
        k(  102) = (   0.9982971   0.4293153   0.2256361), wk =   0.0092593
        k(  103) = (   1.1646800   0.5724204   0.2256361), wk =   0.0092593
        k(  104) = (   1.3310629   0.7155256   0.2256361), wk =   0.0092593
        k(  105) = (   1.4974457   0.8586307   0.2256361), wk =   0.0092593
        k(  106) = (  -0.3327657  -0.7155256   0.2256361), wk =   0.0092593
        k(  107) = (  -0.0000000  -0.4293153   0.2256361), wk =   0.0046296
        k(  108) = (   0.1663829  -0.2862102   0.2256361), wk =   0.0092593
        k(  109) = (   0.3327657  -0.1431051   0.2256361), wk =   0.0092593
        k(  110) = (   0.4991486  -0.0000000   0.2256361), wk =   0.0046296
        k(  111) = (   0.9982971   0.2862102   0.2707633), wk =   0.0046296
        k(  112) = (   1.1646800   0.4293153   0.2707633), wk =   0.0092593
        k(  113) = (   1.3310629   0.5724204   0.2707633), wk =   0.0092593
        k(  114) = (   1.4974457   0.7155256   0.2707633), wk =   0.0092593
        k(  115) = (   1.6638286   0.8586307   0.2707633), wk =   0.0046296
        k(  116) = (   0.0000000  -0.5724204   0.2707633), wk =   0.0046296
        k(  117) = (   0.1663829  -0.4293153   0.2707633), wk =   0.0092593
        k(  118) = (   0.3327657  -0.2862102   0.2707633), wk =   0.0092593
        k(  119) = (   0.4991486  -0.1431051   0.2707633), wk =   0.0092593
        k(  120) = (   0.6655314  -0.0000000   0.2707633), wk =   0.0046296
        k(  121) = (  -0.6655314   0.4293153  -0.2256361), wk =   0.0092593
        k(  122) = (  -0.4991486   0.5724204  -0.2256361), wk =   0.0092593
        k(  123) = (  -1.9965943  -0.7155256  -0.2256361), wk =   0.0046296
        k(  124) = (  -1.8302114  -0.5724204  -0.2256361), wk =   0.0092593
        k(  125) = (  -1.6638286  -0.4293153  -0.2256361), wk =   0.0092593
        k(  126) = (  -1.4974457  -0.2862102  -0.2256361), wk =   0.0092593
        k(  127) = (  -1.3310629  -0.1431051  -0.2256361), wk =   0.0092593
        k(  128) = (  -1.1646800  -0.0000000  -0.2256361), wk =   0.0046296
        k(  129) = (  -0.4991486   0.4293153  -0.1805089), wk =   0.0092593
        k(  130) = (   0.0000000   0.8586307  -0.1805089), wk =   0.0046296
        k(  131) = (  -1.8302114  -0.7155256  -0.1805089), wk =   0.0092593
        k(  132) = (  -1.6638286  -0.5724204  -0.1805089), wk =   0.0092593
        k(  133) = (  -1.4974457  -0.4293153  -0.1805089), wk =   0.0092593
        k(  134) = (  -1.3310629  -0.2862102  -0.1805089), wk =   0.0092593
        k(  135) = (  -1.1646800  -0.1431051  -0.1805089), wk =   0.0092593
        k(  136) = (  -0.9982971  -0.0000000  -0.1805089), wk =   0.0046296
        k(  137) = (  -0.0000000   0.7155256  -0.1353817), wk =   0.0046296
        k(  138) = (   0.1663829   0.8586307  -0.1353817), wk =   0.0092593
        k(  139) = (  -1.6638286  -0.7155256  -0.1353817), wk =   0.0092593
        k(  140) = (  -1.4974457  -0.5724204  -0.1353817), wk =   0.0092593
        k(  141) = (  -1.3310629  -0.4293153  -0.1353817), wk =   0.0092593
        k(  142) = (  -1.1646800  -0.2862102  -0.1353817), wk =   0.0092593
        k(  143) = (  -0.9982971  -0.1431051  -0.1353817), wk =   0.0092593
        k(  144) = (  -0.8319143  -0.0000000  -0.1353817), wk =   0.0046296
        k(  145) = (   0.0000000   0.5724204  -0.0902544), wk =   0.0046296
        k(  146) = (   0.1663829   0.7155256  -0.0902544), wk =   0.0092593
        k(  147) = (   0.3327657   0.8586307  -0.0902544), wk =   0.0092593
        k(  148) = (  -1.4974457  -0.7155256  -0.0902544), wk =   0.0092593
        k(  149) = (  -1.3310629  -0.5724204  -0.0902544), wk =   0.0092593
        k(  150) = (  -1.1646800  -0.4293153  -0.0902544), wk =   0.0092593
        k(  151) = (  -0.9982971  -0.2862102  -0.0902544), wk =   0.0092593
        k(  152) = (  -0.8319143  -0.1431051  -0.0902544), wk =   0.0092593
        k(  153) = (  -0.6655314  -0.0000000  -0.0902544), wk =   0.0046296
        k(  154) = (   0.0000000   0.4293153  -0.0451272), wk =   0.0046296
        k(  155) = (   0.1663829   0.5724204  -0.0451272), wk =   0.0092593
        k(  156) = (   0.3327657   0.7155256  -0.0451272), wk =   0.0092593
        k(  157) = (   0.4991486   0.8586307  -0.0451272), wk =   0.0092593
        k(  158) = (  -1.3310629  -0.7155256  -0.0451272), wk =   0.0092593
        k(  159) = (  -1.1646800  -0.5724204  -0.0451272), wk =   0.0092593
        k(  160) = (  -0.9982971  -0.4293153  -0.0451272), wk =   0.0092593
        k(  161) = (  -0.8319143  -0.2862102  -0.0451272), wk =   0.0092593
        k(  162) = (  -0.6655314  -0.1431051  -0.0451272), wk =   0.0092593
        k(  163) = (  -0.4991486  -0.0000000  -0.0451272), wk =   0.0046296
        k(  164) = (  -0.0000000   0.2862102  -0.0000000), wk =   0.0023148
        k(  165) = (   0.1663829   0.4293153  -0.0000000), wk =   0.0046296
        k(  166) = (   0.3327657   0.5724204  -0.0000000), wk =   0.0046296
        k(  167) = (   0.4991486   0.7155256  -0.0000000), wk =   0.0046296
        k(  168) = (   0.6655314   0.8586307  -0.0000000), wk =   0.0046296
        k(  169) = (  -1.1646800  -0.7155256  -0.0000000), wk =   0.0046296
        k(  170) = (  -0.9982971  -0.5724204  -0.0000000), wk =   0.0046296
        k(  171) = (  -0.8319143  -0.4293153  -0.0000000), wk =   0.0046296
        k(  172) = (  -0.6655314  -0.2862102  -0.0000000), wk =   0.0046296
        k(  173) = (  -0.4991486  -0.1431051  -0.0000000), wk =   0.0046296
        k(  174) = (  -0.3327657  -0.0000000  -0.0000000), wk =   0.0023148
        k(  175) = (   0.6655314   0.5724204   0.1805089), wk =   0.0092593
        k(  176) = (   0.8319143   0.7155256   0.1805089), wk =   0.0092593
        k(  177) = (   0.9982971   0.8586307   0.1805089), wk =   0.0046296
        k(  178) = (   0.0000000   0.0000000   0.1805089), wk =   0.0023148
        k(  179) = (   0.8319143   0.5724204   0.2256361), wk =   0.0092593
        k(  180) = (   0.9982971   0.7155256   0.2256361), wk =   0.0092593
        k(  181) = (   1.1646800   0.8586307   0.2256361), wk =   0.0092593
        k(  182) = (   1.3310629   1.0017358   0.2256361), wk =   0.0092593
        k(  183) = (   0.0000000  -0.1431051   0.2256361), wk =   0.0046296
        k(  184) = (   0.1663829   0.0000000   0.2256361), wk =   0.0046296
        k(  185) = (   0.9982971   0.5724204   0.2707633), wk =   0.0046296
        k(  186) = (   1.1646800   0.7155256   0.2707633), wk =   0.0092593
        k(  187) = (   1.3310629   0.8586307   0.2707633), wk =   0.0046296
        k(  188) = (  -0.0000000  -0.2862102   0.2707633), wk =   0.0046296
        k(  189) = (   0.1663829  -0.1431051   0.2707633), wk =   0.0092593
        k(  190) = (   0.3327657   0.0000000   0.2707633), wk =   0.0046296
        k(  191) = (   0.0000000  -0.4293153   0.3158905), wk =   0.0046296
        k(  192) = (   0.1663829  -0.2862102   0.3158905), wk =   0.0092593
        k(  193) = (   0.3327657  -0.1431051   0.3158905), wk =   0.0092593
        k(  194) = (   0.4991486   0.0000000   0.3158905), wk =   0.0046296
        k(  195) = (  -1.9965943  -0.5724204  -0.1805089), wk =   0.0046296
        k(  196) = (  -1.8302114  -0.4293153  -0.1805089), wk =   0.0092593
        k(  197) = (  -1.6638286  -0.2862102  -0.1805089), wk =   0.0092593
        k(  198) = (  -1.4974457  -0.1431051  -0.1805089), wk =   0.0092593
        k(  199) = (  -1.3310629   0.0000000  -0.1805089), wk =   0.0046296
        k(  200) = (   0.0000000   1.0017358  -0.1353817), wk =   0.0046296
        k(  201) = (  -1.8302114  -0.5724204  -0.1353817), wk =   0.0092593
        k(  202) = (  -1.6638286  -0.4293153  -0.1353817), wk =   0.0092593
        k(  203) = (  -1.4974457  -0.2862102  -0.1353817), wk =   0.0092593
        k(  204) = (  -1.3310629  -0.1431051  -0.1353817), wk =   0.0092593
        k(  205) = (  -1.1646800   0.0000000  -0.1353817), wk =   0.0046296
        k(  206) = (  -0.0000000   0.8586307  -0.0902544), wk =   0.0046296
        k(  207) = (   0.1663829   1.0017358  -0.0902544), wk =   0.0092593
        k(  208) = (  -1.6638286  -0.5724204  -0.0902544), wk =   0.0092593
        k(  209) = (  -1.4974457  -0.4293153  -0.0902544), wk =   0.0092593
        k(  210) = (  -1.3310629  -0.2862102  -0.0902544), wk =   0.0092593
        k(  211) = (  -1.1646800  -0.1431051  -0.0902544), wk =   0.0092593
        k(  212) = (  -0.9982971   0.0000000  -0.0902544), wk =   0.0046296
        k(  213) = (   0.0000000   0.7155256  -0.0451272), wk =   0.0046296
        k(  214) = (   0.1663829   0.8586307  -0.0451272), wk =   0.0092593
        k(  215) = (   0.3327657   1.0017358  -0.0451272), wk =   0.0092593
        k(  216) = (  -1.4974457  -0.5724204  -0.0451272), wk =   0.0092593
        k(  217) = (  -1.3310629  -0.4293153  -0.0451272), wk =   0.0092593
        k(  218) = (  -1.1646800  -0.2862102  -0.0451272), wk =   0.0092593
        k(  219) = (  -0.9982971  -0.1431051  -0.0451272), wk =   0.0092593
        k(  220) = (  -0.8319143   0.0000000  -0.0451272), wk =   0.0046296
        k(  221) = (   0.0000000   0.5724204   0.0000000), wk =   0.0023148
        k(  222) = (   0.1663829   0.7155256   0.0000000), wk =   0.0046296
        k(  223) = (   0.3327657   0.8586307   0.0000000), wk =   0.0046296
        k(  224) = (   0.4991486   1.0017358   0.0000000), wk =   0.0046296
        k(  225) = (  -1.3310629  -0.5724204   0.0000000), wk =   0.0046296
        k(  226) = (  -1.1646800  -0.4293153   0.0000000), wk =   0.0046296
        k(  227) = (  -0.9982971  -0.2862102   0.0000000), wk =   0.0046296
        k(  228) = (  -0.8319143  -0.1431051   0.0000000), wk =   0.0046296
        k(  229) = (  -0.6655314   0.0000000   0.0000000), wk =   0.0023148
        k(  230) = (   0.9982971   0.8586307   0.2707633), wk =   0.0023148
        k(  231) = (   0.0000000   0.0000000   0.2707633), wk =   0.0023148
        k(  232) = (  -0.0000000  -0.1431051   0.3158905), wk =   0.0046296
        k(  233) = (   0.1663829   0.0000000   0.3158905), wk =   0.0046296
        k(  234) = (   0.0000000  -0.2862102   0.3610178), wk =   0.0046296
        k(  235) = (   0.1663829  -0.1431051   0.3610178), wk =   0.0092593
        k(  236) = (   0.3327657   0.0000000   0.3610178), wk =   0.0046296
        k(  237) = (  -1.9965943  -0.4293153  -0.1353817), wk =   0.0046296
        k(  238) = (  -1.8302114  -0.2862102  -0.1353817), wk =   0.0092593
        k(  239) = (  -1.6638286  -0.1431051  -0.1353817), wk =   0.0092593
        k(  240) = (  -1.4974457   0.0000000  -0.1353817), wk =   0.0046296
        k(  241) = (   0.0000000   1.1448409  -0.0902544), wk =   0.0046296
        k(  242) = (  -1.8302114  -0.4293153  -0.0902544), wk =   0.0092593
        k(  243) = (  -1.6638286  -0.2862102  -0.0902544), wk =   0.0092593
        k(  244) = (  -1.4974457  -0.1431051  -0.0902544), wk =   0.0092593
        k(  245) = (  -1.3310629   0.0000000  -0.0902544), wk =   0.0046296
        k(  246) = (  -0.0000000   1.0017358  -0.0451272), wk =   0.0046296
        k(  247) = (   0.1663829   1.1448409  -0.0451272), wk =   0.0092593
        k(  248) = (  -1.6638286  -0.4293153  -0.0451272), wk =   0.0092593
        k(  249) = (  -1.4974457  -0.2862102  -0.0451272), wk =   0.0092593
        k(  250) = (  -1.3310629  -0.1431051  -0.0451272), wk =   0.0092593
        k(  251) = (  -1.1646800   0.0000000  -0.0451272), wk =   0.0046296
        k(  252) = (   0.0000000   0.8586307   0.0000000), wk =   0.0023148
        k(  253) = (   0.1663829   1.0017358   0.0000000), wk =   0.0046296
        k(  254) = (   0.3327657   1.1448409   0.0000000), wk =   0.0046296
        k(  255) = (  -1.4974457  -0.4293153   0.0000000), wk =   0.0046296
        k(  256) = (  -1.3310629  -0.2862102   0.0000000), wk =   0.0046296
        k(  257) = (  -1.1646800  -0.1431051   0.0000000), wk =   0.0046296
        k(  258) = (  -0.9982971   0.0000000   0.0000000), wk =   0.0023148
        k(  259) = (  -0.0000000  -0.0000000   0.3610178), wk =   0.0023148
        k(  260) = (   0.0000000  -0.1431051   0.4061450), wk =   0.0046296
        k(  261) = (   0.1663829  -0.0000000   0.4061450), wk =   0.0046296
        k(  262) = (  -1.9965943  -0.2862102  -0.0902544), wk =   0.0046296
        k(  263) = (  -1.8302114  -0.1431051  -0.0902544), wk =   0.0092593
        k(  264) = (  -1.6638286  -0.0000000  -0.0902544), wk =   0.0046296
        k(  265) = (   0.0000000   1.2879460  -0.0451272), wk =   0.0046296
        k(  266) = (  -1.8302114  -0.2862102  -0.0451272), wk =   0.0092593
        k(  267) = (  -1.6638286  -0.1431051  -0.0451272), wk =   0.0092593
        k(  268) = (  -1.4974457  -0.0000000  -0.0451272), wk =   0.0046296
        k(  269) = (  -0.0000000   1.1448409  -0.0000000), wk =   0.0023148
        k(  270) = (   0.1663829   1.2879460  -0.0000000), wk =   0.0046296
        k(  271) = (  -1.6638286  -0.2862102  -0.0000000), wk =   0.0046296
        k(  272) = (  -1.4974457  -0.1431051  -0.0000000), wk =   0.0046296
        k(  273) = (  -1.3310629  -0.0000000  -0.0000000), wk =   0.0023148
        k(  274) = (   0.0000000   0.0000000   0.4512722), wk =   0.0023148
        k(  275) = (  -1.9965943  -0.1431051  -0.0451272), wk =   0.0046296
        k(  276) = (  -1.8302114   0.0000000  -0.0451272), wk =   0.0046296
        k(  277) = (   0.0000000   1.4310511   0.0000000), wk =   0.0023148
        k(  278) = (  -1.8302114  -0.1431051   0.0000000), wk =   0.0046296
        k(  279) = (  -1.6638286   0.0000000   0.0000000), wk =   0.0023148
        k(  280) = (  -1.9965943  -1.7172613  -0.5415266), wk =   0.0011574

                       cryst. coord.
        k(    1) = (   0.0000000   0.0000000   0.0000000), wk =   0.0011574
        k(    2) = (  -0.0000000   0.0000000   0.0833333), wk =   0.0046296
        k(    3) = (  -0.0000000   0.0000000   0.1666667), wk =   0.0046296
        k(    4) = (   0.0000000   0.0000000   0.2500000), wk =   0.0046296
        k(    5) = (  -0.0000000   0.0000000   0.3333333), wk =   0.0046296
        k(    6) = (  -0.0000000   0.0000000   0.4166667), wk =   0.0046296
        k(    7) = (   0.0000000   0.0000000  -0.5000000), wk =   0.0023148
        k(    8) = (   0.0000000   0.0833333  -0.0000000), wk =   0.0046296
        k(    9) = (   0.0000000   0.0833333   0.0833333), wk =   0.0092593
        k(   10) = (  -0.0000000   0.0833333   0.1666667), wk =   0.0092593
        k(   11) = (   0.0000000   0.0833333   0.2500000), wk =   0.0092593
        k(   12) = (  -0.0000000   0.0833333   0.3333333), wk =   0.0092593
        k(   13) = (  -0.0000000   0.0833333   0.4166667), wk =   0.0092593
        k(   14) = (   0.0000000   0.0833333  -0.5000000), wk =   0.0092593
        k(   15) = (   0.0000000   0.0833333  -0.4166667), wk =   0.0092593
        k(   16) = (   0.0000000   0.0833333  -0.3333333), wk =   0.0092593
        k(   17) = (   0.0000000   0.0833333  -0.2500000), wk =   0.0092593
        k(   18) = (   0.0000000   0.0833333  -0.1666667), wk =   0.0092593
        k(   19) = (   0.0000000   0.0833333  -0.0833333), wk =   0.0046296
        k(   20) = (   0.0000000   0.1666667  -0.0000000), wk =   0.0046296
        k(   21) = (   0.0000000   0.1666667   0.0833333), wk =   0.0092593
        k(   22) = (   0.0000000   0.1666667   0.1666667), wk =   0.0092593
        k(   23) = (   0.0000000   0.1666667   0.2500000), wk =   0.0092593
        k(   24) = (  -0.0000000   0.1666667   0.3333333), wk =   0.0092593
        k(   25) = (  -0.0000000   0.1666667   0.4166667), wk =   0.0092593
        k(   26) = (   0.0000000   0.1666667  -0.5000000), wk =   0.0092593
        k(   27) = (   0.0000000   0.1666667  -0.4166667), wk =   0.0092593
        k(   28) = (   0.0000000   0.1666667  -0.3333333), wk =   0.0092593
        k(   29) = (   0.0000000   0.1666667  -0.2500000), wk =   0.0092593
        k(   30) = (   0.0000000   0.1666667  -0.1666667), wk =   0.0046296
        k(   31) = (   0.0000000   0.1666667  -0.0833333), wk =   0.0092593
        k(   32) = (   0.0000000   0.2500000   0.0000000), wk =   0.0046296
        k(   33) = (   0.0000000   0.2500000   0.0833333), wk =   0.0092593
        k(   34) = (  -0.0000000   0.2500000   0.1666667), wk =   0.0092593
        k(   35) = (   0.0000000   0.2500000   0.2500000), wk =   0.0092593
        k(   36) = (   0.0000000   0.2500000   0.3333333), wk =   0.0092593
        k(   37) = (  -0.0000000   0.2500000   0.4166667), wk =   0.0092593
        k(   38) = (   0.0000000   0.2500000  -0.5000000), wk =   0.0092593
        k(   39) = (   0.0000000   0.2500000  -0.4166667), wk =   0.0092593
        k(   40) = (   0.0000000   0.2500000  -0.3333333), wk =   0.0092593
        k(   41) = (   0.0000000   0.2500000  -0.2500000), wk =   0.0046296
        k(   42) = (   0.0000000   0.2500000  -0.1666667), wk =   0.0092593
        k(   43) = (   0.0000000   0.2500000  -0.0833333), wk =   0.0092593
        k(   44) = (   0.0000000   0.3333333  -0.0000000), wk =   0.0046296
        k(   45) = (   0.0000000   0.3333333   0.0833333), wk =   0.0092593
        k(   46) = (   0.0000000   0.3333333   0.1666667), wk =   0.0092593
        k(   47) = (   0.0000000   0.3333333   0.2500000), wk =   0.0092593
        k(   48) = (   0.0000000   0.3333333   0.3333333), wk =   0.0092593
        k(   49) = (   0.0000000   0.3333333   0.4166667), wk =   0.0092593
        k(   50) = (   0.0000000   0.3333333  -0.5000000), wk =   0.0092593
        k(   51) = (   0.0000000   0.3333333  -0.4166667), wk =   0.0092593
        k(   52) = (   0.0000000   0.3333333  -0.3333333), wk =   0.0046296
        k(   53) = (   0.0000000   0.3333333  -0.2500000), wk =   0.0092593
        k(   54) = (   0.0000000   0.3333333  -0.1666667), wk =   0.0092593
        k(   55) = (   0.0000000   0.3333333  -0.0833333), wk =   0.0092593
        k(   56) = (  -0.0000000   0.4166667   0.0000000), wk =   0.0046296
        k(   57) = (   0.0000000   0.4166667   0.0833333), wk =   0.0092593
        k(   58) = (  -0.0000000   0.4166667   0.1666667), wk =   0.0092593
        k(   59) = (  -0.0000000   0.4166667   0.2500000), wk =   0.0092593
        k(   60) = (  -0.0000000   0.4166667   0.3333333), wk =   0.0092593
        k(   61) = (  -0.0000000   0.4166667   0.4166667), wk =   0.0092593
        k(   62) = (   0.0000000   0.4166667  -0.5000000), wk =   0.0092593
        k(   63) = (   0.0000000   0.4166667  -0.4166667), wk =   0.0046296
        k(   64) = (   0.0000000   0.4166667  -0.3333333), wk =   0.0092593
        k(   65) = (  -0.0000000   0.4166667  -0.2500000), wk =   0.0092593
        k(   66) = (  -0.0000000   0.4166667  -0.1666667), wk =   0.0092593
        k(   67) = (  -0.0000000   0.4166667  -0.0833333), wk =   0.0092593
        k(   68) = (   0.0000000  -0.5000000   0.0000000), wk =   0.0023148
        k(   69) = (   0.0000000  -0.5000000   0.0833333), wk =   0.0092593
        k(   70) = (   0.0000000  -0.5000000   0.1666667), wk =   0.0092593
        k(   71) = (   0.0000000  -0.5000000   0.2500000), wk =   0.0092593
        k(   72) = (   0.0000000  -0.5000000   0.3333333), wk =   0.0092593
        k(   73) = (  -0.0000000  -0.5000000   0.4166667), wk =   0.0092593
        k(   74) = (   0.0000000  -0.5000000  -0.5000000), wk =   0.0023148
        k(   75) = (   0.0833333   0.0833333   0.0833333), wk =   0.0092593
        k(   76) = (   0.0833333   0.0833333   0.1666667), wk =   0.0092593
        k(   77) = (   0.0833333   0.0833333   0.2500000), wk =   0.0092593
        k(   78) = (   0.0833333   0.0833333   0.3333333), wk =   0.0092593
        k(   79) = (   0.0833333   0.0833333   0.4166667), wk =   0.0046296
        k(   80) = (   0.0833333   0.0833333  -0.0833333), wk =   0.0023148
        k(   81) = (   0.0833333   0.1666667   0.0833333), wk =   0.0092593
        k(   82) = (   0.0833333   0.1666667   0.1666667), wk =   0.0092593
        k(   83) = (   0.0833333   0.1666667   0.2500000), wk =   0.0092593
        k(   84) = (   0.0833333   0.1666667   0.3333333), wk =   0.0092593
        k(   85) = (   0.0833333   0.1666667   0.4166667), wk =   0.0092593
        k(   86) = (   0.0833333   0.1666667  -0.5000000), wk =   0.0092593
        k(   87) = (   0.0833333   0.1666667  -0.4166667), wk =   0.0092593
        k(   88) = (   0.0833333   0.1666667  -0.3333333), wk =   0.0092593
        k(   89) = (   0.0833333   0.1666667  -0.1666667), wk =   0.0046296
        k(   90) = (   0.0833333   0.1666667  -0.0833333), wk =   0.0046296
        k(   91) = (   0.0833333   0.2500000   0.0833333), wk =   0.0092593
        k(   92) = (   0.0833333   0.2500000   0.1666667), wk =   0.0092593
        k(   93) = (   0.0833333   0.2500000   0.2500000), wk =   0.0092593
        k(   94) = (   0.0833333   0.2500000   0.3333333), wk =   0.0092593
        k(   95) = (   0.0833333   0.2500000   0.4166667), wk =   0.0092593
        k(   96) = (   0.0833333   0.2500000  -0.5000000), wk =   0.0092593
        k(   97) = (   0.0833333   0.2500000  -0.4166667), wk =   0.0092593
        k(   98) = (   0.0833333   0.2500000  -0.2500000), wk =   0.0046296
        k(   99) = (   0.0833333   0.2500000  -0.1666667), wk =   0.0092593
        k(  100) = (   0.0833333   0.2500000  -0.0833333), wk =   0.0046296
        k(  101) = (   0.0833333   0.3333333   0.0833333), wk =   0.0092593
        k(  102) = (   0.0833333   0.3333333   0.1666667), wk =   0.0092593
        k(  103) = (   0.0833333   0.3333333   0.2500000), wk =   0.0092593
        k(  104) = (   0.0833333   0.3333333   0.3333333), wk =   0.0092593
        k(  105) = (   0.0833333   0.3333333   0.4166667), wk =   0.0092593
        k(  106) = (   0.0833333   0.3333333  -0.5000000), wk =   0.0092593
        k(  107) = (   0.0833333   0.3333333  -0.3333333), wk =   0.0046296
        k(  108) = (   0.0833333   0.3333333  -0.2500000), wk =   0.0092593
        k(  109) = (   0.0833333   0.3333333  -0.1666667), wk =   0.0092593
        k(  110) = (   0.0833333   0.3333333  -0.0833333), wk =   0.0046296
        k(  111) = (   0.0833333   0.4166667   0.0833333), wk =   0.0046296
        k(  112) = (   0.0833333   0.4166667   0.1666667), wk =   0.0092593
        k(  113) = (   0.0833333   0.4166667   0.2500000), wk =   0.0092593
        k(  114) = (   0.0833333   0.4166667   0.3333333), wk =   0.0092593
        k(  115) = (   0.0833333   0.4166667   0.4166667), wk =   0.0046296
        k(  116) = (   0.0833333   0.4166667  -0.4166667), wk =   0.0046296
        k(  117) = (   0.0833333   0.4166667  -0.3333333), wk =   0.0092593
        k(  118) = (   0.0833333   0.4166667  -0.2500000), wk =   0.0092593
        k(  119) = (   0.0833333   0.4166667  -0.1666667), wk =   0.0092593
        k(  120) = (   0.0833333   0.4166667  -0.0833333), wk =   0.0046296
        k(  121) = (   0.0833333  -0.5000000   0.1666667), wk =   0.0092593
        k(  122) = (   0.0833333  -0.5000000   0.2500000), wk =   0.0092593
        k(  123) = (   0.0833333  -0.5000000  -0.5000000), wk =   0.0046296
        k(  124) = (   0.0833333  -0.5000000  -0.4166667), wk =   0.0092593
        k(  125) = (   0.0833333  -0.5000000  -0.3333333), wk =   0.0092593
        k(  126) = (   0.0833333  -0.5000000  -0.2500000), wk =   0.0092593
        k(  127) = (   0.0833333  -0.5000000  -0.1666667), wk =   0.0092593
        k(  128) = (   0.0833333  -0.5000000  -0.0833333), wk =   0.0046296
        k(  129) = (   0.0833333  -0.4166667   0.1666667), wk =   0.0092593
        k(  130) = (   0.0833333  -0.4166667   0.4166667), wk =   0.0046296
        k(  131) = (   0.0833333  -0.4166667  -0.5000000), wk =   0.0092593
        k(  132) = (   0.0833333  -0.4166667  -0.4166667), wk =   0.0092593
        k(  133) = (   0.0833333  -0.4166667  -0.3333333), wk =   0.0092593
        k(  134) = (   0.0833333  -0.4166667  -0.2500000), wk =   0.0092593
        k(  135) = (   0.0833333  -0.4166667  -0.1666667), wk =   0.0092593
        k(  136) = (   0.0833333  -0.4166667  -0.0833333), wk =   0.0046296
        k(  137) = (   0.0833333  -0.3333333   0.3333333), wk =   0.0046296
        k(  138) = (   0.0833333  -0.3333333   0.4166667), wk =   0.0092593
        k(  139) = (   0.0833333  -0.3333333  -0.5000000), wk =   0.0092593
        k(  140) = (   0.0833333  -0.3333333  -0.4166667), wk =   0.0092593
        k(  141) = (   0.0833333  -0.3333333  -0.3333333), wk =   0.0092593
        k(  142) = (   0.0833333  -0.3333333  -0.2500000), wk =   0.0092593
        k(  143) = (   0.0833333  -0.3333333  -0.1666667), wk =   0.0092593
        k(  144) = (   0.0833333  -0.3333333  -0.0833333), wk =   0.0046296
        k(  145) = (   0.0833333  -0.2500000   0.2500000), wk =   0.0046296
        k(  146) = (   0.0833333  -0.2500000   0.3333333), wk =   0.0092593
        k(  147) = (   0.0833333  -0.2500000   0.4166667), wk =   0.0092593
        k(  148) = (   0.0833333  -0.2500000  -0.5000000), wk =   0.0092593
        k(  149) = (   0.0833333  -0.2500000  -0.4166667), wk =   0.0092593
        k(  150) = (   0.0833333  -0.2500000  -0.3333333), wk =   0.0092593
        k(  151) = (   0.0833333  -0.2500000  -0.2500000), wk =   0.0092593
        k(  152) = (   0.0833333  -0.2500000  -0.1666667), wk =   0.0092593
        k(  153) = (   0.0833333  -0.2500000  -0.0833333), wk =   0.0046296
        k(  154) = (   0.0833333  -0.1666667   0.1666667), wk =   0.0046296
        k(  155) = (   0.0833333  -0.1666667   0.2500000), wk =   0.0092593
        k(  156) = (   0.0833333  -0.1666667   0.3333333), wk =   0.0092593
        k(  157) = (   0.0833333  -0.1666667   0.4166667), wk =   0.0092593
        k(  158) = (   0.0833333  -0.1666667  -0.5000000), wk =   0.0092593
        k(  159) = (   0.0833333  -0.1666667  -0.4166667), wk =   0.0092593
        k(  160) = (   0.0833333  -0.1666667  -0.3333333), wk =   0.0092593
        k(  161) = (   0.0833333  -0.1666667  -0.2500000), wk =   0.0092593
        k(  162) = (   0.0833333  -0.1666667  -0.1666667), wk =   0.0092593
        k(  163) = (   0.0833333  -0.1666667  -0.0833333), wk =   0.0046296
        k(  164) = (   0.0833333  -0.0833333   0.0833333), wk =   0.0023148
        k(  165) = (   0.0833333  -0.0833333   0.1666667), wk =   0.0046296
        k(  166) = (   0.0833333  -0.0833333   0.2500000), wk =   0.0046296
        k(  167) = (   0.0833333  -0.0833333   0.3333333), wk =   0.0046296
        k(  168) = (   0.0833333  -0.0833333   0.4166667), wk =   0.0046296
        k(  169) = (   0.0833333  -0.0833333  -0.5000000), wk =   0.0046296
        k(  170) = (   0.0833333  -0.0833333  -0.4166667), wk =   0.0046296
        k(  171) = (   0.0833333  -0.0833333  -0.3333333), wk =   0.0046296
        k(  172) = (   0.0833333  -0.0833333  -0.2500000), wk =   0.0046296
        k(  173) = (   0.0833333  -0.0833333  -0.1666667), wk =   0.0046296
        k(  174) = (   0.0833333  -0.0833333  -0.0833333), wk =   0.0023148
        k(  175) = (   0.1666667   0.1666667   0.1666667), wk =   0.0092593
        k(  176) = (   0.1666667   0.1666667   0.2500000), wk =   0.0092593
        k(  177) = (   0.1666667   0.1666667   0.3333333), wk =   0.0046296
        k(  178) = (   0.1666667   0.1666667  -0.1666667), wk =   0.0023148
        k(  179) = (   0.1666667   0.2500000   0.1666667), wk =   0.0092593
        k(  180) = (   0.1666667   0.2500000   0.2500000), wk =   0.0092593
        k(  181) = (   0.1666667   0.2500000   0.3333333), wk =   0.0092593
        k(  182) = (   0.1666667   0.2500000   0.4166667), wk =   0.0092593
        k(  183) = (   0.1666667   0.2500000  -0.2500000), wk =   0.0046296
        k(  184) = (   0.1666667   0.2500000  -0.1666667), wk =   0.0046296
        k(  185) = (   0.1666667   0.3333333   0.1666667), wk =   0.0046296
        k(  186) = (   0.1666667   0.3333333   0.2500000), wk =   0.0092593
        k(  187) = (   0.1666667   0.3333333   0.3333333), wk =   0.0046296
        k(  188) = (   0.1666667   0.3333333  -0.3333333), wk =   0.0046296
        k(  189) = (   0.1666667   0.3333333  -0.2500000), wk =   0.0092593
        k(  190) = (   0.1666667   0.3333333  -0.1666667), wk =   0.0046296
        k(  191) = (   0.1666667   0.4166667  -0.4166667), wk =   0.0046296
        k(  192) = (   0.1666667   0.4166667  -0.3333333), wk =   0.0092593
        k(  193) = (   0.1666667   0.4166667  -0.2500000), wk =   0.0092593
        k(  194) = (   0.1666667   0.4166667  -0.1666667), wk =   0.0046296
        k(  195) = (   0.1666667  -0.5000000  -0.5000000), wk =   0.0046296
        k(  196) = (   0.1666667  -0.5000000  -0.4166667), wk =   0.0092593
        k(  197) = (   0.1666667  -0.5000000  -0.3333333), wk =   0.0092593
        k(  198) = (   0.1666667  -0.5000000  -0.2500000), wk =   0.0092593
        k(  199) = (   0.1666667  -0.5000000  -0.1666667), wk =   0.0046296
        k(  200) = (   0.1666667  -0.4166667   0.4166667), wk =   0.0046296
        k(  201) = (   0.1666667  -0.4166667  -0.5000000), wk =   0.0092593
        k(  202) = (   0.1666667  -0.4166667  -0.4166667), wk =   0.0092593
        k(  203) = (   0.1666667  -0.4166667  -0.3333333), wk =   0.0092593
        k(  204) = (   0.1666667  -0.4166667  -0.2500000), wk =   0.0092593
        k(  205) = (   0.1666667  -0.4166667  -0.1666667), wk =   0.0046296
        k(  206) = (   0.1666667  -0.3333333   0.3333333), wk =   0.0046296
        k(  207) = (   0.1666667  -0.3333333   0.4166667), wk =   0.0092593
        k(  208) = (   0.1666667  -0.3333333  -0.5000000), wk =   0.0092593
        k(  209) = (   0.1666667  -0.3333333  -0.4166667), wk =   0.0092593
        k(  210) = (   0.1666667  -0.3333333  -0.3333333), wk =   0.0092593
        k(  211) = (   0.1666667  -0.3333333  -0.2500000), wk =   0.0092593
        k(  212) = (   0.1666667  -0.3333333  -0.1666667), wk =   0.0046296
        k(  213) = (   0.1666667  -0.2500000   0.2500000), wk =   0.0046296
        k(  214) = (   0.1666667  -0.2500000   0.3333333), wk =   0.0092593
        k(  215) = (   0.1666667  -0.2500000   0.4166667), wk =   0.0092593
        k(  216) = (   0.1666667  -0.2500000  -0.5000000), wk =   0.0092593
        k(  217) = (   0.1666667  -0.2500000  -0.4166667), wk =   0.0092593
        k(  218) = (   0.1666667  -0.2500000  -0.3333333), wk =   0.0092593
        k(  219) = (   0.1666667  -0.2500000  -0.2500000), wk =   0.0092593
        k(  220) = (   0.1666667  -0.2500000  -0.1666667), wk =   0.0046296
        k(  221) = (   0.1666667  -0.1666667   0.1666667), wk =   0.0023148
        k(  222) = (   0.1666667  -0.1666667   0.2500000), wk =   0.0046296
        k(  223) = (   0.1666667  -0.1666667   0.3333333), wk =   0.0046296
        k(  224) = (   0.1666667  -0.1666667   0.4166667), wk =   0.0046296
        k(  225) = (   0.1666667  -0.1666667  -0.5000000), wk =   0.0046296
        k(  226) = (   0.1666667  -0.1666667  -0.4166667), wk =   0.0046296
        k(  227) = (   0.1666667  -0.1666667  -0.3333333), wk =   0.0046296
        k(  228) = (   0.1666667  -0.1666667  -0.2500000), wk =   0.0046296
        k(  229) = (   0.1666667  -0.1666667  -0.1666667), wk =   0.0023148
        k(  230) = (   0.2500000   0.2500000   0.2500000), wk =   0.0023148
        k(  231) = (   0.2500000   0.2500000  -0.2500000), wk =   0.0023148
        k(  232) = (   0.2500000   0.3333333  -0.3333333), wk =   0.0046296
        k(  233) = (   0.2500000   0.3333333  -0.2500000), wk =   0.0046296
        k(  234) = (   0.2500000   0.4166667  -0.4166667), wk =   0.0046296
        k(  235) = (   0.2500000   0.4166667  -0.3333333), wk =   0.0092593
        k(  236) = (   0.2500000   0.4166667  -0.2500000), wk =   0.0046296
        k(  237) = (   0.2500000  -0.5000000  -0.5000000), wk =   0.0046296
        k(  238) = (   0.2500000  -0.5000000  -0.4166667), wk =   0.0092593
        k(  239) = (   0.2500000  -0.5000000  -0.3333333), wk =   0.0092593
        k(  240) = (   0.2500000  -0.5000000  -0.2500000), wk =   0.0046296
        k(  241) = (   0.2500000  -0.4166667   0.4166667), wk =   0.0046296
        k(  242) = (   0.2500000  -0.4166667  -0.5000000), wk =   0.0092593
        k(  243) = (   0.2500000  -0.4166667  -0.4166667), wk =   0.0092593
        k(  244) = (   0.2500000  -0.4166667  -0.3333333), wk =   0.0092593
        k(  245) = (   0.2500000  -0.4166667  -0.2500000), wk =   0.0046296
        k(  246) = (   0.2500000  -0.3333333   0.3333333), wk =   0.0046296
        k(  247) = (   0.2500000  -0.3333333   0.4166667), wk =   0.0092593
        k(  248) = (   0.2500000  -0.3333333  -0.5000000), wk =   0.0092593
        k(  249) = (   0.2500000  -0.3333333  -0.4166667), wk =   0.0092593
        k(  250) = (   0.2500000  -0.3333333  -0.3333333), wk =   0.0092593
        k(  251) = (   0.2500000  -0.3333333  -0.2500000), wk =   0.0046296
        k(  252) = (   0.2500000  -0.2500000   0.2500000), wk =   0.0023148
        k(  253) = (   0.2500000  -0.2500000   0.3333333), wk =   0.0046296
        k(  254) = (   0.2500000  -0.2500000   0.4166667), wk =   0.0046296
        k(  255) = (   0.2500000  -0.2500000  -0.5000000), wk =   0.0046296
        k(  256) = (   0.2500000  -0.2500000  -0.4166667), wk =   0.0046296
        k(  257) = (   0.2500000  -0.2500000  -0.3333333), wk =   0.0046296
        k(  258) = (   0.2500000  -0.2500000  -0.2500000), wk =   0.0023148
        k(  259) = (   0.3333333   0.3333333  -0.3333333), wk =   0.0023148
        k(  260) = (   0.3333333   0.4166667  -0.4166667), wk =   0.0046296
        k(  261) = (   0.3333333   0.4166667  -0.3333333), wk =   0.0046296
        k(  262) = (   0.3333333  -0.5000000  -0.5000000), wk =   0.0046296
        k(  263) = (   0.3333333  -0.5000000  -0.4166667), wk =   0.0092593
        k(  264) = (   0.3333333  -0.5000000  -0.3333333), wk =   0.0046296
        k(  265) = (   0.3333333  -0.4166667   0.4166667), wk =   0.0046296
        k(  266) = (   0.3333333  -0.4166667  -0.5000000), wk =   0.0092593
        k(  267) = (   0.3333333  -0.4166667  -0.4166667), wk =   0.0092593
        k(  268) = (   0.3333333  -0.4166667  -0.3333333), wk =   0.0046296
        k(  269) = (   0.3333333  -0.3333333   0.3333333), wk =   0.0023148
        k(  270) = (   0.3333333  -0.3333333   0.4166667), wk =   0.0046296
        k(  271) = (   0.3333333  -0.3333333  -0.5000000), wk =   0.0046296
        k(  272) = (   0.3333333  -0.3333333  -0.4166667), wk =   0.0046296
        k(  273) = (   0.3333333  -0.3333333  -0.3333333), wk =   0.0023148
        k(  274) = (   0.4166667   0.4166667  -0.4166667), wk =   0.0023148
        k(  275) = (   0.4166667  -0.5000000  -0.5000000), wk =   0.0046296
        k(  276) = (   0.4166667  -0.5000000  -0.4166667), wk =   0.0046296
        k(  277) = (   0.4166667  -0.4166667   0.4166667), wk =   0.0023148
        k(  278) = (   0.4166667  -0.4166667  -0.5000000), wk =   0.0046296
        k(  279) = (   0.4166667  -0.4166667  -0.4166667), wk =   0.0023148
        k(  280) = (  -0.5000000  -0.5000000  -0.5000000), wk =   0.0011574

     Dense  grid:   384583 G-vectors     FFT dimensions: ( 144, 144, 144)

     Smooth grid:    97215 G-vectors     FFT dimensions: (  90,  90,  90)

     Dynamical RAM for                 wfc:       0.08 MB

     Dynamical RAM for     wfc (w. buffer):      22.78 MB

     Dynamical RAM for           str. fact:       0.37 MB

     Dynamical RAM for           local pot:       0.00 MB

     Dynamical RAM for          nlocal pot:       0.16 MB

     Dynamical RAM for                qrad:       8.33 MB

     Dynamical RAM for          rho,v,vnew:       1.79 MB

     Dynamical RAM for               rhoin:       0.60 MB

     Dynamical RAM for            rho*nmix:       1.96 MB

     Dynamical RAM for           G-vectors:       0.47 MB

     Dynamical RAM for          h,s,v(r/c):       0.08 MB

     Dynamical RAM for          <psi|beta>:       0.01 MB

     Dynamical RAM for                 psi:       0.16 MB

     Dynamical RAM for                hpsi:       0.16 MB

     Dynamical RAM for                spsi:       0.16 MB

     Dynamical RAM for      wfcinit/wfcrot:       0.21 MB

     Dynamical RAM for           addusdens:      22.98 MB

     Dynamical RAM for          addusforce:      23.30 MB

     Dynamical RAM for         addusstress:      24.57 MB

     Estimated static dynamical RAM per process >      39.32 MB

     Estimated max dynamical RAM per process >      63.90 MB

     Estimated total dynamical RAM >       3.00 GB

     Initial potential from superposition of free atoms

     starting charge   32.99867, renormalised to   33.00000
     Starting wfcs are   25 randomized atomic wfcs
     Checking if some PAW data can be deallocated... 
       PAW data deallocated on   36 nodes for type:  1
       PAW data deallocated on   24 nodes for type:  2
       PAW data deallocated on   36 nodes for type:  3

     total cpu time spent up to now is        6.9 secs

     Self-consistent Calculation

     iteration #  1     ecut=   120.00 Ry     beta= 0.70
     Davidson diagonalization with overlap
     ethr =  1.00E-02,  avg # of iterations =  2.3

     total cpu time spent up to now is       20.1 secs

     total energy              =    -534.52759740 Ry
     estimated scf accuracy    <       0.76303057 Ry

     iteration #  2     ecut=   120.00 Ry     beta= 0.70
     Davidson diagonalization with overlap
     ethr =  2.31E-03,  avg # of iterations =  3.6

     total cpu time spent up to now is       35.7 secs

     total energy              =    -533.60210985 Ry
     estimated scf accuracy    <       8.54513992 Ry

     iteration #  3     ecut=   120.00 Ry     beta= 0.70
     Davidson diagonalization with overlap
     ethr =  2.31E-03,  avg # of iterations =  3.5

     total cpu time spent up to now is       50.2 secs

     total energy              =    -534.97562774 Ry
     estimated scf accuracy    <       0.12664719 Ry

     iteration #  4     ecut=   120.00 Ry     beta= 0.70
     Davidson diagonalization with overlap
     ethr =  3.84E-04,  avg # of iterations =  1.3

     total cpu time spent up to now is       62.1 secs

     total energy              =    -534.96760106 Ry
     estimated scf accuracy    <       0.06176946 Ry

     iteration #  5     ecut=   120.00 Ry     beta= 0.70
     Davidson diagonalization with overlap
     ethr =  1.87E-04,  avg # of iterations =  1.5

     total cpu time spent up to now is       73.9 secs

     total energy              =    -534.96477386 Ry
     estimated scf accuracy    <       0.02258008 Ry

     iteration #  6     ecut=   120.00 Ry     beta= 0.70
     Davidson diagonalization with overlap
     ethr =  6.84E-05,  avg # of iterations =  2.0

     total cpu time spent up to now is       86.0 secs

     total energy              =    -534.96691780 Ry
     estimated scf accuracy    <       0.00096467 Ry

     iteration #  7     ecut=   120.00 Ry     beta= 0.70
     Davidson diagonalization with overlap
     ethr =  2.92E-06,  avg # of iterations =  3.2

     total cpu time spent up to now is      100.9 secs

     total energy              =    -534.96717679 Ry
     estimated scf accuracy    <       0.00016434 Ry

     iteration #  8     ecut=   120.00 Ry     beta= 0.70
     Davidson diagonalization with overlap
     ethr =  4.98E-07,  avg # of iterations =  1.9

     total cpu time spent up to now is      113.2 secs

     total energy              =    -534.96718115 Ry
     estimated scf accuracy    <       0.00002550 Ry

     iteration #  9     ecut=   120.00 Ry     beta= 0.70
     Davidson diagonalization with overlap
     ethr =  7.73E-08,  avg # of iterations =  2.2

     total cpu time spent up to now is      126.4 secs

     total energy              =    -534.96718760 Ry
     estimated scf accuracy    <       0.00000096 Ry

     iteration # 10     ecut=   120.00 Ry     beta= 0.70
     Davidson diagonalization with overlap
     ethr =  2.91E-09,  avg # of iterations =  3.8

     total cpu time spent up to now is      141.8 secs

     total energy              =    -534.96718794 Ry
     estimated scf accuracy    <       0.00000006 Ry

     iteration # 11     ecut=   120.00 Ry     beta= 0.70
     Davidson diagonalization with overlap
     ethr =  1.67E-10,  avg # of iterations =  3.2

     total cpu time spent up to now is      157.1 secs

     total energy              =    -534.96718795 Ry
     estimated scf accuracy    <          3.2E-09 Ry

     iteration # 12     ecut=   120.00 Ry     beta= 0.70
     Davidson diagonalization with overlap
     ethr =  9.57E-12,  avg # of iterations =  3.4

     total cpu time spent up to now is      173.6 secs

     total energy              =    -534.96718795 Ry
     estimated scf accuracy    <          7.5E-10 Ry

     iteration # 13     ecut=   120.00 Ry     beta= 0.70
     Davidson diagonalization with overlap
     ethr =  2.28E-12,  avg # of iterations =  2.0

     total cpu time spent up to now is      186.8 secs

     End of self-consistent calculation

          k = 0.0000 0.0000 0.0000 ( 12131 PWs)   bands (ev):

   -49.8571 -26.0894 -25.8025 -25.7170 -12.3984  -9.5110  -8.8214   0.6245
     2.4725   2.7319   2.8752   2.9902   3.4520   3.9423   4.1985   4.2848
     5.5075   7.2022   7.3410   8.6494   9.3772

     occupation numbers 
     1.0000   1.0000   1.0000   1.0000   1.0000   1.0000   1.0000   1.0000
     1.0000   1.0000   1.0000   1.0000   1.0000   1.0000   1.0000   1.0000
     1.0000  -0.0000  -0.0000  -0.0000  -0.0000

          k = 0.1664 0.1431 0.0000 ( 12121 PWs)   bands (ev):

   -49.8559 -26.1009 -25.7995 -25.7312 -12.3098  -9.4617  -8.8248   0.7201
     2.3217   2.3731   2.7346   3.2149   3.2414   3.8861   3.9016   4.0975
     5.7258   7.3541   7.4510   8.6876   9.7213

     occupation numbers 
     1.0000   1.0000   1.0000   1.0000   1.0000   1.0000   1.0000   1.0000
     1.0000   1.0000   1.0000   1.0000   1.0000   1.0000   1.0000   1.0000
     1.0000  -0.0000  -0.0000  -0.0000  -0.0000

          k = 0.3328 0.2862 0.0000 ( 12128 PWs)   bands (ev):

   -49.8526 -26.1318 -25.7912 -25.7697 -12.0615  -9.3233  -8.8349   0.9898
     1.9447   2.0317   2.1375   2.6741   3.0638   3.2564   3.8816   4.0085
     6.1995   7.7039   7.7686   8.8611  10.4804

     occupation numbers 
     1.0000   1.0000   1.0000   1.0000   1.0000   1.0000   1.0000   1.0000
     1.0000   1.0000   1.0000   1.0000   1.0000   1.0000   1.0000   1.0000
     1.0000  -0.0000  -0.0000  -0.0000  -0.0000

          k = 0.4991 0.4293 0.0000 ( 12152 PWs)   bands (ev):

   -49.8482 -26.1731 -25.8218 -25.7800 -11.7045  -9.1247  -8.8510   1.0910
     1.4055   1.7267   1.9030   2.0004   2.1916   2.9298   3.8430   4.0127
     6.8129   8.1521   8.2584   9.1620  11.1412

     occupation numbers 
     1.0000   1.0000   1.0000   1.0000   1.0000   1.0000   1.0000   1.0000
     1.0000   1.0000   1.0000   1.0000   1.0000   1.0000   1.0000   1.0000
     0.4646  -0.0000  -0.0000  -0.0000  -0.0000

          k = 0.6655 0.5724 0.0000 ( 12170 PWs)   bands (ev):

   -49.8437 -26.2131 -25.8731 -25.7688 -11.3222  -8.9125  -8.8696   0.2529
     1.2307   1.5009   1.6666   1.7722   1.9819   2.5115   3.6525   4.0030
     7.5187   8.6274   8.8069   9.4595  11.3746

     occupation numbers 
     1.0000   1.0000   1.0000   1.0000   1.0000   1.0000   1.0000   1.0000
     1.0000   1.0000   1.0000   1.0000   1.0000   1.0000   1.0000   1.0000
    -0.0000  -0.0000  -0.0000  -0.0000  -0.0000

          k = 0.8319 0.7155 0.0000 ( 12159 PWs)   bands (ev):

   -49.8404 -26.2418 -25.9103 -25.7606 -11.0224  -8.8848  -8.7467  -0.3591
     0.7675   1.0983   1.6831   1.8092   2.1460   2.3905   3.3999   3.9357
     8.1754   9.0144   9.2207   9.6751  11.3679

     occupation numbers 
     1.0000   1.0000   1.0000   1.0000   1.0000   1.0000   1.0000   1.0000
     1.0000   1.0000   1.0000   1.0000   1.0000   1.0000   1.0000   1.0000
    -0.0000  -0.0000  -0.0000  -0.0000  -0.0000

          k =-0.9983-0.8586 0.0000 ( 12140 PWs)   bands (ev):

   -49.8392 -26.2521 -25.9238 -25.7576 -10.9077  -8.8907  -8.6833  -0.5828
     0.5986   0.9589   1.7516   1.8371   1.9746   2.5820   3.2729   3.8799
     8.4677   9.1714   9.3597   9.7686  11.3991

     occupation numbers 
     1.0000   1.0000   1.0000   1.0000   1.0000   1.0000   1.0000   1.0000
     1.0000   1.0000   1.0000   1.0000   1.0000   1.0000   1.0000   1.0000
    -0.0000  -0.0000  -0.0000  -0.0000  -0.0000

          k = 0.1664 0.0000 0.0451 ( 12128 PWs)   bands (ev):

   -49.8562 -26.0883 -25.7999 -25.7316 -12.3905  -9.4703  -8.8274   0.7121
     2.3657   2.7038   2.9127   3.0124   3.3054   3.9128   4.0396   4.1616
     5.7169   7.1605   7.3146   8.6812   9.5700

     occupation numbers 
     1.0000   1.0000   1.0000   1.0000   1.0000   1.0000   1.0000   1.0000
     1.0000   1.0000   1.0000   1.0000   1.0000   1.0000   1.0000   1.0000
     1.0000  -0.0000  -0.0000  -0.0000  -0.0000

          k = 0.3328 0.1431 0.0451 ( 12145 PWs)   bands (ev):

   -49.8533 -26.0977 -25.7925 -25.7709 -12.2885  -9.3520  -8.8362   0.9442
     2.1301   2.3673   2.7480   2.8001   3.1671   3.4416   3.8753   4.0706
     6.1753   7.2376   7.3680   8.8451  10.1008

     occupation numbers 
     1.0000   1.0000   1.0000   1.0000   1.0000   1.0000   1.0000   1.0000
     1.0000   1.0000   1.0000   1.0000   1.0000   1.0000   1.0000   1.0000
     1.0000  -0.0000  -0.0000  -0.0000  -0.0000

          k = 0.4991 0.2862 0.0451 ( 12149 PWs)   bands (ev):

   -49.8490 -26.1273 -25.8235 -25.7817 -12.0329  -9.1664  -8.8508   1.2744
     1.8998   1.9894   2.0796   2.2039   2.5753   2.9970   3.8785   4.0861
     6.7712   7.5583   7.6691   9.1716  10.7658

     occupation numbers 
     1.0000   1.0000   1.0000   1.0000   1.0000   1.0000   1.0000   1.0000
     1.0000   1.0000   1.0000   1.0000   1.0000   1.0000   1.0000   1.0000
     0.7708  -0.0000  -0.0000  -0.0000  -0.0000

          k = 0.6655 0.4293 0.0451 ( 12177 PWs)   bands (ev):

   -49.8445 -26.1683 -25.8749 -25.7704 -11.6767  -8.9577  -8.8674   1.1117
     1.3858   1.5939   1.7398   1.8967   2.0847   2.5996   3.7667   4.1039
     7.4532   8.0400   8.1887   9.5114  11.1737

     occupation numbers 
     1.0000   1.0000   1.0000   1.0000   1.0000   1.0000   1.0000   1.0000
     1.0000   1.0000   1.0000   1.0000   1.0000   1.0000   1.0000   1.0000
    -0.0000  -0.0000  -0.0000  -0.0000  -0.0000

          k = 0.8319 0.5724 0.0451 ( 12171 PWs)   bands (ev):

   -49.8410 -26.2095 -25.9116 -25.7618 -11.3026  -8.8883  -8.7757   0.2692
     0.9781   1.0762   1.7145   1.8324   2.2644   2.3735   3.5091   4.0361
     8.1219   8.5550   8.7626   9.7222  11.2940

     occupation numbers 
     1.0000   1.0000   1.0000   1.0000   1.0000   1.0000   1.0000   1.0000
     1.0000   1.0000   1.0000   1.0000   1.0000   1.0000   1.0000   1.0000
    -0.0000  -0.0000  -0.0000  -0.0000  -0.0000

          k = 0.9983 0.7155 0.0451 ( 12167 PWs)   bands (ev):

   -49.8394 -26.2404 -25.9243 -25.7580 -11.0155  -8.8962  -8.6894  -0.3537
     0.6667   0.9439   1.6262   1.9302   2.0747   2.5941   3.3062   3.9110
     8.4632   8.9825   9.1982   9.7597  11.3430

     occupation numbers 
     1.0000   1.0000   1.0000   1.0000   1.0000   1.0000   1.0000   1.0000
     1.0000   1.0000   1.0000   1.0000   1.0000   1.0000   1.0000   1.0000
    -0.0000  -0.0000  -0.0000  -0.0000  -0.0000

          k =-0.8319-0.8586 0.0451 ( 12162 PWs)   bands (ev):

   -49.8402 -26.2535 -25.9098 -25.7601 -10.9144  -8.8934  -8.7252  -0.5877
     0.6843   1.0899   1.5264   1.8733   2.1963   2.4653   3.3498   3.8599
     8.2014   9.1973   9.3832   9.6289  11.3317

     occupation numbers 
     1.0000   1.0000   1.0000   1.0000   1.0000   1.0000   1.0000   1.0000
     1.0000   1.0000   1.0000   1.0000   1.0000   1.0000   1.0000   1.0000
    -0.0000  -0.0000  -0.0000  -0.0000  -0.0000

          k =-0.6655-0.7155 0.0451 ( 12161 PWs)   bands (ev):

   -49.8431 -26.2455 -25.8718 -25.7676 -11.0412  -8.8840  -8.8662  -0.3734
     1.0096   1.4676   1.5134   1.7483   2.0552   2.5434   3.5620   3.8706
     7.5653   9.0892   9.2586   9.3942  11.4152

     occupation numbers 
     1.0000   1.0000   1.0000   1.0000   1.0000   1.0000   1.0000   1.0000
     1.0000   1.0000   1.0000   1.0000   1.0000   1.0000   1.0000   1.0000
    -0.0000  -0.0000  -0.0000  -0.0000  -0.0000

          k =-0.4991-0.5724 0.0451 ( 12173 PWs)   bands (ev):

   -49.8473 -26.2181 -25.8201 -25.7783 -11.3488  -9.0745  -8.8602   0.2311
     1.4235   1.5129   1.6123   1.8951   2.1513   2.9284   3.7608   3.8707
     6.8648   8.7510   8.8316   9.1495  11.3589

     occupation numbers 
     1.0000   1.0000   1.0000   1.0000   1.0000   1.0000   1.0000   1.0000
     1.0000   1.0000   1.0000   1.0000   1.0000   1.0000   1.0000   1.0000
     0.1200  -0.0000  -0.0000  -0.0000  -0.0000

          k =-0.3328-0.4293 0.0451 ( 12143 PWs)   bands (ev):

   -49.8518 -26.1778 -25.7895 -25.7682 -11.7322  -9.2763  -8.8423   1.0107
     1.1624   1.5522   2.1251   2.3270   2.9137   3.2706   3.8066   3.9089
     6.2456   8.3102   8.3255   8.8747  10.8443

     occupation numbers 
     1.0000   1.0000   1.0000   1.0000   1.0000   1.0000   1.0000   1.0000
     1.0000   1.0000   1.0000   1.0000   1.0000   1.0000   1.0000   1.0000
     1.0000  -0.0000  -0.0000  -0.0000  -0.0000

          k =-0.1664-0.2862 0.0451 ( 12113 PWs)   bands (ev):

   -49.8553 -26.1351 -25.7982 -25.7301 -12.0824  -9.4279  -8.8301   0.7722
     1.8497   2.0166   2.3837   3.0090   3.4072   3.6364   3.8511   3.9560
     5.7591   7.8415   7.8442   8.7084  10.0789

     occupation numbers 
     1.0000   1.0000   1.0000   1.0000   1.0000   1.0000   1.0000   1.0000
     1.0000   1.0000   1.0000   1.0000   1.0000   1.0000   1.0000   1.0000
     1.0000  -0.0000  -0.0000  -0.0000  -0.0000

          k =-0.0000-0.1431 0.0451 ( 12110 PWs)   bands (ev):

   -49.8569 -26.1020 -25.8020 -25.7166 -12.3176  -9.4972  -8.8252   0.6484
     2.3039   2.4827   2.7276   3.2255   3.3760   3.8732   4.0435   4.2219
     5.5217   7.4032   7.4826   8.6629   9.5424

     occupation numbers 
     1.0000   1.0000   1.0000   1.0000   1.0000   1.0000   1.0000   1.0000
     1.0000   1.0000   1.0000   1.0000   1.0000   1.0000   1.0000   1.0000
     1.0000  -0.0000  -0.0000  -0.0000  -0.0000

          k = 0.3328 0.0000 0.0903 ( 12143 PWs)   bands (ev):

   -49.8535 -26.0851 -25.7929 -25.7713 -12.3689  -9.3572  -8.8430   0.9411
     2.1356   2.5733   2.8281   2.9798   3.1186   3.6417   3.8802   4.0568
     6.1791   7.0536   7.2314   8.8227   9.9276

     occupation numbers 
     1.0000   1.0000   1.0000   1.0000   1.0000   1.0000   1.0000   1.0000
     1.0000   1.0000   1.0000   1.0000   1.0000   1.0000   1.0000   1.0000
     1.0000  -0.0032  -0.0000  -0.0000  -0.0000

          k = 0.4991 0.1431 0.0903 ( 12159 PWs)   bands (ev):

   -49.8496 -26.0934 -25.8247 -25.7829 -12.2593  -9.1926  -8.8552   1.2158
     1.9141   2.0809   2.3593   2.7681   3.1309   3.2007   3.8318   4.0119
     6.7624   7.1154   7.2367   9.1509  10.3228

     occupation numbers 
     1.0000   1.0000   1.0000   1.0000   1.0000   1.0000   1.0000   1.0000
     1.0000   1.0000   1.0000   1.0000   1.0000   1.0000   1.0000   1.0000
     0.8244  -0.0002  -0.0000  -0.0000  -0.0000

          k = 0.6655 0.2862 0.0903 ( 12171 PWs)   bands (ev):

   -49.8454 -26.1228 -25.8767 -25.7721 -12.0043  -8.9998  -8.8675   1.3210
     1.5530   1.7691   2.0607   2.1961   2.4497   2.8696   3.8450   4.0997
     7.2772   7.5522   7.6060   9.5244  10.7632

     occupation numbers 
     1.0000   1.0000   1.0000   1.0000   1.0000   1.0000   1.0000   1.0000
     1.0000   1.0000   1.0000   1.0000   1.0000   1.0000   1.0000   1.0000
    -0.0000  -0.0000  -0.0000  -0.0000  -0.0000

          k = 0.8319 0.4293 0.0903 ( 12169 PWs)   bands (ev):

   -49.8419 -26.1649 -25.9135 -25.7634 -11.6563  -8.9055  -8.8017   0.9519
     1.1907   1.3309   1.6169   1.9041   2.4453   2.5807   3.6534   4.1034
     7.8166   8.1271   8.2137   9.7491  11.0403

     occupation numbers 
     1.0000   1.0000   1.0000   1.0000   1.0000   1.0000   1.0000   1.0000
     1.0000   1.0000   1.0000   1.0000   1.0000   1.0000   1.0000   1.0000
    -0.0000  -0.0000  -0.0000  -0.0000  -0.0000

          k = 0.9983 0.5724 0.0903 ( 12177 PWs)   bands (ev):

   -49.8400 -26.2082 -25.9256 -25.7592 -11.2954  -8.9112  -8.7060   0.2752
     0.8261   0.9477   1.5082   1.9551   2.3527   2.6426   3.4049   3.9844
     8.4098   8.5331   8.7442   9.7490  11.1754

     occupation numbers 
     1.0000   1.0000   1.0000   1.0000   1.0000   1.0000   1.0000   1.0000
     1.0000   1.0000   1.0000   1.0000   1.0000   1.0000   1.0000   1.0000
    -0.0000  -0.0000  -0.0000  -0.0000  -0.0000

          k = 1.1647 0.7155 0.0903 ( 12179 PWs)   bands (ev):

   -49.8404 -26.2418 -25.9103 -25.7606 -11.0223  -8.9115  -8.7173  -0.3591
     0.7419   1.0487   1.4157   1.9353   2.3328   2.5647   3.3705   3.8443
     8.2148   9.0088   9.2205   9.5788  11.2344

     occupation numbers 
     1.0000   1.0000   1.0000   1.0000   1.0000   1.0000   1.0000   1.0000
     1.0000   1.0000   1.0000   1.0000   1.0000   1.0000   1.0000   1.0000
    -0.0000  -0.0000  -0.0000  -0.0000  -0.0000

          k =-0.6655-0.8586 0.0903 ( 12179 PWs)   bands (ev):

   -49.8429 -26.2572 -25.8713 -25.7671 -10.9327  -8.9011  -8.8367  -0.6010
     0.9106   1.3517   1.4816   1.7292   2.1973   2.6237   3.5325   3.7608
     7.5982   9.2189   9.3610   9.4409  11.3802

     occupation numbers 
     1.0000   1.0000   1.0000   1.0000   1.0000   1.0000   1.0000   1.0000
     1.0000   1.0000   1.0000   1.0000   1.0000   1.0000   1.0000   1.0000
    -0.0000  -0.0000  -0.0000  -0.0000  -0.0000

          k =-0.4991-0.7155 0.0903 ( 12183 PWs)   bands (ev):

   -49.8467 -26.2506 -25.8189 -25.7771 -11.0665  -9.0238  -8.8817  -0.3926
     1.2372   1.3392   1.6355   1.8619   2.1433   2.9509   3.6642   3.7616
     6.9118   8.9970   9.2300   9.3537  11.4521

     occupation numbers 
     1.0000   1.0000   1.0000   1.0000   1.0000   1.0000   1.0000   1.0000
     1.0000   1.0000   1.0000   1.0000   1.0000   1.0000   1.0000   1.0000
    -0.0192  -0.0000  -0.0000  -0.0000  -0.0000

          k =-0.3328-0.5724 0.0903 ( 12156 PWs)   bands (ev):

   -49.8510 -26.2230 -25.7879 -25.7666 -11.3752  -9.2191  -8.8616   0.2097
     1.1335   1.3058   1.9502   2.1364   2.8480   3.2281   3.6322   3.8898
     6.2966   8.7607   8.9121   9.0094  11.1135

     occupation numbers 
     1.0000   1.0000   1.0000   1.0000   1.0000   1.0000   1.0000   1.0000
     1.0000   1.0000   1.0000   1.0000   1.0000   1.0000   1.0000   1.0000
     1.0000  -0.0000  -0.0000  -0.0000  -0.0000

          k =-0.1664-0.4293 0.0903 ( 12130 PWs)   bands (ev):

   -49.8545 -26.1812 -25.7965 -25.7286 -11.7523  -9.3750  -8.8457   0.8386
     1.0986   1.4463   2.3900   2.6816   3.2336   3.5605   3.7569   3.9248
     5.8024   8.3884   8.4594   8.7434  10.4597

     occupation numbers 
     1.0000   1.0000   1.0000   1.0000   1.0000   1.0000   1.0000   1.0000
     1.0000   1.0000   1.0000   1.0000   1.0000   1.0000   1.0000   1.0000
     1.0000  -0.0000  -0.0000  -0.0000  -0.0000

          k = 0.0000-0.2862 0.0903 ( 12119 PWs)   bands (ev):

   -49.8563 -26.1363 -25.8008 -25.7155 -12.0900  -9.4583  -8.8373   0.7141
     1.8222   2.0120   2.5112   3.1648   3.3903   3.6136   3.9246   4.1084
     5.5531   7.8699   7.9031   8.6999   9.9146

     occupation numbers 
     1.0000   1.0000   1.0000   1.0000   1.0000   1.0000   1.0000   1.0000
     1.0000   1.0000   1.0000   1.0000   1.0000   1.0000   1.0000   1.0000
     1.0000  -0.0000  -0.0000  -0.0000  -0.0000

          k = 0.1664-0.1431 0.0903 ( 12119 PWs)   bands (ev):

   -49.8559 -26.1009 -25.7995 -25.7312 -12.3097  -9.4522  -8.8366   0.7510
     2.3285   2.3757   2.7331   3.1878   3.2455   3.7816   3.9651   4.0878
     5.7361   7.3518   7.4616   8.6915   9.7612

     occupation numbers 
     1.0000   1.0000   1.0000   1.0000   1.0000   1.0000   1.0000   1.0000
     1.0000   1.0000   1.0000   1.0000   1.0000   1.0000   1.0000   1.0000
     1.0000  -0.0000  -0.0000  -0.0000  -0.0000

          k = 0.4991 0.0000 0.1354 ( 12156 PWs)   bands (ev):

   -49.8498 -26.0809 -25.8252 -25.7833 -12.3396  -9.1987  -8.8604   1.1901
     1.9293   2.0305   2.4818   3.0397   3.3257   3.4524   3.7781   3.9036
     6.7909   6.9272   7.0811   9.1064  10.0980

     occupation numbers 
     1.0000   1.0000   1.0000   1.0000   1.0000   1.0000   1.0000   1.0000
     1.0000   1.0000   1.0000   1.0000   1.0000   1.0000   1.0000   1.0000
     0.6339  -0.0322  -0.0011  -0.0000  -0.0000

          k = 0.6655 0.1431 0.1354 ( 12168 PWs)   bands (ev):

   -49.8460 -26.0890 -25.8780 -25.7733 -12.2302  -9.0314  -8.8660   1.2546
     1.4862   1.8958   2.1622   2.8113   3.0889   3.2626   3.8005   3.9472
     6.9619   7.0636   7.5027   9.4946  10.2754

     occupation numbers 
     1.0000   1.0000   1.0000   1.0000   1.0000   1.0000   1.0000   1.0000
     1.0000   1.0000   1.0000   1.0000   1.0000   1.0000   1.0000   1.0000
    -0.0314  -0.0022  -0.0000  -0.0000  -0.0000

          k = 0.8319 0.2862 0.1354 ( 12172 PWs)   bands (ev):

   -49.8427 -26.1195 -25.9153 -25.7651 -11.9833  -8.9333  -8.8161   0.9198
     1.4520   1.6730   1.9315   2.2129   2.6392   3.0076   3.7863   4.0610
     7.2745   7.4557   8.1572   9.7387  10.6097

     occupation numbers 
     1.0000   1.0000   1.0000   1.0000   1.0000   1.0000   1.0000   1.0000
     1.0000   1.0000   1.0000   1.0000   1.0000   1.0000   1.0000   1.0000
    -0.0000  -0.0000  -0.0000  -0.0000  -0.0000

          k = 0.9983 0.4293 0.1354 ( 12163 PWs)   bands (ev):

   -49.8409 -26.1636 -25.9275 -25.7608 -11.6488  -8.9315  -8.7284   0.7712
     1.2088   1.2206   1.4330   1.9574   2.6310   2.8141   3.5573   4.0445
     7.8413   8.1038   8.4581   9.7375  10.8905

     occupation numbers 
     1.0000   1.0000   1.0000   1.0000   1.0000   1.0000   1.0000   1.0000
     1.0000   1.0000   1.0000   1.0000   1.0000   1.0000   1.0000   1.0000
    -0.0000  -0.0000  -0.0000  -0.0000  -0.0000

          k = 1.1647 0.5724 0.1354 ( 12188 PWs)   bands (ev):

   -49.8410 -26.2095 -25.9116 -25.7618 -11.3024  -8.9353  -8.7241   0.2690
     0.9091   1.0223   1.3448   2.0147   2.5045   2.6750   3.4658   3.8953
     8.2144   8.5191   8.7674   9.5447  11.0713

     occupation numbers 
     1.0000   1.0000   1.0000   1.0000   1.0000   1.0000   1.0000   1.0000
     1.0000   1.0000   1.0000   1.0000   1.0000   1.0000   1.0000   1.0000
    -0.0000  -0.0000  -0.0000  -0.0000  -0.0000

          k = 1.3311 0.7155 0.1354 ( 12175 PWs)   bands (ev):

   -49.8431 -26.2455 -25.8718 -25.7676 -11.0409  -8.9299  -8.8180  -0.3736
     0.9564   1.3017   1.4310   1.7590   2.3472   2.7065   3.5750   3.7206
     7.6135   9.0495   9.2735   9.3032  11.2990

     occupation numbers 
     1.0000   1.0000   1.0000   1.0000   1.0000   1.0000   1.0000   1.0000
     1.0000   1.0000   1.0000   1.0000   1.0000   1.0000   1.0000   1.0000
    -0.0000  -0.0000  -0.0000  -0.0000  -0.0000

          k =-0.4991-0.8586 0.1354 ( 12184 PWs)   bands (ev):

   -49.8465 -26.2624 -25.8184 -25.7767 -10.9574  -8.9830  -8.9123  -0.6192
     1.1703   1.2152   1.7274   1.8059   2.1865   2.9707   3.5791   3.7458
     6.9437   8.9615   9.4080   9.5019  11.4632

     occupation numbers 
     1.0000   1.0000   1.0000   1.0000   1.0000   1.0000   1.0000   1.0000
     1.0000   1.0000   1.0000   1.0000   1.0000   1.0000   1.0000   1.0000
    -0.0354  -0.0000  -0.0000  -0.0000  -0.0000

          k =-0.3328-0.7155 0.1354 ( 12177 PWs)   bands (ev):

   -49.8503 -26.2557 -25.7866 -25.7654 -11.0915  -9.1627  -8.8924  -0.4115
     1.0016   1.3587   1.7457   2.0651   2.8302   3.1251   3.5233   3.8895
     6.3393   8.8024   9.3555   9.3919  11.2764

     occupation numbers 
     1.0000   1.0000   1.0000   1.0000   1.0000   1.0000   1.0000   1.0000
     1.0000   1.0000   1.0000   1.0000   1.0000   1.0000   1.0000   1.0000
     1.0000  -0.0000  -0.0000  -0.0000  -0.0000

          k =-0.1664-0.5724 0.1354 ( 12144 PWs)   bands (ev):

   -49.8536 -26.2266 -25.7948 -25.7270 -11.3944  -9.3129  -8.8729   0.1938
     0.9055   1.2168   2.2868   2.4598   2.9693   3.5103   3.6609   3.9566
     5.8454   8.7551   8.9751   9.0521  10.7754

     occupation numbers 
     1.0000   1.0000   1.0000   1.0000   1.0000   1.0000   1.0000   1.0000
     1.0000   1.0000   1.0000   1.0000   1.0000   1.0000   1.0000   1.0000
     1.0000  -0.0000  -0.0000  -0.0000  -0.0000

          k = 0.0000-0.4293 0.1354 ( 12137 PWs)   bands (ev):

   -49.8554 -26.1825 -25.7991 -25.7140 -11.7596  -9.4008  -8.8589   0.7862
     1.0903   1.4326   2.5515   2.8912   3.0183   3.5569   3.9483   4.0177
     5.5913   8.4084   8.5219   8.7509  10.3183

     occupation numbers 
     1.0000   1.0000   1.0000   1.0000   1.0000   1.0000   1.0000   1.0000
     1.0000   1.0000   1.0000   1.0000   1.0000   1.0000   1.0000   1.0000
     1.0000  -0.0000  -0.0000  -0.0000  -0.0000

          k = 0.1664-0.2862 0.1354 ( 12127 PWs)   bands (ev):

   -49.8553 -26.1351 -25.7982 -25.7301 -12.0822  -9.4098  -8.8525   0.8272
     1.8703   2.0213   2.3899   3.0019   3.2669   3.5840   3.8450   4.0275
     5.7720   7.8412   7.8518   8.7183  10.1550

     occupation numbers 
     1.0000   1.0000   1.0000   1.0000   1.0000   1.0000   1.0000   1.0000
     1.0000   1.0000   1.0000   1.0000   1.0000   1.0000   1.0000   1.0000
     1.0000  -0.0000  -0.0000  -0.0000  -0.0000

          k = 0.3328-0.1431 0.1354 ( 12136 PWs)   bands (ev):

   -49.8533 -26.0977 -25.7925 -25.7709 -12.2883  -9.3373  -8.8535   0.9814
     2.1391   2.3512   2.7425   2.7521   3.1680   3.4476   3.8844   4.0597
     6.2006   7.2247   7.3859   8.8045  10.1298

     occupation numbers 
     1.0000   1.0000   1.0000   1.0000   1.0000   1.0000   1.0000   1.0000
     1.0000   1.0000   1.0000   1.0000   1.0000   1.0000   1.0000   1.0000
     1.0000  -0.0000  -0.0000  -0.0000  -0.0000

          k = 0.6655 0.0000 0.1805 ( 12170 PWs)   bands (ev):

   -49.8462 -26.0766 -25.8785 -25.7737 -12.3103  -9.0477  -8.8599   1.2122
     1.4043   1.9658   2.2243   3.1146   3.4111   3.5513   3.7193   3.7511
     6.8223   6.8748   7.4958   9.4347  10.0222

     occupation numbers 
     1.0000   1.0000   1.0000   1.0000   1.0000   1.0000   1.0000   1.0000
     1.0000   1.0000   1.0000   1.0000   1.0000   1.0000   1.0000   1.0000
     0.3925   0.0754  -0.0000  -0.0000  -0.0000

          k = 0.8319 0.1431 0.1805 ( 12182 PWs)   bands (ev):

   -49.8433 -26.0859 -25.9166 -25.7663 -12.2090  -8.9613  -8.8179   0.8642
     1.3871   1.9145   1.9627   2.9278   3.0744   3.4490   3.7739   3.9149
     6.8821   6.9168   8.1392   9.6734  10.1586

     occupation numbers 
     1.0000   1.0000   1.0000   1.0000   1.0000   1.0000   1.0000   1.0000
     1.0000   1.0000   1.0000   1.0000   1.0000   1.0000   1.0000   1.0000
     0.0483  -0.0248  -0.0000  -0.0000  -0.0000

          k = 0.9983 0.2862 0.1805 ( 12170 PWs)   bands (ev):

   -49.8417 -26.1183 -25.9294 -25.7625 -11.9756  -8.9517  -8.7506   0.7260
     1.3507   1.6022   1.9385   2.2110   2.8024   3.1948   3.7300   4.0082
     7.2542   7.4154   8.4419   9.7081  10.5002

[...]

   -49.8569 -26.1021 -25.8021 -25.7166 -12.3158  -9.3136  -9.0433   1.2375
     2.2612   2.6421   2.6460   2.8014   3.2952   3.5597   3.9291   4.0141
     5.5656   7.4030   7.6105   8.9474  10.0468

     occupation numbers 
     1.0000   1.0000   1.0000   1.0000   1.0000   1.0000   1.0000   1.0000
     1.0000   1.0000   1.0000   1.0000   1.0000   1.0000   1.0000   1.0000
     1.0000  -0.0000  -0.0000  -0.0000  -0.0000

          k = 0.1664-0.0000 0.4061 ( 12140 PWs)   bands (ev):

   -49.8562 -26.0883 -25.8000 -25.7316 -12.3888  -9.2992  -9.0288   1.2748
     2.1211   2.6543   2.7998   3.1345   3.3402   3.5403   3.8636   3.9433
     5.8191   7.1392   7.4644   8.8290   9.9090

     occupation numbers 
     1.0000   1.0000   1.0000   1.0000   1.0000   1.0000   1.0000   1.0000
     1.0000   1.0000   1.0000   1.0000   1.0000   1.0000   1.0000   1.0000
     1.0000  -0.0001  -0.0000  -0.0000  -0.0000

          k =-1.9966-0.2862-0.0903 ( 12171 PWs)   bands (ev):

   -49.8563 -26.1363 -25.8009 -25.7155 -12.0881  -9.2499  -9.0783   1.2837
     1.9951   2.1036   2.3566   2.6653   3.1243   3.2404   3.8768   4.2191
     5.5884   7.9015   7.9246   8.9644  10.4757

     occupation numbers 
     1.0000   1.0000   1.0000   1.0000   1.0000   1.0000   1.0000   1.0000
     1.0000   1.0000   1.0000   1.0000   1.0000   1.0000   1.0000   1.0000
     1.0000  -0.0000  -0.0000  -0.0000  -0.0000

          k =-1.8302-0.1431-0.0903 ( 12141 PWs)   bands (ev):

   -49.8559 -26.1009 -25.7996 -25.7312 -12.3080  -9.2562  -9.0630   1.3717
     2.0127   2.5477   2.6441   2.9954   3.1144   3.5631   3.8372   3.9509
     5.8297   7.3386   7.5771   8.8551  10.1287

     occupation numbers 
     1.0000   1.0000   1.0000   1.0000   1.0000   1.0000   1.0000   1.0000
     1.0000   1.0000   1.0000   1.0000   1.0000   1.0000   1.0000   1.0000
     1.0000  -0.0000  -0.0000  -0.0000  -0.0000

          k =-1.6638-0.0000-0.0903 ( 12135 PWs)   bands (ev):

   -49.8535 -26.0851 -25.7930 -25.7713 -12.3675  -9.2152  -9.0025   1.3742
     1.7622   2.5105   2.7200   2.8455   3.4827   3.6994   3.7945   3.8273
     6.3519   6.9845   7.3275   8.6750   9.9611

     occupation numbers 
     1.0000   1.0000   1.0000   1.0000   1.0000   1.0000   1.0000   1.0000
     1.0000   1.0000   1.0000   1.0000   1.0000   1.0000   1.0000   1.0000
     1.0000  -0.0222  -0.0000  -0.0000  -0.0000

          k = 0.0000 1.2879-0.0451 ( 12182 PWs)   bands (ev):

   -49.8554 -26.1825 -25.7991 -25.7140 -11.7579  -9.1826  -9.1038   0.9846
     1.4001   1.6524   2.2760   2.6772   2.8767   2.9982   3.8143   4.3559
     5.6176   8.4135   8.5202   8.9596  10.8009

     occupation numbers 
     1.0000   1.0000   1.0000   1.0000   1.0000   1.0000   1.0000   1.0000
     1.0000   1.0000   1.0000   1.0000   1.0000   1.0000   1.0000   1.0000
     1.0000  -0.0000  -0.0000  -0.0000  -0.0000

          k =-1.8302-0.2862-0.0451 ( 12164 PWs)   bands (ev):

   -49.8553 -26.1351 -25.7983 -25.7301 -12.0805  -9.1958  -9.0934   1.3841
     1.9365   2.0775   2.1475   2.8894   2.9127   3.3053   3.6370   4.2381
     5.8495   7.8391   7.8916   8.8747  10.5507

     occupation numbers 
     1.0000   1.0000   1.0000   1.0000   1.0000   1.0000   1.0000   1.0000
     1.0000   1.0000   1.0000   1.0000   1.0000   1.0000   1.0000   1.0000
     1.0000  -0.0000  -0.0000  -0.0000  -0.0000

          k =-1.6638-0.1431-0.0451 ( 12133 PWs)   bands (ev):

   -49.8533 -26.0977 -25.7926 -25.7709 -12.2869  -9.1884  -9.0190   1.4608
     1.6548   2.5006   2.5659   2.7013   3.2827   3.4593   3.7316   4.0390
     6.3642   7.1815   7.4487   8.6867  10.1635

     occupation numbers 
     1.0000   1.0000   1.0000   1.0000   1.0000   1.0000   1.0000   1.0000
     1.0000   1.0000   1.0000   1.0000   1.0000   1.0000   1.0000   1.0000
     1.0000  -0.0000  -0.0000  -0.0000  -0.0000

          k =-1.4974-0.0000-0.0451 ( 12169 PWs)   bands (ev):

   -49.8498 -26.0809 -25.8252 -25.7834 -12.3387  -9.1470  -8.9137   1.2055
     1.5156   2.1183   2.6253   2.9212   3.6523   3.6620   3.7261   3.8986
     6.8201   6.9734   7.1032   8.6959   9.8829

     occupation numbers 
     1.0000   1.0000   1.0000   1.0000   1.0000   1.0000   1.0000   1.0000
     1.0000   1.0000   1.0000   1.0000   1.0000   1.0000   1.0000   1.0000
     0.4092  -0.0269  -0.0004  -0.0000  -0.0000

          k =-0.0000 1.1448-0.0000 ( 12185 PWs)   bands (ev):

   -49.8546 -26.2280 -25.7974 -25.7125 -11.4000  -9.1757  -9.0674   0.1808
     1.2280   1.2502   2.3939   2.6389   2.6751   2.8412   3.8206   4.3482
     5.6422   8.9341   8.9620   9.1065  10.9299

     occupation numbers 
     1.0000   1.0000   1.0000   1.0000   1.0000   1.0000   1.0000   1.0000
     1.0000   1.0000   1.0000   1.0000   1.0000   1.0000   1.0000   1.0000
     1.0000  -0.0000  -0.0000  -0.0000  -0.0000

          k = 0.1664 1.2879-0.0000 ( 12190 PWs)   bands (ev):

   -49.8545 -26.1812 -25.7966 -25.7286 -11.7506  -9.1244  -9.1218   1.0006
     1.4769   1.6399   2.0370   2.6329   2.8921   3.1620   3.5151   4.3424
     5.8707   8.3756   8.4625   8.8891  10.8824

     occupation numbers 
     1.0000   1.0000   1.0000   1.0000   1.0000   1.0000   1.0000   1.0000
     1.0000   1.0000   1.0000   1.0000   1.0000   1.0000   1.0000   1.0000
     1.0000  -0.0000  -0.0000  -0.0000  -0.0000

          k =-1.6638-0.2862-0.0000 ( 12170 PWs)   bands (ev):

   -49.8526 -26.1318 -25.7913 -25.7697 -12.0599  -9.1490  -9.0275   1.5025
     1.5439   2.1005   2.2257   2.4400   3.1181   3.1391   3.5534   4.2370
     6.3764   7.6850   7.7982   8.7198  10.5931

     occupation numbers 
     1.0000   1.0000   1.0000   1.0000   1.0000   1.0000   1.0000   1.0000
     1.0000   1.0000   1.0000   1.0000   1.0000   1.0000   1.0000   1.0000
     1.0000  -0.0000  -0.0000  -0.0000  -0.0000

          k =-1.4974-0.1431-0.0000 ( 12160 PWs)   bands (ev):

   -49.8496 -26.0934 -25.8247 -25.7830 -12.2583  -9.1353  -8.9142   1.2197
     1.5094   2.0554   2.5483   2.7614   3.3413   3.4513   3.7334   4.0710
     6.9747   7.0166   7.2568   8.7037  10.0813

     occupation numbers 
     1.0000   1.0000   1.0000   1.0000   1.0000   1.0000   1.0000   1.0000
     1.0000   1.0000   1.0000   1.0000   1.0000   1.0000   1.0000   1.0000
    -0.0264  -0.0105  -0.0000  -0.0000  -0.0000

          k =-1.3311-0.0000-0.0000 ( 12151 PWs)   bands (ev):

   -49.8462 -26.0766 -25.8784 -25.7738 -12.3099  -9.0884  -8.8115   1.0477
     1.0860   2.0373   2.4927   3.0273   3.6049   3.6589   3.8494   3.8649
     6.7155   6.8511   7.6296   8.9805   9.7467

     occupation numbers 
     1.0000   1.0000   1.0000   1.0000   1.0000   1.0000   1.0000   1.0000
     1.0000   1.0000   1.0000   1.0000   1.0000   1.0000   1.0000   1.0000
     1.0023   0.1940  -0.0000  -0.0000  -0.0000

          k = 0.0000 0.0000 0.4513 ( 12116 PWs)   bands (ev):

   -49.8571 -26.0894 -25.8026 -25.7170 -12.3963  -9.2869  -9.0848   1.3480
     2.2164   2.6601   2.7771   3.3287   3.3444   3.3598   3.8284   4.0709
     5.5588   7.2032   7.5290   8.9776   9.8910

     occupation numbers 
     1.0000   1.0000   1.0000   1.0000   1.0000   1.0000   1.0000   1.0000
     1.0000   1.0000   1.0000   1.0000   1.0000   1.0000   1.0000   1.0000
     1.0000  -0.0000  -0.0000  -0.0000  -0.0000

          k =-1.9966-0.1431-0.0451 ( 12151 PWs)   bands (ev):

   -49.8569 -26.1021 -25.8021 -25.7166 -12.3155  -9.2425  -9.1196   1.4118
     2.1437   2.6136   2.6746   2.7601   3.2741   3.5631   3.8905   3.9839
     5.5676   7.4030   7.6320   8.9913  10.1126

     occupation numbers 
     1.0000   1.0000   1.0000   1.0000   1.0000   1.0000   1.0000   1.0000
     1.0000   1.0000   1.0000   1.0000   1.0000   1.0000   1.0000   1.0000
     1.0000  -0.0000  -0.0000  -0.0000  -0.0000

          k =-1.8302 0.0000-0.0451 ( 12123 PWs)   bands (ev):

   -49.8562 -26.0883 -25.8000 -25.7316 -12.3885  -9.2387  -9.0939   1.4725
     1.9265   2.6937   2.7916   3.0977   3.4104   3.5103   3.7894   3.9173
     5.8271   7.1378   7.4852   8.8667   9.9392

     occupation numbers 
     1.0000   1.0000   1.0000   1.0000   1.0000   1.0000   1.0000   1.0000
     1.0000   1.0000   1.0000   1.0000   1.0000   1.0000   1.0000   1.0000
     1.0000  -0.0001  -0.0000  -0.0000  -0.0000

          k = 0.0000 1.4311 0.0000 ( 12179 PWs)   bands (ev):

   -49.8563 -26.1363 -25.8009 -25.7155 -12.0880  -9.1884  -9.1423   1.3600
     2.0423   2.1169   2.2207   2.6807   3.1187   3.2089   3.8584   4.2290
     5.5906   7.9015   7.9316   8.9848  10.5155

     occupation numbers 
     1.0000   1.0000   1.0000   1.0000   1.0000   1.0000   1.0000   1.0000
     1.0000   1.0000   1.0000   1.0000   1.0000   1.0000   1.0000   1.0000
     1.0000  -0.0000  -0.0000  -0.0000  -0.0000

          k =-1.8302-0.1431 0.0000 ( 12161 PWs)   bands (ev):

   -49.8559 -26.1009 -25.7996 -25.7312 -12.3078  -9.2136  -9.1080   1.4914
     1.8996   2.5766   2.6237   3.0319   3.0640   3.5622   3.8223   3.9357
     5.8343   7.3380   7.5855   8.8741  10.1473

     occupation numbers 
     1.0000   1.0000   1.0000   1.0000   1.0000   1.0000   1.0000   1.0000
     1.0000   1.0000   1.0000   1.0000   1.0000   1.0000   1.0000   1.0000
     1.0000  -0.0000  -0.0000  -0.0000  -0.0000

          k =-1.6638 0.0000 0.0000 ( 12135 PWs)   bands (ev):

   -49.8535 -26.0851 -25.7930 -25.7713 -12.3674  -9.1938  -9.0254   1.5128
     1.6098   2.5477   2.6911   2.8400   3.5296   3.7474   3.7507   3.7759
     6.3642   6.9810   7.3330   8.6743   9.9538

     occupation numbers 
     1.0000   1.0000   1.0000   1.0000   1.0000   1.0000   1.0000   1.0000
     1.0000   1.0000   1.0000   1.0000   1.0000   1.0000   1.0000   1.0000
     1.0000  -0.0237  -0.0000  -0.0000  -0.0000

          k =-1.9966-1.7173-0.5415 ( 12132 PWs)   bands (ev):

   -49.8571 -26.0894 -25.8026 -25.7170 -12.3962  -9.2373  -9.1372   1.4643
     2.1019   2.6783   2.7738   3.3141   3.3369   3.3834   3.7851   4.0572
     5.5588   7.2033   7.5421   9.0011   9.9202

     occupation numbers 
     1.0000   1.0000   1.0000   1.0000   1.0000   1.0000   1.0000   1.0000
     1.0000   1.0000   1.0000   1.0000   1.0000   1.0000   1.0000   1.0000
     1.0000  -0.0000  -0.0000  -0.0000  -0.0000

     the Fermi energy is     6.8083 ev

!    total energy              =    -534.96718795 Ry

     total all-electron energy =     -9636.857430 Ry
     estimated scf accuracy    <          3.9E-11 Ry
     smearing contrib. (-TS)   =      -0.00002414 Ry
     internal energy E=F+TS    =    -534.96716382 Ry

     The total energy is F=E-TS. E is the sum of the following terms:
     one-electron contribution =     -93.94503553 Ry
     hartree contribution      =      61.21247960 Ry
     xc contribution           =     -39.53522201 Ry
     ewald contribution        =    -135.48921389 Ry
     one-center paw contrib.   =    -327.21017198 Ry
      -> PAW hartree energy AE =      29.09388931 Ry
      -> PAW hartree energy PS =     -29.06382356 Ry
      -> PAW xc energy AE      =     -17.03834641 Ry
      -> PAW xc energy PS      =       7.41420747 Ry
      -> total E_H with PAW    =      61.24254534 Ry
      -> total E_XC with PAW   =     -49.15936095 Ry

     convergence has been achieved in  13 iterations

     Forces acting on atoms (cartesian axes, Ry/au):

     atom    1 type  1   force =     0.00000000    0.00000000    0.00000000
     atom    2 type  2   force =     0.00000000    0.00000000    0.03620977
     atom    3 type  2   force =     0.00000000    0.00000000   -0.03620977
     atom    4 type  3   force =     0.00000000    0.00000000    0.00000000
     The non-local contrib.  to forces
     atom    1 type  1   force =     0.00000000    0.00000000    0.00000000
     atom    2 type  2   force =     0.00000000    0.00000000    0.06450932
     atom    3 type  2   force =    -0.00000000   -0.00000000   -0.06450932
     atom    4 type  3   force =     0.00000000    0.00000000    0.00000000
     The ionic contribution  to forces
     atom    1 type  1   force =    -0.00000000   -0.00000000    0.00000000
     atom    2 type  2   force =     0.00000001    0.00000000  -10.07462875
     atom    3 type  2   force =    -0.00000001   -0.00000000   10.07462875
     atom    4 type  3   force =    -0.00000000   -0.00000000    0.00000000
     The local contribution  to forces
     atom    1 type  1   force =     0.00000000    0.00000000    0.00000000
     atom    2 type  2   force =     0.00000002   -0.00000003   10.04479974
     atom    3 type  2   force =    -0.00000002    0.00000003  -10.04479974
     atom    4 type  3   force =     0.00000000    0.00000000    0.00000000
     The core correction contribution to forces
     atom    1 type  1   force =     0.00000000    0.00000000    0.00000000
     atom    2 type  2   force =    -0.00000000    0.00000000    0.00151702
     atom    3 type  2   force =     0.00000000   -0.00000000   -0.00151702
     atom    4 type  3   force =     0.00000000    0.00000000    0.00000000
     The Hubbard contrib.    to forces
     atom    1 type  1   force =     0.00000000    0.00000000    0.00000000
     atom    2 type  2   force =     0.00000000    0.00000000    0.00000000
     atom    3 type  2   force =     0.00000000    0.00000000    0.00000000
     atom    4 type  3   force =     0.00000000    0.00000000    0.00000000
     The SCF correction term to forces
     atom    1 type  1   force =    -0.00000000    0.00000000    0.00000000
     atom    2 type  2   force =    -0.00000000    0.00000000    0.00001244
     atom    3 type  2   force =     0.00000000   -0.00000000   -0.00001244
     atom    4 type  3   force =    -0.00000000    0.00000000    0.00000000

     Total force =     0.051208     Total SCF correction =     0.000018


     Computing stress (Cartesian axis) and pressure

          total   stress  (Ry/bohr**3)                   (kbar)     P=      -39.33
  -0.00027763   0.00000000   0.00000000          -40.84        0.00        0.00
  -0.00000000  -0.00025817  -0.00000000           -0.00      -37.98       -0.00
   0.00000000  -0.00000000  -0.00026629            0.00       -0.00      -39.17

     kinetic stress (kbar)  14757.45      0.00      0.00
                                0.00  14824.74      0.00
                                0.00      0.00  14767.37

     local   stress (kbar) -18899.44      0.00      0.00
                                0.00 -24214.04      0.00
                                0.00      0.00   4110.59

     nonloc. stress (kbar)   8010.40     -0.00      0.00
                               -0.00   7931.12     -0.00
                                0.00     -0.00   8005.86

     hartree stress (kbar)   8376.21      0.00     -0.00
                                0.00  10112.27      0.00
                               -0.00      0.00  -2054.55

     exc-cor stress (kbar)  -1130.93     -0.00     -0.00
                               -0.00  -1121.43     -0.00
                               -0.00     -0.00  -1130.52

     corecor stress (kbar)  -2029.39      0.00      0.00
                                0.00  -2029.18      0.00
                                0.00      0.00  -2029.23

     ewald   stress (kbar)  -9125.13      0.00     -0.00
                                0.00  -5541.44     -0.00
                               -0.00     -0.00 -21708.70

     hubbard stress (kbar)      0.00      0.00      0.00
                                0.00      0.00      0.00
                                0.00      0.00      0.00

     DFT-D   stress (kbar)      0.00      0.00      0.00
                                0.00      0.00      0.00
                                0.00      0.00      0.00

     XDM     stress (kbar)      0.00      0.00      0.00
                                0.00      0.00      0.00
                                0.00      0.00      0.00

     dft-nl  stress (kbar)      0.00      0.00      0.00
                                0.00      0.00      0.00
                                0.00      0.00      0.00

     TS-vdW  stress (kbar)      0.00      0.00      0.00
                                0.00      0.00      0.00
                                0.00      0.00      0.00



     Writing output data file /zfs_data/gutierre/Scratch/Cl2NbO/smearing/12x12x12/0.008/tmp/Cl2NbO.save/
 
     init_run     :      6.35s CPU      6.56s WALL (       1 calls)
     electrons    :    175.73s CPU    180.03s WALL (       1 calls)
     forces       :      1.01s CPU      1.02s WALL (       1 calls)
     stress       :      2.58s CPU      2.61s WALL (       1 calls)

     Called by init_run:
     wfcinit      :      5.16s CPU      5.32s WALL (       1 calls)
     wfcinit:atom :      0.04s CPU      0.04s WALL (     280 calls)
     wfcinit:wfcr :      4.96s CPU      5.12s WALL (     280 calls)
     potinit      :      0.36s CPU      0.38s WALL (       1 calls)
     hinit0       :      0.47s CPU      0.48s WALL (       1 calls)

     Called by electrons:
     c_bands      :    141.95s CPU    145.48s WALL (      13 calls)
     sum_band     :     30.55s CPU     31.23s WALL (      13 calls)
     v_of_rho     :      1.26s CPU      1.30s WALL (      14 calls)
     v_h          :      0.10s CPU      0.11s WALL (      14 calls)
     v_xc         :      1.31s CPU      1.36s WALL (      16 calls)
     newd         :      1.08s CPU      1.09s WALL (      14 calls)
     PAW_pot      :      0.73s CPU      0.74s WALL (      14 calls)
     mix_rho      :      0.18s CPU      0.19s WALL (      13 calls)

     Called by c_bands:
     init_us_2    :      1.98s CPU      2.08s WALL (    8120 calls)
     cegterg      :    137.74s CPU    141.01s WALL (    3640 calls)

     Called by sum_band:
     sum_band:wei :      0.11s CPU      0.13s WALL (      13 calls)
     sum_band:loo :     29.20s CPU     29.84s WALL (      13 calls)
     sum_band:buf :      0.28s CPU      0.29s WALL (    3640 calls)
     sum_band:ini :      0.93s CPU      0.96s WALL (    3640 calls)
     sum_band:cal :      1.02s CPU      1.04s WALL (    3640 calls)
     sum_band:bec :      0.10s CPU      0.10s WALL (    3640 calls)
     addusdens    :      1.08s CPU      1.11s WALL (      13 calls)
     addusd:skk   :      0.01s CPU      0.01s WALL (      39 calls)
     addusd:dgemm :      0.32s CPU      0.35s WALL (      39 calls)
     addusd:qvan2 :      0.70s CPU      0.70s WALL (      39 calls)

     Called by *egterg:
     cdiaghg      :      7.64s CPU      7.90s WALL (   13153 calls)
     cegterg:over :      2.61s CPU      2.68s WALL (    9513 calls)
     cegterg:upda :      0.81s CPU      0.83s WALL (    9513 calls)
     cegterg:last :      1.31s CPU      1.33s WALL (    7058 calls)
     h_psi        :    126.61s CPU    129.62s WALL (   13433 calls)
     s_psi        :      0.92s CPU      0.93s WALL (   13433 calls)
     g_psi        :      0.17s CPU      0.17s WALL (    9513 calls)

     Called by h_psi:
     h_psi:calbec :      3.17s CPU      3.26s WALL (   13433 calls)
     vloc_psi     :    121.59s CPU    124.48s WALL (   13433 calls)
     add_vuspsi   :      1.37s CPU      1.41s WALL (   13433 calls)

     General routines
     calbec       :      4.31s CPU      4.42s WALL (   18473 calls)
     fft          :      1.06s CPU      1.08s WALL (     205 calls)
     ffts         :      0.02s CPU      0.02s WALL (      27 calls)
     fftw         :    132.94s CPU    136.16s WALL (  459448 calls)
     interpolate  :      0.10s CPU      0.10s WALL (      14 calls)
 
     Parallel routines
     fft_scatt_xy :     17.67s CPU     17.97s WALL (  459680 calls)
     fft_scatt_yz :     58.75s CPU     60.21s WALL (  459680 calls)

     PAW routines
     PAW_pot      :      0.73s CPU      0.74s WALL (      14 calls)
     PAW_symme    :      0.01s CPU      0.01s WALL (      27 calls)
 
     PWSCF        :   3m 7.48s CPU   3m14.69s WALL

 
   This run was terminated on:  17:40:48  18May2022            

=------------------------------------------------------------------------------=
   JOB DONE.
=------------------------------------------------------------------------------=
