MPI startup(): Warning: I_MPI_PMI_LIBRARY will be ignored since the hydra process manager was found
MPI startup(): Warning: I_MPI_PMI_LIBRARY will be ignored since the hydra process manager was found
MPI startup(): Warning: I_MPI_PMI_LIBRARY will be ignored since the hydra process manager was found
MPI startup(): Warning: I_MPI_PMI_LIBRARY will be ignored since the hydra process manager was found
MPI startup(): Warning: I_MPI_PMI_LIBRARY will be ignored since the hydra process manager was found
MPI startup(): Warning: I_MPI_PMI_LIBRARY will be ignored since the hydra process manager was found
MPI startup(): Warning: I_MPI_PMI_LIBRARY will be ignored since the hydra process manager was found
MPI startup(): Warning: I_MPI_PMI_LIBRARY will be ignored since the hydra process manager was found
MPI startup(): Warning: I_MPI_PMI_LIBRARY will be ignored since the hydra process manager was found
MPI startup(): Warning: I_MPI_PMI_LIBRARY will be ignored since the hydra process manager was found
MPI startup(): Warning: I_MPI_PMI_LIBRARY will be ignored since the hydra process manager was found
MPI startup(): Warning: I_MPI_PMI_LIBRARY will be ignored since the hydra process manager was found
MPI startup(): Warning: I_MPI_PMI_LIBRARY will be ignored since the hydra process manager was found
MPI startup(): Warning: I_MPI_PMI_LIBRARY will be ignored since the hydra process manager was found
MPI startup(): Warning: I_MPI_PMI_LIBRARY will be ignored since the hydra process manager was found
MPI startup(): Warning: I_MPI_PMI_LIBRARY will be ignored since the hydra process manager was found
MPI startup(): Warning: I_MPI_PMI_LIBRARY will be ignored since the hydra process manager was found
MPI startup(): Warning: I_MPI_PMI_LIBRARY will be ignored since the hydra process manager was found
MPI startup(): Warning: I_MPI_PMI_LIBRARY will be ignored since the hydra process manager was found
MPI startup(): Warning: I_MPI_PMI_LIBRARY will be ignored since the hydra process manager was found
MPI startup(): Warning: I_MPI_PMI_LIBRARY will be ignored since the hydra process manager was found
MPI startup(): Warning: I_MPI_PMI_LIBRARY will be ignored since the hydra process manager was found
MPI startup(): Warning: I_MPI_PMI_LIBRARY will be ignored since the hydra process manager was found
MPI startup(): Warning: I_MPI_PMI_LIBRARY will be ignored since the hydra process manager was found

     Program PWSCF v.6.7MaX starts on  1Aug2021 at 12:38:45 

     This program is part of the open-source Quantum ESPRESSO suite
     for quantum simulation of materials; please cite
         "P. Giannozzi et al., J. Phys.:Condens. Matter 21 395502 (2009);
         "P. Giannozzi et al., J. Phys.:Condens. Matter 29 465901 (2017);
          URL http://www.quantum-espresso.org", 
     in publications or presentations arising from this work. More details at
     http://www.quantum-espresso.org/quote

     Parallel version (MPI), running on    24 processors

     MPI processes distributed on     1 nodes
     R & G space division:  proc/nbgrp/npool/nimage =      24
     Waiting for input...
     Reading input from standard input

     Current dimensions of program PWSCF are:
     Max number of different atomic species (ntypx) = 10
     Max number of k-points (npk) =  40000
     Max angular momentum in pseudopotentials (lmaxx) =  3
     file Cr.rel-pbe-spn-kjpaw_psl.1.0.0.UPF: wavefunction(s)  3S 3P 3P 3D 3D renormalized
     file Si.rel-pbe-n-kjpaw_psl.1.0.0.UPF: wavefunction(s)  3S 3P 3P renormalized

     Subspace diagonalization in iterative solution of the eigenvalue problem:
     a serial algorithm will be used

     Message from routine setup:
     using ibrav=0 with symmetry is DISCOURAGED, use correct ibrav instead
 
     Parallelization info
     --------------------
     sticks:   dense  smooth     PW     G-vecs:    dense   smooth      PW
     Min         228      91     25                12702     3210     487
     Max         229      93     26                12704     3214     492
     Sum        5473    2201    621               304867    77053   11753
 


     bravais-lattice index     =            0
     lattice parameter (alat)  =       8.7475  a.u.
     unit-cell volume          =     669.3575 (a.u.)^3
     number of atoms/cell      =            8
     number of atomic types    =            2
     number of electrons       =        72.00
     number of Kohn-Sham states=           86
     kinetic-energy cutoff     =      90.0000  Ry
     charge density cutoff     =     900.0000  Ry
     scf convergence threshold =      1.0E-06
     mixing beta               =       0.7000
     number of iterations used =            8  plain     mixing
     Exchange-correlation= SLA  PW   PBX  PBC
                           (   1   4   3   4   0   0   0)
     Non magnetic calculation with spin-orbit


     celldm(1)=   8.747542  celldm(2)=   0.000000  celldm(3)=   0.000000
     celldm(4)=   0.000000  celldm(5)=   0.000000  celldm(6)=   0.000000

     crystal axes: (cart. coord. in units of alat)
               a(1) = (   1.000000   0.000000   0.000000 )  
               a(2) = (   0.000000   1.000000   0.000000 )  
               a(3) = (   0.000000   0.000000   1.000000 )  

     reciprocal axes: (cart. coord. in units 2 pi/alat)
               b(1) = (  1.000000  0.000000  0.000000 )  
               b(2) = (  0.000000  1.000000  0.000000 )  
               b(3) = (  0.000000  0.000000  1.000000 )  


     PseudoPot. # 1 for Cr read from file:
     ../../../../pseudo/Cr.rel-pbe-spn-kjpaw_psl.1.0.0.UPF
     MD5 check sum: 1e24e2b5251376a8b945118fca0c7981
     Pseudo is Projector augmented-wave + core cor, Zval = 14.0
     Generated using &quot;atomic&quot; code by A. Dal Corso  v.6.3
     Shape of augmentation charge: PSQ
     Using radial grid of 1183 points, 10 beta functions with: 
                l(1) =   0
                l(2) =   0
                l(3) =   1
                l(4) =   1
                l(5) =   1
                l(6) =   1
                l(7) =   2
                l(8) =   2
                l(9) =   2
               l(10) =   2
     Q(r) pseudized with 0 coefficients 


     PseudoPot. # 2 for Si read from file:
     ../../../../pseudo/Si.rel-pbe-n-kjpaw_psl.1.0.0.UPF
     MD5 check sum: d74f6caf6830ea4c2076867160cab1b0
     Pseudo is Projector augmented-wave + core cor, Zval =  4.0
     Generated using &quot;atomic&quot; code by A. Dal Corso  v.6.3
     Shape of augmentation charge: PSQ
     Using radial grid of 1141 points, 10 beta functions with: 
                l(1) =   0
                l(2) =   0
                l(3) =   1
                l(4) =   1
                l(5) =   1
                l(6) =   1
                l(7) =   2
                l(8) =   2
                l(9) =   2
               l(10) =   2
     Q(r) pseudized with 0 coefficients 


     atomic species   valence    mass     pseudopotential
        Cr            14.00    51.99600     Cr( 1.00)
        Si             4.00    28.08500     Si( 1.00)

     12 Sym. Ops. (no inversion) found ( 9 have fractional translation)


                                    s                        frac. trans.

      isym =  1     identity                                     

 cryst.   s( 1) = (     1          0          0      )
                  (     0          1          0      )
                  (     0          0          1      )

 cart.    s( 1) = (  1.0000000  0.0000000  0.0000000 )
                  (  0.0000000  1.0000000  0.0000000 )
                  (  0.0000000  0.0000000  1.0000000 )


      isym =  2     180 deg rotation - cart. axis [0,0,1]        

 cryst.   s( 2) = (    -1          0          0      )    f =(  0.5000000 )
                  (     0         -1          0      )       (  0.0000000 )
                  (     0          0          1      )       ( -0.5000000 )

 cart.    s( 2) = ( -1.0000000  0.0000000  0.0000000 )    f =(  0.5000000 )
                  (  0.0000000 -1.0000000  0.0000000 )       (  0.0000000 )
                  (  0.0000000  0.0000000  1.0000000 )       ( -0.5000000 )


      isym =  3     180 deg rotation - cart. axis [0,1,0]        

 cryst.   s( 3) = (    -1          0          0      )    f =(  0.0000000 )
                  (     0          1          0      )       ( -0.5000000 )
                  (     0          0         -1      )       (  0.5000000 )

 cart.    s( 3) = ( -1.0000000  0.0000000  0.0000000 )    f =(  0.0000000 )
                  (  0.0000000  1.0000000  0.0000000 )       ( -0.5000000 )
                  (  0.0000000  0.0000000 -1.0000000 )       (  0.5000000 )


      isym =  4     180 deg rotation - cart. axis [1,0,0]        

 cryst.   s( 4) = (     1          0          0      )    f =(  0.5000000 )
                  (     0         -1          0      )       (  0.5000000 )
                  (     0          0         -1      )       (  0.0000000 )

 cart.    s( 4) = (  1.0000000  0.0000000  0.0000000 )    f =(  0.5000000 )
                  (  0.0000000 -1.0000000  0.0000000 )       (  0.5000000 )
                  (  0.0000000  0.0000000 -1.0000000 )       (  0.0000000 )


      isym =  5     120 deg rotation - cart. axis [-1,-1,-1]     

 cryst.   s( 5) = (     0          0          1      )
                  (     1          0          0      )
                  (     0          1          0      )

 cart.    s( 5) = (  0.0000000  1.0000000  0.0000000 )
                  (  0.0000000  0.0000000  1.0000000 )
                  (  1.0000000  0.0000000  0.0000000 )


      isym =  6     120 deg rotation - cart. axis [-1,1,1]       

 cryst.   s( 6) = (     0          0         -1      )    f =(  0.0000000 )
                  (    -1          0          0      )       ( -0.5000000 )
                  (     0          1          0      )       (  0.5000000 )

 cart.    s( 6) = (  0.0000000 -1.0000000  0.0000000 )    f =(  0.0000000 )
                  (  0.0000000  0.0000000  1.0000000 )       ( -0.5000000 )
                  ( -1.0000000  0.0000000  0.0000000 )       (  0.5000000 )


      isym =  7     120 deg rotation - cart. axis [1,1,-1]       

 cryst.   s( 7) = (     0          0         -1      )    f =(  0.5000000 )
                  (     1          0          0      )       (  0.5000000 )
                  (     0         -1          0      )       (  0.0000000 )

 cart.    s( 7) = (  0.0000000  1.0000000  0.0000000 )    f =(  0.5000000 )
                  (  0.0000000  0.0000000 -1.0000000 )       (  0.5000000 )
                  ( -1.0000000  0.0000000  0.0000000 )       (  0.0000000 )


      isym =  8     120 deg rotation - cart. axis [1,-1,1]       

 cryst.   s( 8) = (     0          0          1      )    f =(  0.5000000 )
                  (    -1          0          0      )       (  0.0000000 )
                  (     0         -1          0      )       ( -0.5000000 )

 cart.    s( 8) = (  0.0000000 -1.0000000  0.0000000 )    f =(  0.5000000 )
                  (  0.0000000  0.0000000 -1.0000000 )       (  0.0000000 )
                  (  1.0000000  0.0000000  0.0000000 )       ( -0.5000000 )


      isym =  9     120 deg rotation - cart. axis [1,1,1]        

 cryst.   s( 9) = (     0          1          0      )
                  (     0          0          1      )
                  (     1          0          0      )

 cart.    s( 9) = (  0.0000000  0.0000000  1.0000000 )
                  (  1.0000000  0.0000000  0.0000000 )
                  (  0.0000000  1.0000000  0.0000000 )


      isym = 10     120 deg rotation - cart. axis [-1,1,-1]      

 cryst.   s(10) = (     0         -1          0      )    f =(  0.5000000 )
                  (     0          0         -1      )       (  0.5000000 )
                  (     1          0          0      )       (  0.0000000 )

 cart.    s(10) = (  0.0000000  0.0000000  1.0000000 )    f =(  0.5000000 )
                  ( -1.0000000  0.0000000  0.0000000 )       (  0.5000000 )
                  (  0.0000000 -1.0000000  0.0000000 )       (  0.0000000 )


      isym = 11     120 deg rotation - cart. axis [1,-1,-1]      

 cryst.   s(11) = (     0         -1          0      )    f =(  0.5000000 )
                  (     0          0          1      )       (  0.0000000 )
                  (    -1          0          0      )       ( -0.5000000 )

 cart.    s(11) = (  0.0000000  0.0000000 -1.0000000 )    f =(  0.5000000 )
                  ( -1.0000000  0.0000000  0.0000000 )       (  0.0000000 )
                  (  0.0000000  1.0000000  0.0000000 )       ( -0.5000000 )


      isym = 12     120 deg rotation - cart. axis [-1,-1,1]      

 cryst.   s(12) = (     0          1          0      )    f =(  0.0000000 )
                  (     0          0         -1      )       ( -0.5000000 )
                  (    -1          0          0      )       (  0.5000000 )

 cart.    s(12) = (  0.0000000  0.0000000 -1.0000000 )    f =(  0.0000000 )
                  (  1.0000000  0.0000000  0.0000000 )       ( -0.5000000 )
                  (  0.0000000 -1.0000000  0.0000000 )       (  0.5000000 )


   Cartesian axes

     site n.     atom                  positions (alat units)
         1           Cr  tau(   1) = (   0.8640000   0.3640000   0.1360000  )
         2           Cr  tau(   2) = (   0.3640000   0.1360000   0.8640000  )
         3           Cr  tau(   3) = (   0.1360000   0.8640000   0.3640000  )
         4           Cr  tau(   4) = (   0.6360000   0.6360000   0.6360000  )
         5           Si  tau(   5) = (   0.1540000   0.6540000   0.8460000  )
         6           Si  tau(   6) = (   0.6540000   0.8460000   0.1540000  )
         7           Si  tau(   7) = (   0.8460000   0.1540000   0.6540000  )
         8           Si  tau(   8) = (   0.3460000   0.3460000   0.3460000  )

   Crystallographic axes

     site n.     atom                  positions (cryst. coord.)
         1           Cr  tau(   1) = (  0.8640000  0.3640000  0.1360000  )
         2           Cr  tau(   2) = (  0.3640000  0.1360000  0.8640000  )
         3           Cr  tau(   3) = (  0.1360000  0.8640000  0.3640000  )
         4           Cr  tau(   4) = (  0.6360000  0.6360000  0.6360000  )
         5           Si  tau(   5) = (  0.1540000  0.6540000  0.8460000  )
         6           Si  tau(   6) = (  0.6540000  0.8460000  0.1540000  )
         7           Si  tau(   7) = (  0.8460000  0.1540000  0.6540000  )
         8           Si  tau(   8) = (  0.3460000  0.3460000  0.3460000  )

     number of k points=   119  Methfessel-Paxton smearing, width (Ry)=  0.0080
                       cart. coord. in units 2pi/alat
        k(    1) = (   0.0000000   0.0000000   0.0000000), wk =   0.0005787
        k(    2) = (   0.0000000   0.0000000   0.0833333), wk =   0.0034722
        k(    3) = (   0.0000000   0.0000000   0.1666667), wk =   0.0034722
        k(    4) = (   0.0000000   0.0000000   0.2500000), wk =   0.0034722
        k(    5) = (   0.0000000   0.0000000   0.3333333), wk =   0.0034722
        k(    6) = (   0.0000000   0.0000000   0.4166667), wk =   0.0034722
        k(    7) = (   0.0000000   0.0000000  -0.5000000), wk =   0.0017361
        k(    8) = (   0.0000000   0.0833333   0.0833333), wk =   0.0069444
        k(    9) = (   0.0000000   0.0833333   0.1666667), wk =   0.0069444
        k(   10) = (   0.0000000   0.0833333   0.2500000), wk =   0.0069444
        k(   11) = (   0.0000000   0.0833333   0.3333333), wk =   0.0069444
        k(   12) = (   0.0000000   0.0833333   0.4166667), wk =   0.0069444
        k(   13) = (   0.0000000   0.0833333  -0.5000000), wk =   0.0034722
        k(   14) = (   0.0000000   0.1666667   0.1666667), wk =   0.0069444
        k(   15) = (   0.0000000   0.1666667   0.2500000), wk =   0.0069444
        k(   16) = (   0.0000000   0.1666667   0.3333333), wk =   0.0069444
        k(   17) = (   0.0000000   0.1666667   0.4166667), wk =   0.0069444
        k(   18) = (   0.0000000   0.1666667  -0.5000000), wk =   0.0034722
        k(   19) = (   0.0000000   0.2500000   0.2500000), wk =   0.0069444
        k(   20) = (   0.0000000   0.2500000   0.3333333), wk =   0.0069444
        k(   21) = (   0.0000000   0.2500000   0.4166667), wk =   0.0069444
        k(   22) = (   0.0000000   0.2500000  -0.5000000), wk =   0.0034722
        k(   23) = (   0.0000000   0.3333333   0.3333333), wk =   0.0069444
        k(   24) = (   0.0000000   0.3333333   0.4166667), wk =   0.0069444
        k(   25) = (   0.0000000   0.3333333  -0.5000000), wk =   0.0034722
        k(   26) = (   0.0000000   0.4166667   0.4166667), wk =   0.0069444
        k(   27) = (   0.0000000   0.4166667  -0.5000000), wk =   0.0034722
        k(   28) = (   0.0000000  -0.5000000  -0.5000000), wk =   0.0017361
        k(   29) = (   0.0833333   0.0833333   0.0833333), wk =   0.0046296
        k(   30) = (   0.0833333   0.0833333   0.1666667), wk =   0.0138889
        k(   31) = (   0.0833333   0.0833333   0.2500000), wk =   0.0138889
        k(   32) = (   0.0833333   0.0833333   0.3333333), wk =   0.0138889
        k(   33) = (   0.0833333   0.0833333   0.4166667), wk =   0.0138889
        k(   34) = (   0.0833333   0.0833333  -0.5000000), wk =   0.0069444
        k(   35) = (   0.0833333   0.1666667   0.1666667), wk =   0.0138889
        k(   36) = (   0.0833333   0.1666667   0.2500000), wk =   0.0138889
        k(   37) = (   0.0833333   0.1666667   0.3333333), wk =   0.0138889
        k(   38) = (   0.0833333   0.1666667   0.4166667), wk =   0.0138889
        k(   39) = (   0.0833333   0.1666667  -0.5000000), wk =   0.0069444
        k(   40) = (   0.0833333   0.2500000   0.2500000), wk =   0.0138889
        k(   41) = (   0.0833333   0.2500000   0.3333333), wk =   0.0138889
        k(   42) = (   0.0833333   0.2500000   0.4166667), wk =   0.0138889
        k(   43) = (   0.0833333   0.2500000  -0.5000000), wk =   0.0069444
        k(   44) = (   0.0833333   0.3333333   0.3333333), wk =   0.0138889
        k(   45) = (   0.0833333   0.3333333   0.4166667), wk =   0.0138889
        k(   46) = (   0.0833333   0.3333333  -0.5000000), wk =   0.0069444
        k(   47) = (   0.0833333   0.4166667   0.4166667), wk =   0.0138889
        k(   48) = (   0.0833333   0.4166667  -0.5000000), wk =   0.0069444
        k(   49) = (   0.0833333  -0.5000000  -0.5000000), wk =   0.0034722
        k(   50) = (   0.1666667   0.1666667   0.1666667), wk =   0.0046296
        k(   51) = (   0.1666667   0.1666667   0.2500000), wk =   0.0138889
        k(   52) = (   0.1666667   0.1666667   0.3333333), wk =   0.0138889
        k(   53) = (   0.1666667   0.1666667   0.4166667), wk =   0.0138889
        k(   54) = (   0.1666667   0.1666667  -0.5000000), wk =   0.0069444
        k(   55) = (   0.1666667   0.2500000   0.2500000), wk =   0.0138889
        k(   56) = (   0.1666667   0.2500000   0.3333333), wk =   0.0138889
        k(   57) = (   0.1666667   0.2500000   0.4166667), wk =   0.0138889
        k(   58) = (   0.1666667   0.2500000  -0.5000000), wk =   0.0069444
        k(   59) = (   0.1666667   0.3333333   0.3333333), wk =   0.0138889
        k(   60) = (   0.1666667   0.3333333   0.4166667), wk =   0.0138889
        k(   61) = (   0.1666667   0.3333333  -0.5000000), wk =   0.0069444
        k(   62) = (   0.1666667   0.4166667   0.4166667), wk =   0.0138889
        k(   63) = (   0.1666667   0.4166667  -0.5000000), wk =   0.0069444
        k(   64) = (   0.1666667  -0.5000000  -0.5000000), wk =   0.0034722
        k(   65) = (   0.2500000   0.2500000   0.2500000), wk =   0.0046296
        k(   66) = (   0.2500000   0.2500000   0.3333333), wk =   0.0138889
        k(   67) = (   0.2500000   0.2500000   0.4166667), wk =   0.0138889
        k(   68) = (   0.2500000   0.2500000  -0.5000000), wk =   0.0069444
        k(   69) = (   0.2500000   0.3333333   0.3333333), wk =   0.0138889
        k(   70) = (   0.2500000   0.3333333   0.4166667), wk =   0.0138889
        k(   71) = (   0.2500000   0.3333333  -0.5000000), wk =   0.0069444
        k(   72) = (   0.2500000   0.4166667   0.4166667), wk =   0.0138889
        k(   73) = (   0.2500000   0.4166667  -0.5000000), wk =   0.0069444
        k(   74) = (   0.2500000  -0.5000000  -0.5000000), wk =   0.0034722
        k(   75) = (   0.3333333   0.3333333   0.3333333), wk =   0.0046296
        k(   76) = (   0.3333333   0.3333333   0.4166667), wk =   0.0138889
        k(   77) = (   0.3333333   0.3333333  -0.5000000), wk =   0.0069444
        k(   78) = (   0.3333333   0.4166667   0.4166667), wk =   0.0138889
        k(   79) = (   0.3333333   0.4166667  -0.5000000), wk =   0.0069444
        k(   80) = (   0.3333333  -0.5000000  -0.5000000), wk =   0.0034722
        k(   81) = (   0.4166667   0.4166667   0.4166667), wk =   0.0046296
        k(   82) = (   0.4166667   0.4166667  -0.5000000), wk =   0.0069444
        k(   83) = (   0.4166667  -0.5000000  -0.5000000), wk =   0.0034722
        k(   84) = (  -0.5000000  -0.5000000  -0.5000000), wk =   0.0005787
        k(   85) = (   0.0000000   0.1666667   0.0833333), wk =   0.0069444
        k(   86) = (   0.0000000   0.2500000   0.0833333), wk =   0.0069444
        k(   87) = (   0.0000000   0.3333333   0.0833333), wk =   0.0069444
        k(   88) = (   0.0000000   0.4166667   0.0833333), wk =   0.0069444
        k(   89) = (   0.0000000  -0.5000000   0.0833333), wk =   0.0034722
        k(   90) = (   0.0000000   0.2500000   0.1666667), wk =   0.0069444
        k(   91) = (   0.0000000   0.3333333   0.1666667), wk =   0.0069444
        k(   92) = (   0.0000000   0.4166667   0.1666667), wk =   0.0069444
        k(   93) = (   0.0000000  -0.5000000   0.1666667), wk =   0.0034722
        k(   94) = (   0.0000000   0.3333333   0.2500000), wk =   0.0069444
        k(   95) = (   0.0000000   0.4166667   0.2500000), wk =   0.0069444
        k(   96) = (   0.0000000  -0.5000000   0.2500000), wk =   0.0034722
        k(   97) = (   0.0000000   0.4166667   0.3333333), wk =   0.0069444
        k(   98) = (   0.0000000  -0.5000000   0.3333333), wk =   0.0034722
        k(   99) = (   0.0000000  -0.5000000   0.4166667), wk =   0.0034722
        k(  100) = (  -0.0833333   0.2500000   0.1666667), wk =   0.0138889
        k(  101) = (  -0.0833333   0.3333333   0.1666667), wk =   0.0138889
        k(  102) = (  -0.0833333   0.4166667   0.1666667), wk =   0.0138889
        k(  103) = (  -0.0833333  -0.5000000   0.1666667), wk =   0.0069444
        k(  104) = (  -0.0833333   0.3333333   0.2500000), wk =   0.0138889
        k(  105) = (  -0.0833333   0.4166667   0.2500000), wk =   0.0138889
        k(  106) = (  -0.0833333  -0.5000000   0.2500000), wk =   0.0069444
        k(  107) = (  -0.0833333   0.4166667   0.3333333), wk =   0.0138889
        k(  108) = (  -0.0833333  -0.5000000   0.3333333), wk =   0.0069444
        k(  109) = (  -0.0833333  -0.5000000   0.4166667), wk =   0.0069444
        k(  110) = (  -0.1666667   0.3333333   0.2500000), wk =   0.0138889
        k(  111) = (  -0.1666667   0.4166667   0.2500000), wk =   0.0138889
        k(  112) = (  -0.1666667  -0.5000000   0.2500000), wk =   0.0069444
        k(  113) = (  -0.1666667   0.4166667   0.3333333), wk =   0.0138889
        k(  114) = (  -0.1666667  -0.5000000   0.3333333), wk =   0.0069444
        k(  115) = (  -0.1666667  -0.5000000   0.4166667), wk =   0.0069444
        k(  116) = (  -0.2500000   0.4166667   0.3333333), wk =   0.0138889
        k(  117) = (  -0.2500000  -0.5000000   0.3333333), wk =   0.0069444
        k(  118) = (  -0.2500000  -0.5000000   0.4166667), wk =   0.0069444
        k(  119) = (  -0.3333333  -0.5000000   0.4166667), wk =   0.0069444

                       cryst. coord.
        k(    1) = (   0.0000000   0.0000000   0.0000000), wk =   0.0005787
        k(    2) = (   0.0000000   0.0000000   0.0833333), wk =   0.0034722
        k(    3) = (   0.0000000   0.0000000   0.1666667), wk =   0.0034722
        k(    4) = (   0.0000000   0.0000000   0.2500000), wk =   0.0034722
        k(    5) = (   0.0000000   0.0000000   0.3333333), wk =   0.0034722
        k(    6) = (   0.0000000   0.0000000   0.4166667), wk =   0.0034722
        k(    7) = (   0.0000000   0.0000000  -0.5000000), wk =   0.0017361
        k(    8) = (   0.0000000   0.0833333   0.0833333), wk =   0.0069444
        k(    9) = (   0.0000000   0.0833333   0.1666667), wk =   0.0069444
        k(   10) = (   0.0000000   0.0833333   0.2500000), wk =   0.0069444
        k(   11) = (   0.0000000   0.0833333   0.3333333), wk =   0.0069444
        k(   12) = (   0.0000000   0.0833333   0.4166667), wk =   0.0069444
        k(   13) = (   0.0000000   0.0833333  -0.5000000), wk =   0.0034722
        k(   14) = (   0.0000000   0.1666667   0.1666667), wk =   0.0069444
        k(   15) = (   0.0000000   0.1666667   0.2500000), wk =   0.0069444
        k(   16) = (   0.0000000   0.1666667   0.3333333), wk =   0.0069444
        k(   17) = (   0.0000000   0.1666667   0.4166667), wk =   0.0069444
        k(   18) = (   0.0000000   0.1666667  -0.5000000), wk =   0.0034722
        k(   19) = (   0.0000000   0.2500000   0.2500000), wk =   0.0069444
        k(   20) = (   0.0000000   0.2500000   0.3333333), wk =   0.0069444
        k(   21) = (   0.0000000   0.2500000   0.4166667), wk =   0.0069444
        k(   22) = (   0.0000000   0.2500000  -0.5000000), wk =   0.0034722
        k(   23) = (   0.0000000   0.3333333   0.3333333), wk =   0.0069444
        k(   24) = (   0.0000000   0.3333333   0.4166667), wk =   0.0069444
        k(   25) = (   0.0000000   0.3333333  -0.5000000), wk =   0.0034722
        k(   26) = (   0.0000000   0.4166667   0.4166667), wk =   0.0069444
        k(   27) = (   0.0000000   0.4166667  -0.5000000), wk =   0.0034722
        k(   28) = (   0.0000000  -0.5000000  -0.5000000), wk =   0.0017361
        k(   29) = (   0.0833333   0.0833333   0.0833333), wk =   0.0046296
        k(   30) = (   0.0833333   0.0833333   0.1666667), wk =   0.0138889
        k(   31) = (   0.0833333   0.0833333   0.2500000), wk =   0.0138889
        k(   32) = (   0.0833333   0.0833333   0.3333333), wk =   0.0138889
        k(   33) = (   0.0833333   0.0833333   0.4166667), wk =   0.0138889
        k(   34) = (   0.0833333   0.0833333  -0.5000000), wk =   0.0069444
        k(   35) = (   0.0833333   0.1666667   0.1666667), wk =   0.0138889
        k(   36) = (   0.0833333   0.1666667   0.2500000), wk =   0.0138889
        k(   37) = (   0.0833333   0.1666667   0.3333333), wk =   0.0138889
        k(   38) = (   0.0833333   0.1666667   0.4166667), wk =   0.0138889
        k(   39) = (   0.0833333   0.1666667  -0.5000000), wk =   0.0069444
        k(   40) = (   0.0833333   0.2500000   0.2500000), wk =   0.0138889
        k(   41) = (   0.0833333   0.2500000   0.3333333), wk =   0.0138889
        k(   42) = (   0.0833333   0.2500000   0.4166667), wk =   0.0138889
        k(   43) = (   0.0833333   0.2500000  -0.5000000), wk =   0.0069444
        k(   44) = (   0.0833333   0.3333333   0.3333333), wk =   0.0138889
        k(   45) = (   0.0833333   0.3333333   0.4166667), wk =   0.0138889
        k(   46) = (   0.0833333   0.3333333  -0.5000000), wk =   0.0069444
        k(   47) = (   0.0833333   0.4166667   0.4166667), wk =   0.0138889
        k(   48) = (   0.0833333   0.4166667  -0.5000000), wk =   0.0069444
        k(   49) = (   0.0833333  -0.5000000  -0.5000000), wk =   0.0034722
        k(   50) = (   0.1666667   0.1666667   0.1666667), wk =   0.0046296
        k(   51) = (   0.1666667   0.1666667   0.2500000), wk =   0.0138889
        k(   52) = (   0.1666667   0.1666667   0.3333333), wk =   0.0138889
        k(   53) = (   0.1666667   0.1666667   0.4166667), wk =   0.0138889
        k(   54) = (   0.1666667   0.1666667  -0.5000000), wk =   0.0069444
        k(   55) = (   0.1666667   0.2500000   0.2500000), wk =   0.0138889
        k(   56) = (   0.1666667   0.2500000   0.3333333), wk =   0.0138889
        k(   57) = (   0.1666667   0.2500000   0.4166667), wk =   0.0138889
        k(   58) = (   0.1666667   0.2500000  -0.5000000), wk =   0.0069444
        k(   59) = (   0.1666667   0.3333333   0.3333333), wk =   0.0138889
        k(   60) = (   0.1666667   0.3333333   0.4166667), wk =   0.0138889
        k(   61) = (   0.1666667   0.3333333  -0.5000000), wk =   0.0069444
        k(   62) = (   0.1666667   0.4166667   0.4166667), wk =   0.0138889
        k(   63) = (   0.1666667   0.4166667  -0.5000000), wk =   0.0069444
        k(   64) = (   0.1666667  -0.5000000  -0.5000000), wk =   0.0034722
        k(   65) = (   0.2500000   0.2500000   0.2500000), wk =   0.0046296
        k(   66) = (   0.2500000   0.2500000   0.3333333), wk =   0.0138889
        k(   67) = (   0.2500000   0.2500000   0.4166667), wk =   0.0138889
        k(   68) = (   0.2500000   0.2500000  -0.5000000), wk =   0.0069444
        k(   69) = (   0.2500000   0.3333333   0.3333333), wk =   0.0138889
        k(   70) = (   0.2500000   0.3333333   0.4166667), wk =   0.0138889
        k(   71) = (   0.2500000   0.3333333  -0.5000000), wk =   0.0069444
        k(   72) = (   0.2500000   0.4166667   0.4166667), wk =   0.0138889
        k(   73) = (   0.2500000   0.4166667  -0.5000000), wk =   0.0069444
        k(   74) = (   0.2500000  -0.5000000  -0.5000000), wk =   0.0034722
        k(   75) = (   0.3333333   0.3333333   0.3333333), wk =   0.0046296
        k(   76) = (   0.3333333   0.3333333   0.4166667), wk =   0.0138889
        k(   77) = (   0.3333333   0.3333333  -0.5000000), wk =   0.0069444
        k(   78) = (   0.3333333   0.4166667   0.4166667), wk =   0.0138889
        k(   79) = (   0.3333333   0.4166667  -0.5000000), wk =   0.0069444
        k(   80) = (   0.3333333  -0.5000000  -0.5000000), wk =   0.0034722
        k(   81) = (   0.4166667   0.4166667   0.4166667), wk =   0.0046296
        k(   82) = (   0.4166667   0.4166667  -0.5000000), wk =   0.0069444
        k(   83) = (   0.4166667  -0.5000000  -0.5000000), wk =   0.0034722
        k(   84) = (  -0.5000000  -0.5000000  -0.5000000), wk =   0.0005787
        k(   85) = (   0.0000000   0.1666667   0.0833333), wk =   0.0069444
        k(   86) = (   0.0000000   0.2500000   0.0833333), wk =   0.0069444
        k(   87) = (   0.0000000   0.3333333   0.0833333), wk =   0.0069444
        k(   88) = (   0.0000000   0.4166667   0.0833333), wk =   0.0069444
        k(   89) = (   0.0000000  -0.5000000   0.0833333), wk =   0.0034722
        k(   90) = (   0.0000000   0.2500000   0.1666667), wk =   0.0069444
        k(   91) = (   0.0000000   0.3333333   0.1666667), wk =   0.0069444
        k(   92) = (   0.0000000   0.4166667   0.1666667), wk =   0.0069444
        k(   93) = (   0.0000000  -0.5000000   0.1666667), wk =   0.0034722
        k(   94) = (   0.0000000   0.3333333   0.2500000), wk =   0.0069444
        k(   95) = (   0.0000000   0.4166667   0.2500000), wk =   0.0069444
        k(   96) = (   0.0000000  -0.5000000   0.2500000), wk =   0.0034722
        k(   97) = (   0.0000000   0.4166667   0.3333333), wk =   0.0069444
        k(   98) = (   0.0000000  -0.5000000   0.3333333), wk =   0.0034722
        k(   99) = (   0.0000000  -0.5000000   0.4166667), wk =   0.0034722
        k(  100) = (  -0.0833333   0.2500000   0.1666667), wk =   0.0138889
        k(  101) = (  -0.0833333   0.3333333   0.1666667), wk =   0.0138889
        k(  102) = (  -0.0833333   0.4166667   0.1666667), wk =   0.0138889
        k(  103) = (  -0.0833333  -0.5000000   0.1666667), wk =   0.0069444
        k(  104) = (  -0.0833333   0.3333333   0.2500000), wk =   0.0138889
        k(  105) = (  -0.0833333   0.4166667   0.2500000), wk =   0.0138889
        k(  106) = (  -0.0833333  -0.5000000   0.2500000), wk =   0.0069444
        k(  107) = (  -0.0833333   0.4166667   0.3333333), wk =   0.0138889
        k(  108) = (  -0.0833333  -0.5000000   0.3333333), wk =   0.0069444
        k(  109) = (  -0.0833333  -0.5000000   0.4166667), wk =   0.0069444
        k(  110) = (  -0.1666667   0.3333333   0.2500000), wk =   0.0138889
        k(  111) = (  -0.1666667   0.4166667   0.2500000), wk =   0.0138889
        k(  112) = (  -0.1666667  -0.5000000   0.2500000), wk =   0.0069444
        k(  113) = (  -0.1666667   0.4166667   0.3333333), wk =   0.0138889
        k(  114) = (  -0.1666667  -0.5000000   0.3333333), wk =   0.0069444
        k(  115) = (  -0.1666667  -0.5000000   0.4166667), wk =   0.0069444
        k(  116) = (  -0.2500000   0.4166667   0.3333333), wk =   0.0138889
        k(  117) = (  -0.2500000  -0.5000000   0.3333333), wk =   0.0069444
        k(  118) = (  -0.2500000  -0.5000000   0.4166667), wk =   0.0069444
        k(  119) = (  -0.3333333  -0.5000000   0.4166667), wk =   0.0069444

     Dense  grid:   304867 G-vectors     FFT dimensions: (  90,  90,  90)

     Smooth grid:    77053 G-vectors     FFT dimensions: (  54,  54,  54)

     Dynamical RAM for                 wfc:       1.06 MB

     Dynamical RAM for     wfc (w. buffer):     126.61 MB

     Dynamical RAM for           str. fact:       0.39 MB

     Dynamical RAM for           local pot:       0.00 MB

     Dynamical RAM for          nlocal pot:       1.67 MB

     Dynamical RAM for                qrad:      12.61 MB

     Dynamical RAM for          rho,v,vnew:       5.29 MB

     Dynamical RAM for               rhoin:       1.76 MB

     Dynamical RAM for            rho*nmix:      12.41 MB

     Dynamical RAM for           G-vectors:       0.75 MB

     Dynamical RAM for          h,s,v(r/c):       1.35 MB

     Dynamical RAM for          <psi|beta>:       0.71 MB

     Dynamical RAM for                 psi:       2.11 MB

     Dynamical RAM for                hpsi:       2.11 MB

     Dynamical RAM for                spsi:       2.11 MB

     Dynamical RAM for      wfcinit/wfcrot:       2.35 MB

     Dynamical RAM for           addusdens:     119.02 MB

     Dynamical RAM for          addusforce:     120.34 MB

     Dynamical RAM for         addusstress:     121.74 MB

     Estimated static dynamical RAM per process >     164.04 MB

     Estimated max dynamical RAM per process >     285.78 MB

     Estimated total dynamical RAM >       6.70 GB

     Initial potential from superposition of free atoms

     starting charge   71.99469, renormalised to   72.00000
     Starting wfcs are  112 randomized atomic wfcs
     Checking if some PAW data can be deallocated... 
       PAW data deallocated on   12 nodes for type:  1
       PAW data deallocated on   12 nodes for type:  2

     total cpu time spent up to now is       27.3 secs

     Self-consistent Calculation

     iteration #  1     ecut=    90.00 Ry     beta= 0.70
     Davidson diagonalization with overlap
     ethr =  1.00E-02,  avg # of iterations =  2.0

     Threshold (ethr) on eigenvalues was too large:
     Diagonalizing with lowered threshold

     Davidson diagonalization with overlap
     ethr =  2.09E-04,  avg # of iterations =  4.4

     total cpu time spent up to now is      179.4 secs

     total energy              =   -1180.30948666 Ry
     estimated scf accuracy    <       0.18958457 Ry

     iteration #  2     ecut=    90.00 Ry     beta= 0.70
     Davidson diagonalization with overlap
     ethr =  2.63E-04,  avg # of iterations =  3.2

     total cpu time spent up to now is      256.3 secs

     total energy              =   -1180.31325743 Ry
     estimated scf accuracy    <       0.08428321 Ry

     iteration #  3     ecut=    90.00 Ry     beta= 0.70
     Davidson diagonalization with overlap
     ethr =  1.17E-04,  avg # of iterations =  5.0

     total cpu time spent up to now is      347.9 secs

     total energy              =   -1180.32567527 Ry
     estimated scf accuracy    <       0.16547018 Ry

     iteration #  4     ecut=    90.00 Ry     beta= 0.70
     Davidson diagonalization with overlap
     ethr =  1.17E-04,  avg # of iterations =  4.0

     total cpu time spent up to now is      422.4 secs

     total energy              =   -1180.34966522 Ry
     estimated scf accuracy    <       0.00022714 Ry

     iteration #  5     ecut=    90.00 Ry     beta= 0.70
     Davidson diagonalization with overlap
     ethr =  3.15E-07,  avg # of iterations =  8.6

     total cpu time spent up to now is      546.3 secs

     total energy              =   -1180.35032360 Ry
     estimated scf accuracy    <       0.00043491 Ry

     iteration #  6     ecut=    90.00 Ry     beta= 0.70
     Davidson diagonalization with overlap
     ethr =  3.15E-07,  avg # of iterations =  4.1

     total cpu time spent up to now is      622.8 secs

     total energy              =   -1180.35039680 Ry
     estimated scf accuracy    <       0.00000392 Ry

     iteration #  7     ecut=    90.00 Ry     beta= 0.70
     Davidson diagonalization with overlap
     ethr =  5.45E-09,  avg # of iterations =  5.3

     total cpu time spent up to now is      706.8 secs

     total energy              =   -1180.35039729 Ry
     estimated scf accuracy    <       0.00000442 Ry

     iteration #  8     ecut=    90.00 Ry     beta= 0.70
     Davidson diagonalization with overlap
     ethr =  5.45E-09,  avg # of iterations =  3.5

     total cpu time spent up to now is      757.4 secs

     End of self-consistent calculation

          k = 0.0000 0.0000 0.0000 (  9771 PWs)   bands (ev):

   -56.5160 -56.5160 -56.4814 -56.4814 -56.4814 -56.4814 -56.4814 -56.4814
   -28.5819 -28.5819 -28.5740 -28.5740 -28.5740 -28.5740 -28.4847 -28.4847
   -27.6174 -27.6174 -27.6174 -27.6174 -27.5403 -27.5403 -27.5403 -27.5403
   -27.5320 -27.5320 -27.4507 -27.4507 -27.4507 -27.4507 -27.4491 -27.4491
     2.6988   2.6988   7.4571   7.4571   7.4571   7.4571   7.4662   7.4662
    10.5369  10.5369  10.5448  10.5448  10.5448  10.5448  11.9121  11.9121
    11.9121  11.9121  11.9232  11.9232  12.6033  12.6033  12.7721  12.7721
    12.7721  12.7721  13.1425  13.1425  13.1425  13.1425  13.1437  13.1437
    13.6707  13.6707  13.6707  13.6707  13.6745  13.6745  15.5512  15.5512
    15.5826  15.5826  15.5826  15.5826  15.7638  15.7638  15.7638  15.7638
    16.6659  16.6659  16.6962  16.6962  16.6962  16.6962

     occupation numbers 
     1.0000   1.0000   1.0000   1.0000   1.0000   1.0000   1.0000   1.0000
     1.0000   1.0000   1.0000   1.0000   1.0000   1.0000   1.0000   1.0000
     1.0000   1.0000   1.0000   1.0000   1.0000   1.0000   1.0000   1.0000
     1.0000   1.0000   1.0000   1.0000   1.0000   1.0000   1.0000   1.0000
     1.0000   1.0000   1.0000   1.0000   1.0000   1.0000   1.0000   1.0000
     1.0000   1.0000   1.0000   1.0000   1.0000   1.0000   1.0000   1.0000
     1.0000   1.0000   1.0000   1.0000   1.0000   1.0000   1.0000   1.0000
     1.0000   1.0000   1.0000   1.0000   1.0000   1.0000   1.0000   1.0000
     1.0000   1.0000   1.0000   1.0000   1.0000   1.0000  -0.0000  -0.0000
    -0.0000  -0.0000  -0.0000  -0.0000  -0.0000  -0.0000  -0.0000  -0.0000
    -0.0000  -0.0000  -0.0000  -0.0000  -0.0000  -0.0000

          k = 0.0000 0.0000 0.0833 (  9699 PWs)   bands (ev):

   -56.5156 -56.5156 -56.4839 -56.4839 -56.4812 -56.4812 -56.4794 -56.4794
   -28.5862 -28.5788 -28.5785 -28.5761 -28.5704 -28.5678 -28.4860 -28.4860
   -27.6268 -27.6222 -27.6114 -27.6069 -27.5459 -27.5442 -27.5378 -27.5363
   -27.5354 -27.5241 -27.4551 -27.4542 -27.4524 -27.4490 -27.4486 -27.4451
     2.7471   2.7471   7.0341   7.0382   7.4859   7.4868   7.8142   7.8222
    10.2170  10.2227  10.5746  10.5756  10.8834  10.8869  11.4927  11.4947
    11.7825  11.7854  12.3545  12.3685  12.5857  12.5883  12.7665  12.7742
    12.8426  12.8428  13.1196  13.1211  13.1606  13.1611  13.1848  13.1853
    13.5497  13.5551  13.6643  13.6650  13.8247  13.8256  15.4672  15.4898
    15.4954  15.4989  15.6791  15.6982  15.7441  15.7529  15.7563  15.7676
    16.5418  16.5608  16.6632  16.6648  16.8153  16.8353

     occupation numbers 
     1.0000   1.0000   1.0000   1.0000   1.0000   1.0000   1.0000   1.0000
     1.0000   1.0000   1.0000   1.0000   1.0000   1.0000   1.0000   1.0000
     1.0000   1.0000   1.0000   1.0000   1.0000   1.0000   1.0000   1.0000
     1.0000   1.0000   1.0000   1.0000   1.0000   1.0000   1.0000   1.0000
     1.0000   1.0000   1.0000   1.0000   1.0000   1.0000   1.0000   1.0000
     1.0000   1.0000   1.0000   1.0000   1.0000   1.0000   1.0000   1.0000
     1.0000   1.0000   1.0000   1.0000   1.0000   1.0000   1.0000   1.0000
     1.0000   1.0000   1.0000   1.0000   1.0000   1.0000   1.0000   1.0000
     1.0000   1.0000   1.0000   1.0000   1.0000   1.0000  -0.0000  -0.0000
    -0.0000  -0.0000  -0.0000  -0.0000  -0.0000  -0.0000  -0.0000  -0.0000
    -0.0000  -0.0000  -0.0000  -0.0000  -0.0000  -0.0000

          k = 0.0000 0.0000 0.1667 (  9663 PWs)   bands (ev):

   -56.5143 -56.5143 -56.4870 -56.4870 -56.4808 -56.4808 -56.4781 -56.4781
   -28.5896 -28.5822 -28.5784 -28.5778 -28.5636 -28.5603 -28.4897 -28.4897
   -27.6342 -27.6264 -27.6039 -27.5964 -27.5520 -27.5470 -27.5400 -27.5342
   -27.5319 -27.5150 -27.4611 -27.4587 -27.4554 -27.4489 -27.4477 -27.4419
     2.8909   2.8909   6.5403   6.5428   7.5632   7.5652   8.1198   8.1291
     9.9478   9.9520  10.6626  10.6651  11.0723  11.0752  11.2875  11.2882
    11.5008  11.5056  12.4495  12.4599  12.7397  12.7620  12.8029  12.8095
    13.0115  13.0149  13.1066  13.1091  13.1957  13.1977  13.2267  13.2271
    13.5309  13.5410  13.6316  13.6342  13.9627  13.9632  15.2935  15.3144
    15.4165  15.4240  15.6907  15.7002  15.7458  15.7642  15.7918  15.8174
    16.4074  16.4229  16.5957  16.6032  16.9912  17.0117

     occupation numbers 
     1.0000   1.0000   1.0000   1.0000   1.0000   1.0000   1.0000   1.0000
     1.0000   1.0000   1.0000   1.0000   1.0000   1.0000   1.0000   1.0000
     1.0000   1.0000   1.0000   1.0000   1.0000   1.0000   1.0000   1.0000
     1.0000   1.0000   1.0000   1.0000   1.0000   1.0000   1.0000   1.0000
     1.0000   1.0000   1.0000   1.0000   1.0000   1.0000   1.0000   1.0000
     1.0000   1.0000   1.0000   1.0000   1.0000   1.0000   1.0000   1.0000
     1.0000   1.0000   1.0000   1.0000   1.0000   1.0000   1.0000   1.0000
     1.0000   1.0000   1.0000   1.0000   1.0000   1.0000   1.0000   1.0000
     1.0000   1.0000   1.0000   1.0000   1.0000   1.0000  -0.0000  -0.0000
    -0.0000  -0.0000  -0.0000  -0.0000  -0.0000  -0.0000  -0.0000  -0.0000
    -0.0000  -0.0000  -0.0000  -0.0000  -0.0000  -0.0000

          k = 0.0000 0.0000 0.2500 (  9618 PWs)   bands (ev):

   -56.5122 -56.5122 -56.4905 -56.4905 -56.4801 -56.4801 -56.4773 -56.4773
   -28.5916 -28.5843 -28.5812 -28.5786 -28.5547 -28.5516 -28.4958 -28.4955
   -27.6393 -27.6304 -27.5948 -27.5875 -27.5583 -27.5476 -27.5373 -27.5353
   -27.5302 -27.5054 -27.4693 -27.4615 -27.4595 -27.4498 -27.4471 -27.4403
     3.1274   3.1274   5.9921   5.9936   7.6897   7.6927   8.3702   8.3803
     9.7439   9.7453  10.7561  10.7613  10.8664  10.8752  11.1955  11.2029
    11.5682  11.5689  12.2656  12.2804  12.8664  12.8730  12.9123  12.9341
    13.1195  13.1236  13.1285  13.1338  13.2505  13.2511  13.2816  13.2855
    13.5435  13.5469  13.6975  13.7051  14.0461  14.0466  15.0730  15.1016
    15.3795  15.3800  15.6151  15.6303  15.7375  15.7618  15.8511  15.8751
    16.2856  16.3003  16.4938  16.5053  17.1876  17.2081

     occupation numbers 
     1.0000   1.0000   1.0000   1.0000   1.0000   1.0000   1.0000   1.0000
     1.0000   1.0000   1.0000   1.0000   1.0000   1.0000   1.0000   1.0000
     1.0000   1.0000   1.0000   1.0000   1.0000   1.0000   1.0000   1.0000
     1.0000   1.0000   1.0000   1.0000   1.0000   1.0000   1.0000   1.0000
     1.0000   1.0000   1.0000   1.0000   1.0000   1.0000   1.0000   1.0000
     1.0000   1.0000   1.0000   1.0000   1.0000   1.0000   1.0000   1.0000
     1.0000   1.0000   1.0000   1.0000   1.0000   1.0000   1.0000   1.0000
     1.0000   1.0000   1.0000   1.0000   1.0000   1.0000   1.0000   1.0000
     1.0000   1.0000   1.0000   1.0000   1.0000   1.0000  -0.0336  -0.0323
    -0.0000  -0.0000  -0.0000  -0.0000  -0.0000  -0.0000  -0.0000  -0.0000
    -0.0000  -0.0000  -0.0000  -0.0000  -0.0000  -0.0000

          k = 0.0000 0.0000 0.3333 (  9606 PWs)   bands (ev):

   -56.5093 -56.5093 -56.4943 -56.4943 -56.4794 -56.4794 -56.4771 -56.4771
   -28.5922 -28.5850 -28.5842 -28.5802 -28.5447 -28.5421 -28.5037 -28.5032
   -27.6420 -27.6344 -27.5851 -27.5804 -27.5641 -27.5459 -27.5405 -27.5309
   -27.5294 -27.4957 -27.4796 -27.4647 -27.4618 -27.4516 -27.4463 -27.4402
     3.4514   3.4514   5.4204   5.4212   7.8603   7.8643   8.5098   8.5195
     9.6516   9.6531  10.6595  10.6618  10.7720  10.7844  11.0445  11.0475
    11.8624  11.8644  12.1344  12.1502  12.8381  12.8541  12.9333  12.9427
    13.1131  13.1189  13.1684  13.1736  13.2579  13.2607  13.3935  13.3956
    13.4519  13.4541  13.9153  13.9191  14.1180  14.1247  14.8898  14.9239
    15.3569  15.3653  15.5338  15.5521  15.7421  15.7704  15.8539  15.8780
    16.1947  16.2106  16.3709  16.3845  17.3063  17.3224

     occupation numbers 
     1.0000   1.0000   1.0000   1.0000   1.0000   1.0000   1.0000   1.0000
     1.0000   1.0000   1.0000   1.0000   1.0000   1.0000   1.0000   1.0000
     1.0000   1.0000   1.0000   1.0000   1.0000   1.0000   1.0000   1.0000
     1.0000   1.0000   1.0000   1.0000   1.0000   1.0000   1.0000   1.0000
     1.0000   1.0000   1.0000   1.0000   1.0000   1.0000   1.0000   1.0000
     1.0000   1.0000   1.0000   1.0000   1.0000   1.0000   1.0000   1.0000
     1.0000   1.0000   1.0000   1.0000   1.0000   1.0000   1.0000   1.0000
     1.0000   1.0000   1.0000   1.0000   1.0000   1.0000   1.0000   1.0000
     1.0000   1.0000   1.0000   1.0000   1.0000   1.0000   0.9015   0.7022
    -0.0000  -0.0000  -0.0000  -0.0000  -0.0000  -0.0000  -0.0000  -0.0000
    -0.0000  -0.0000  -0.0000  -0.0000  -0.0000  -0.0000

          k = 0.0000 0.0000 0.4167 (  9666 PWs)   bands (ev):

   -56.5060 -56.5060 -56.4983 -56.4983 -56.4785 -56.4785 -56.4773 -56.4773
   -28.5915 -28.5871 -28.5847 -28.5820 -28.5341 -28.5321 -28.5131 -28.5121
   -27.6425 -27.6381 -27.5783 -27.5714 -27.5691 -27.5491 -27.5423 -27.5337
   -27.5178 -27.4917 -27.4866 -27.4709 -27.4600 -27.4542 -27.4449 -27.4413
     3.8554   3.8555   4.8572   4.8576   8.0650   8.0702   8.4634   8.4714
     9.7545   9.7582  10.3461  10.3485  10.7987  10.8119  11.0008  11.0067
    12.1356  12.1375  12.1478  12.1610  12.6962  12.7114  12.8880  12.8997
    13.0760  13.0804  13.1920  13.1944  13.2270  13.2309  13.2797  13.2831
    13.6256  13.6272  13.9007  13.9048  14.3436  14.3627  14.7375  14.7717
    15.3632  15.3775  15.4593  15.4784  15.7673  15.7974  15.8351  15.8620
    16.1484  16.1635  16.2502  16.2640  17.4014  17.4066

     occupation numbers 
     1.0000   1.0000   1.0000   1.0000   1.0000   1.0000   1.0000   1.0000
     1.0000   1.0000   1.0000   1.0000   1.0000   1.0000   1.0000   1.0000
     1.0000   1.0000   1.0000   1.0000   1.0000   1.0000   1.0000   1.0000
     1.0000   1.0000   1.0000   1.0000   1.0000   1.0000   1.0000   1.0000
     1.0000   1.0000   1.0000   1.0000   1.0000   1.0000   1.0000   1.0000
     1.0000   1.0000   1.0000   1.0000   1.0000   1.0000   1.0000   1.0000
     1.0000   1.0000   1.0000   1.0000   1.0000   1.0000   1.0000   1.0000
     1.0000   1.0000   1.0000   1.0000   1.0000   1.0000   1.0000   1.0000
     1.0000   1.0000   1.0000   1.0000   1.0000   1.0000   1.0091   1.0210
    -0.0000  -0.0000  -0.0000  -0.0000  -0.0000  -0.0000  -0.0000  -0.0000
    -0.0000  -0.0000  -0.0000  -0.0000  -0.0000  -0.0000

          k = 0.0000 0.0000-0.5000 (  9658 PWs)   bands (ev):

   -56.5022 -56.5022 -56.5022 -56.5022 -56.4778 -56.4778 -56.4778 -56.4778
   -28.5897 -28.5897 -28.5836 -28.5836 -28.5234 -28.5234 -28.5220 -28.5220
   -27.6410 -27.6410 -27.5740 -27.5740 -27.5599 -27.5599 -27.5378 -27.5378
   -27.5047 -27.5047 -27.4782 -27.4782 -27.4572 -27.4572 -27.4430 -27.4430
     4.3289   4.3289   4.3290   4.3290   8.2826   8.2826   8.2891   8.2891
    10.0173  10.0173  10.0213  10.0213  10.8982  10.8982  10.9094  10.9094
    12.2473  12.2473  12.2539  12.2539  12.6846  12.6846  12.6971  12.6971
    13.1416  13.1416  13.1420  13.1420  13.2362  13.2362  13.2399  13.2399
    13.7825  13.7825  13.7856  13.7856  14.5658  14.5658  14.5943  14.5943
    15.3998  15.3998  15.4176  15.4176  15.8049  15.8049  15.8346  15.8346
    16.1659  16.1659  16.1796  16.1796  17.5423  17.5434

     occupation numbers 
     1.0000   1.0000   1.0000   1.0000   1.0000   1.0000   1.0000   1.0000
     1.0000   1.0000   1.0000   1.0000   1.0000   1.0000   1.0000   1.0000
     1.0000   1.0000   1.0000   1.0000   1.0000   1.0000   1.0000   1.0000
     1.0000   1.0000   1.0000   1.0000   1.0000   1.0000   1.0000   1.0000
     1.0000   1.0000   1.0000   1.0000   1.0000   1.0000   1.0000   1.0000
     1.0000   1.0000   1.0000   1.0000   1.0000   1.0000   1.0000   1.0000
     1.0000   1.0000   1.0000   1.0000   1.0000   1.0000   1.0000   1.0000
     1.0000   1.0000   1.0000   1.0000   1.0000   1.0000   1.0000   1.0000
     1.0000   1.0000   1.0000   1.0000   1.0000   1.0000   1.0000   1.0000
    -0.0000  -0.0000  -0.0000  -0.0000  -0.0000  -0.0000  -0.0000  -0.0000
    -0.0000  -0.0000  -0.0000  -0.0000  -0.0000  -0.0000

          k = 0.0000 0.0833 0.0833 (  9665 PWs)   bands (ev):

   -56.5152 -56.5152 -56.4849 -56.4849 -56.4814 -56.4814 -56.4787 -56.4787
   -28.5879 -28.5810 -28.5774 -28.5754 -28.5689 -28.5652 -28.4872 -28.4872
   -27.6287 -27.6258 -27.6068 -27.6037 -27.5485 -27.5442 -27.5398 -27.5389
   -27.5310 -27.5202 -27.4575 -27.4571 -27.4534 -27.4491 -27.4470 -27.4435
     2.7952   2.7952   6.9087   6.9141   7.3951   7.3981   7.9863   7.9924
    10.1064  10.1121  10.6054  10.6085  10.9967  11.0020  11.2461  11.2475
    11.8536  11.8549  12.3858  12.4016  12.6050  12.6095  12.8119  12.8211
    12.8788  12.8838  13.1317  13.1342  13.1578  13.1611  13.2136  13.2158
    13.5041  13.5087  13.6654  13.6728  13.8920  13.8950  15.4185  15.4289
    15.4853  15.4871  15.6654  15.6787  15.7434  15.7513  15.7641  15.7752
    16.4767  16.4958  16.6700  16.6743  16.8512  16.8761

     occupation numbers 
     1.0000   1.0000   1.0000   1.0000   1.0000   1.0000   1.0000   1.0000
     1.0000   1.0000   1.0000   1.0000   1.0000   1.0000   1.0000   1.0000
     1.0000   1.0000   1.0000   1.0000   1.0000   1.0000   1.0000   1.0000
     1.0000   1.0000   1.0000   1.0000   1.0000   1.0000   1.0000   1.0000
     1.0000   1.0000   1.0000   1.0000   1.0000   1.0000   1.0000   1.0000
     1.0000   1.0000   1.0000   1.0000   1.0000   1.0000   1.0000   1.0000
     1.0000   1.0000   1.0000   1.0000   1.0000   1.0000   1.0000   1.0000
     1.0000   1.0000   1.0000   1.0000   1.0000   1.0000   1.0000   1.0000
     1.0000   1.0000   1.0000   1.0000   1.0000   1.0000  -0.0000  -0.0000
    -0.0000  -0.0000  -0.0000  -0.0000  -0.0000  -0.0000  -0.0000  -0.0000
    -0.0000  -0.0000  -0.0000  -0.0000  -0.0000  -0.0000

          k = 0.0000 0.0833 0.1667 (  9653 PWs)   bands (ev):

   -56.5139 -56.5139 -56.4874 -56.4874 -56.4811 -56.4811 -56.4777 -56.4777
   -28.5903 -28.5836 -28.5770 -28.5769 -28.5630 -28.5592 -28.4909 -28.4909
   -27.6342 -27.6284 -27.6008 -27.5950 -27.5526 -27.5475 -27.5413 -27.5379
   -27.5276 -27.5122 -27.4640 -27.4610 -27.4554 -27.4503 -27.4454 -27.4407
     2.9386   2.9386   6.5239   6.5275   7.4125   7.4149   8.2330   8.2396
     9.9137   9.9180  10.6959  10.6970  10.8385  10.8413  11.3144  11.3163
    11.6695  11.6735  12.4474  12.4527  12.6191  12.6254  12.9297  12.9372
    13.0461  13.0520  13.1323  13.1326  13.1821  13.1846  13.2615  13.2640
    13.4809  13.4859  13.6755  13.6862  13.9989  14.0042  15.2961  15.3172
    15.3782  15.3925  15.6417  15.6559  15.7223  15.7362  15.8070  15.8287
    16.3630  16.3808  16.6150  16.6247  16.9883  17.0152

     occupation numbers 
     1.0000   1.0000   1.0000   1.0000   1.0000   1.0000   1.0000   1.0000
     1.0000   1.0000   1.0000   1.0000   1.0000   1.0000   1.0000   1.0000
     1.0000   1.0000   1.0000   1.0000   1.0000   1.0000   1.0000   1.0000
     1.0000   1.0000   1.0000   1.0000   1.0000   1.0000   1.0000   1.0000
     1.0000   1.0000   1.0000   1.0000   1.0000   1.0000   1.0000   1.0000
     1.0000   1.0000   1.0000   1.0000   1.0000   1.0000   1.0000   1.0000
     1.0000   1.0000   1.0000   1.0000   1.0000   1.0000   1.0000   1.0000
     1.0000   1.0000   1.0000   1.0000   1.0000   1.0000   1.0000   1.0000
     1.0000   1.0000   1.0000   1.0000   1.0000   1.0000  -0.0000  -0.0000
    -0.0000  -0.0000  -0.0000  -0.0000  -0.0000  -0.0000  -0.0000  -0.0000
    -0.0000  -0.0000  -0.0000  -0.0000  -0.0000  -0.0000

          k = 0.0000 0.0833 0.2500 (  9646 PWs)   bands (ev):

   -56.5118 -56.5118 -56.4906 -56.4906 -56.4805 -56.4805 -56.4772 -56.4772
   -28.5917 -28.5851 -28.5796 -28.5778 -28.5546 -28.5514 -28.4969 -28.4967
   -27.6387 -27.6310 -27.5931 -27.5866 -27.5581 -27.5484 -27.5397 -27.5376
   -27.5268 -27.5032 -27.4724 -27.4641 -27.4584 -27.4524 -27.4441 -27.4389
     3.1742   3.1743   6.0098   6.0118   7.5332   7.5350   8.4346   8.4415
     9.7448   9.7462  10.5621  10.5656  10.8458  10.8485  11.3943  11.4025
    11.5685  11.5703  12.2884  12.3013  12.7223  12.7238  13.0168  13.0311
    13.0876  13.0913  13.1757  13.1817  13.2487  13.2493  13.3325  13.3354
    13.5252  13.5306  13.7536  13.7668  14.0708  14.0762  15.0808  15.1088
    15.3415  15.3518  15.5642  15.5798  15.7103  15.7321  15.8491  15.8735
    16.2534  16.2691  16.5138  16.5264  17.1637  17.1916

     occupation numbers 
     1.0000   1.0000   1.0000   1.0000   1.0000   1.0000   1.0000   1.0000
     1.0000   1.0000   1.0000   1.0000   1.0000   1.0000   1.0000   1.0000
     1.0000   1.0000   1.0000   1.0000   1.0000   1.0000   1.0000   1.0000
     1.0000   1.0000   1.0000   1.0000   1.0000   1.0000   1.0000   1.0000
     1.0000   1.0000   1.0000   1.0000   1.0000   1.0000   1.0000   1.0000
     1.0000   1.0000   1.0000   1.0000   1.0000   1.0000   1.0000   1.0000
     1.0000   1.0000   1.0000   1.0000   1.0000   1.0000   1.0000   1.0000
     1.0000   1.0000   1.0000   1.0000   1.0000   1.0000   1.0000   1.0000
     1.0000   1.0000   1.0000   1.0000   1.0000   1.0000  -0.0353  -0.0298
    -0.0000  -0.0000  -0.0000  -0.0000  -0.0000  -0.0000  -0.0000  -0.0000
    -0.0000  -0.0000  -0.0000  -0.0000  -0.0000  -0.0000

          k = 0.0000 0.0833 0.3333 (  9649 PWs)   bands (ev):

   -56.5090 -56.5090 -56.4943 -56.4943 -56.4797 -56.4797 -56.4771 -56.4771
   -28.5920 -28.5858 -28.5825 -28.5794 -28.5450 -28.5423 -28.5047 -28.5042
   -27.6411 -27.6341 -27.5845 -27.5796 -27.5638 -27.5469 -27.5424 -27.5319
   -27.5278 -27.4941 -27.4825 -27.4660 -27.4615 -27.4547 -27.4431 -27.4385
     3.4970   3.4972   5.4517   5.4528   7.7142   7.7163   8.5120   8.5184
     9.6730   9.6750  10.3916  10.3959  10.9572  10.9601  11.1471  11.1596
    11.8086  11.8123  12.1756  12.1890  12.7437  12.7482  12.9867  12.9935
    13.0251  13.0300  13.2291  13.2340  13.2967  13.2984  13.4268  13.4321
    13.4958  13.5061  13.9328  13.9410  14.1522  14.1603  14.8958  14.9292
    15.3224  15.3347  15.4781  15.4937  15.7121  15.7378  15.8530  15.8787
    16.1742  16.1870  16.3940  16.4077  17.2784  17.3019

     occupation numbers 
     1.0000   1.0000   1.0000   1.0000   1.0000   1.0000   1.0000   1.0000
     1.0000   1.0000   1.0000   1.0000   1.0000   1.0000   1.0000   1.0000
     1.0000   1.0000   1.0000   1.0000   1.0000   1.0000   1.0000   1.0000
     1.0000   1.0000   1.0000   1.0000   1.0000   1.0000   1.0000   1.0000
     1.0000   1.0000   1.0000   1.0000   1.0000   1.0000   1.0000   1.0000
     1.0000   1.0000   1.0000   1.0000   1.0000   1.0000   1.0000   1.0000
     1.0000   1.0000   1.0000   1.0000   1.0000   1.0000   1.0000   1.0000
     1.0000   1.0000   1.0000   1.0000   1.0000   1.0000   1.0000   1.0000
     1.0000   1.0000   1.0000   1.0000   1.0000   1.0000   0.8730   0.6644
    -0.0000  -0.0000  -0.0000  -0.0000  -0.0000  -0.0000  -0.0000  -0.0000
    -0.0000  -0.0000  -0.0000  -0.0000  -0.0000  -0.0000

          k = 0.0000 0.0833 0.4167 (  9647 PWs)   bands (ev):

   -56.5057 -56.5057 -56.4982 -56.4982 -56.4788 -56.4788 -56.4774 -56.4774
   -28.5910 -28.5868 -28.5840 -28.5813 -28.5346 -28.5326 -28.5139 -28.5131
   -27.6414 -27.6373 -27.5783 -27.5708 -27.5691 -27.5507 -27.5422 -27.5330
   -27.5195 -27.4947 -27.4847 -27.4703 -27.4616 -27.4572 -27.4418 -27.4391
     3.8994   3.8996   4.8951   4.8957   7.9379   7.9409   8.4044   8.4095
     9.7774   9.7810  10.2247  10.2286  10.9623  10.9680  11.0305  11.0358
    12.0232  12.0293  12.2038  12.2113  12.6464  12.6510  12.8360  12.8437
    13.0723  13.0763  13.2588  13.2617  13.2899  13.2929  13.3199  13.3225
    13.6491  13.6522  13.9193  13.9239  14.3704  14.3912  14.7450  14.7789
    15.3258  15.3408  15.4053  15.4211  15.7388  15.7662  15.8298  15.8575
    16.1458  16.1555  16.2754  16.2880  17.3822  17.3961

     occupation numbers 
     1.0000   1.0000   1.0000   1.0000   1.0000   1.0000   1.0000   1.0000
     1.0000   1.0000   1.0000   1.0000   1.0000   1.0000   1.0000   1.0000
     1.0000   1.0000   1.0000   1.0000   1.0000   1.0000   1.0000   1.0000
     1.0000   1.0000   1.0000   1.0000   1.0000   1.0000   1.0000   1.0000
     1.0000   1.0000   1.0000   1.0000   1.0000   1.0000   1.0000   1.0000
     1.0000   1.0000   1.0000   1.0000   1.0000   1.0000   1.0000   1.0000
     1.0000   1.0000   1.0000   1.0000   1.0000   1.0000   1.0000   1.0000
     1.0000   1.0000   1.0000   1.0000   1.0000   1.0000   1.0000   1.0000
     1.0000   1.0000   1.0000   1.0000   1.0000   1.0000   1.0112   1.0240
    -0.0000  -0.0000  -0.0000  -0.0000  -0.0000  -0.0000  -0.0000  -0.0000
    -0.0000  -0.0000  -0.0000  -0.0000  -0.0000  -0.0000

          k = 0.0000 0.0833-0.5000 (  9688 PWs)   bands (ev):

   -56.5020 -56.5020 -56.5020 -56.5020 -56.4780 -56.4780 -56.4780 -56.4780
   -28.5891 -28.5891 -28.5831 -28.5831 -28.5244 -28.5244 -28.5225 -28.5225
   -27.6399 -27.6399 -27.5738 -27.5738 -27.5603 -27.5603 -27.5376 -27.5376
   -27.5071 -27.5071 -27.4769 -27.4769 -27.4596 -27.4596 -27.4404 -27.4404
     4.3705   4.3705   4.3708   4.3708   8.1815   8.1815   8.1882   8.1882
     9.9986   9.9986  10.0031  10.0031  10.9696  10.9696  10.9828  10.9828
    12.1975  12.1975  12.2035  12.2035  12.6440  12.6440  12.6598  12.6598
    13.1819  13.1819  13.1862  13.1862  13.2821  13.2821  13.2842  13.2842
    13.8037  13.8037  13.8071  13.8071  14.5812  14.5812  14.6107  14.6107
    15.3535  15.3535  15.3703  15.3703  15.7852  15.7852  15.8149  15.8149
    16.1819  16.1819  16.1940  16.1940  17.5402  17.5449

     occupation numbers 
     1.0000   1.0000   1.0000   1.0000   1.0000   1.0000   1.0000   1.0000
     1.0000   1.0000   1.0000   1.0000   1.0000   1.0000   1.0000   1.0000
     1.0000   1.0000   1.0000   1.0000   1.0000   1.0000   1.0000   1.0000
     1.0000   1.0000   1.0000   1.0000   1.0000   1.0000   1.0000   1.0000
     1.0000   1.0000   1.0000   1.0000   1.0000   1.0000   1.0000   1.0000
     1.0000   1.0000   1.0000   1.0000   1.0000   1.0000   1.0000   1.0000
     1.0000   1.0000   1.0000   1.0000   1.0000   1.0000   1.0000   1.0000
     1.0000   1.0000   1.0000   1.0000   1.0000   1.0000   1.0000   1.0000
     1.0000   1.0000   1.0000   1.0000   1.0000   1.0000   1.0000   1.0000
    -0.0000  -0.0000  -0.0000  -0.0000  -0.0000  -0.0000  -0.0000  -0.0000
    -0.0000  -0.0000  -0.0000  -0.0000  -0.0000  -0.0000

          k = 0.0000 0.1667 0.1667 (  9657 PWs)   bands (ev):

   -56.5126 -56.5126 -56.4888 -56.4888 -56.4814 -56.4814 -56.4772 -56.4772
   -28.5914 -28.5852 -28.5760 -28.5760 -28.5599 -28.5559 -28.4945 -28.4944
   -27.6351 -27.6311 -27.5946 -27.5909 -27.5535 -27.5504 -27.5432 -27.5399
   -27.5239 -27.5059 -27.4698 -27.4660 -27.4581 -27.4502 -27.4428 -27.4384
     3.0805   3.0806   6.3976   6.4020   7.2079   7.2123   8.4069   8.4122
     9.8324   9.8357  10.5107  10.5132  10.7867  10.7879  11.3570  11.3600
    11.7805  11.7809  12.4121  12.4178  12.5881  12.5958  12.9947  12.9961
    13.0903  13.0985  13.1705  13.1713  13.2428  13.2494  13.3344  13.3395
    13.4665  13.4744  13.7319  13.7460  14.0749  14.0823  15.2513  15.2730
    15.3007  15.3200  15.5336  15.5457  15.6930  15.7141  15.8131  15.8377
    16.2774  16.2944  16.6073  16.6170  17.0334  17.0679

     occupation numbers 
     1.0000   1.0000   1.0000   1.0000   1.0000   1.0000   1.0000   1.0000
     1.0000   1.0000   1.0000   1.0000   1.0000   1.0000   1.0000   1.0000
     1.0000   1.0000   1.0000   1.0000   1.0000   1.0000   1.0000   1.0000
     1.0000   1.0000   1.0000   1.0000   1.0000   1.0000   1.0000   1.0000
     1.0000   1.0000   1.0000   1.0000   1.0000   1.0000   1.0000   1.0000
     1.0000   1.0000   1.0000   1.0000   1.0000   1.0000   1.0000   1.0000
     1.0000   1.0000   1.0000   1.0000   1.0000   1.0000   1.0000   1.0000
     1.0000   1.0000   1.0000   1.0000   1.0000   1.0000   1.0000   1.0000
     1.0000   1.0000   1.0000   1.0000   1.0000   1.0000  -0.0003  -0.0001
    -0.0000  -0.0000  -0.0000  -0.0000  -0.0000  -0.0000  -0.0000  -0.0000
    -0.0000  -0.0000  -0.0000  -0.0000  -0.0000  -0.0000

          k = 0.0000 0.1667 0.2500 (  9644 PWs)   bands (ev):

   -56.5106 -56.5106 -56.4913 -56.4913 -56.4811 -56.4811 -56.4771 -56.4771
   -28.5918 -28.5859 -28.5773 -28.5762 -28.5537 -28.5502 -28.5002 -28.5000
   -27.6371 -27.6321 -27.5888 -27.5845 -27.5576 -27.5516 -27.5426 -27.5397
   -27.5229 -27.4985 -27.4783 -27.4694 -27.4616 -27.4509 -27.4408 -27.4364
     3.3138   3.3139   6.0387   6.0418   7.2042   7.2079   8.5047   8.5090
     9.7419   9.7437  10.2899  10.2941  10.8764  10.8775  11.4819  11.4826
    11.6895  11.6907  12.3246  12.3301  12.5675  12.5730  12.9872  12.9945
    13.1247  13.1378  13.2043  13.2097  13.3291  13.3302  13.4420  13.4500
    13.5201  13.5276  13.8631  13.8786  14.1362  14.1437  15.0962  15.1214
    15.2381  15.2571  15.4364  15.4496  15.6637  15.6868  15.8195  15.8464
    16.1946  16.2086  16.5337  16.5453  17.1532  17.1920

     occupation numbers 
     1.0000   1.0000   1.0000   1.0000   1.0000   1.0000   1.0000   1.0000
     1.0000   1.0000   1.0000   1.0000   1.0000   1.0000   1.0000   1.0000
     1.0000   1.0000   1.0000   1.0000   1.0000   1.0000   1.0000   1.0000
     1.0000   1.0000   1.0000   1.0000   1.0000   1.0000   1.0000   1.0000
     1.0000   1.0000   1.0000   1.0000   1.0000   1.0000   1.0000   1.0000
     1.0000   1.0000   1.0000   1.0000   1.0000   1.0000   1.0000   1.0000
     1.0000   1.0000   1.0000   1.0000   1.0000   1.0000   1.0000   1.0000
     1.0000   1.0000   1.0000   1.0000   1.0000   1.0000   1.0000   1.0000
     1.0000   1.0000   1.0000   1.0000   1.0000   1.0000  -0.0338  -0.0246
    -0.0006  -0.0003  -0.0000  -0.0000  -0.0000  -0.0000  -0.0000  -0.0000
    -0.0000  -0.0000  -0.0000  -0.0000  -0.0000  -0.0000

          k = 0.0000 0.1667 0.3333 (  9647 PWs)   bands (ev):

   -56.5080 -56.5080 -56.4944 -56.4944 -56.4804 -56.4804 -56.4773 -56.4773
   -28.5912 -28.5858 -28.5798 -28.5776 -28.5453 -28.5427 -28.5076 -28.5073
   -27.6383 -27.6331 -27.5834 -27.5777 -27.5632 -27.5505 -27.5437 -27.5343
   -27.5250 -27.4924 -27.4873 -27.4718 -27.4635 -27.4529 -27.4390 -27.4354
     3.6330   3.6332   5.5381   5.5398   7.3632   7.3658   8.4326   8.4359
     9.7331   9.7364  10.1896  10.1939  10.9872  10.9902  11.3856  11.3952
    11.7521  11.7564  12.1887  12.1975  12.5943  12.6020  12.8753  12.8841
    13.1117  13.1211  13.2498  13.2556  13.3781  13.3794  13.5251  13.5352
    13.5894  13.6025  13.9881  13.9987  14.2440  14.2564  14.9094  14.9404
    15.2236  15.2422  15.3431  15.3531  15.6517  15.6768  15.8051  15.8355
    16.1514  16.1609  16.4394  16.4524  17.2362  17.2692

     occupation numbers 
     1.0000   1.0000   1.0000   1.0000   1.0000   1.0000   1.0000   1.0000
     1.0000   1.0000   1.0000   1.0000   1.0000   1.0000   1.0000   1.0000
     1.0000   1.0000   1.0000   1.0000   1.0000   1.0000   1.0000   1.0000
     1.0000   1.0000   1.0000   1.0000   1.0000   1.0000   1.0000   1.0000
     1.0000   1.0000   1.0000   1.0000   1.0000   1.0000   1.0000   1.0000
     1.0000   1.0000   1.0000   1.0000   1.0000   1.0000   1.0000   1.0000
     1.0000   1.0000   1.0000   1.0000   1.0000   1.0000   1.0000   1.0000
     1.0000   1.0000   1.0000   1.0000   1.0000   1.0000   1.0000   1.0000
     1.0000   1.0000   1.0000   1.0000   1.0000   1.0000   0.7975   0.5806
    -0.0011  -0.0005  -0.0000  -0.0000  -0.0000  -0.0000  -0.0000  -0.0000
    -0.0000  -0.0000  -0.0000  -0.0000  -0.0000  -0.0000

          k = 0.0000 0.1667 0.4167 (  9668 PWs)   bands (ev):

   -56.5049 -56.5049 -56.4979 -56.4979 -56.4795 -56.4795 -56.4778 -56.4778
   -28.5896 -28.5856 -28.5820 -28.5796 -28.5359 -28.5340 -28.5164 -28.5157
   -27.6381 -27.6348 -27.5790 -27.5717 -27.5667 -27.5533 -27.5420 -27.5315
   -27.5229 -27.5003 -27.4842 -27.4749 -27.4625 -27.4560 -27.4375 -27.4354
     4.0302   4.0306   5.0056   5.0066   7.6069   7.6090   8.1966   8.1991
     9.8544   9.8579  10.1271  10.1306  11.0543  11.0630  11.2133  11.2272
    11.9235  11.9285  12.1473  12.1530  12.5356  12.5449  12.7019  12.7125
    13.1759  13.1802  13.2849  13.2897  13.3737  13.3759  13.4816  13.4829
    13.7241  13.7282  13.9707  13.9768  14.4434  14.4684  14.7615  14.7944
    15.2225  15.2388  15.2754  15.2839  15.6684  15.6952  15.7661  15.7976
    16.1694  16.1753  16.3384  16.3511  17.3266  17.3480

     occupation numbers 
     1.0000   1.0000   1.0000   1.0000   1.0000   1.0000   1.0000   1.0000
     1.0000   1.0000   1.0000   1.0000   1.0000   1.0000   1.0000   1.0000
     1.0000   1.0000   1.0000   1.0000   1.0000   1.0000   1.0000   1.0000
     1.0000   1.0000   1.0000   1.0000   1.0000   1.0000   1.0000   1.0000
     1.0000   1.0000   1.0000   1.0000   1.0000   1.0000   1.0000   1.0000
     1.0000   1.0000   1.0000   1.0000   1.0000   1.0000   1.0000   1.0000
     1.0000   1.0000   1.0000   1.0000   1.0000   1.0000   1.0000   1.0000
     1.0000   1.0000   1.0000   1.0000   1.0000   1.0000   1.0000   1.0000
     1.0000   1.0000   1.0000   1.0000   1.0000   1.0000   1.0169   1.0303
    -0.0012  -0.0006  -0.0001  -0.0001  -0.0000  -0.0000  -0.0000  -0.0000
    -0.0000  -0.0000  -0.0000  -0.0000  -0.0000  -0.0000

          k = 0.0000 0.1667-0.5000 (  9654 PWs)   bands (ev):

   -56.5014 -56.5014 -56.5014 -56.5014 -56.4786 -56.4786 -56.4786 -56.4786
   -28.5873 -28.5873 -28.5815 -28.5815 -28.5268 -28.5268 -28.5241 -28.5241
   -27.6367 -27.6367 -27.5747 -27.5747 -27.5603 -27.5603 -27.5368 -27.5368
   -27.5119 -27.5119 -27.4791 -27.4791 -27.4595 -27.4595 -27.4362 -27.4362
     4.4936   4.4936   4.4943   4.4943   7.8952   7.8952   7.9021   7.9021
    10.0150  10.0150  10.0190  10.0190  11.1035  11.1035  11.1176  11.1176
    12.0899  12.0899  12.0945  12.0945  12.5393  12.5393  12.5550  12.5550
    13.2747  13.2747  13.2756  13.2756  13.3900  13.3900  13.3912  13.3912
    13.8666  13.8666  13.8706  13.8706  14.6209  14.6209  14.6522  14.6522
    15.2359  15.2359  15.2505  15.2505  15.7129  15.7129  15.7427  15.7427
    16.2394  16.2394  16.2501  16.2501  17.4851  17.4927

     occupation numbers 
     1.0000   1.0000   1.0000   1.0000   1.0000   1.0000   1.0000   1.0000
     1.0000   1.0000   1.0000   1.0000   1.0000   1.0000   1.0000   1.0000
     1.0000   1.0000   1.0000   1.0000   1.0000   1.0000   1.0000   1.0000
     1.0000   1.0000   1.0000   1.0000   1.0000   1.0000   1.0000   1.0000
     1.0000   1.0000   1.0000   1.0000   1.0000   1.0000   1.0000   1.0000
     1.0000   1.0000   1.0000   1.0000   1.0000   1.0000   1.0000   1.0000
     1.0000   1.0000   1.0000   1.0000   1.0000   1.0000   1.0000   1.0000
     1.0000   1.0000   1.0000   1.0000   1.0000   1.0000   1.0000   1.0000
     1.0000   1.0000   1.0000   1.0000   1.0001   1.0001   1.0004   1.0004
    -0.0007  -0.0007  -0.0003  -0.0003  -0.0000  -0.0000  -0.0000  -0.0000
    -0.0000  -0.0000  -0.0000  -0.0000  -0.0000  -0.0000

          k = 0.0000 0.2500 0.2500 (  9661 PWs)   bands (ev):

   -56.5088 -56.5088 -56.4926 -56.4926 -56.4814 -56.4814 -56.4772 -56.4772
   -28.5912 -28.5858 -28.5761 -28.5754 -28.5508 -28.5473 -28.5056 -28.5051
   -27.6354 -27.6323 -27.5841 -27.5818 -27.5581 -27.5543 -27.5424 -27.5411
   -27.5213 -27.4952 -27.4849 -27.4751 -27.4647 -27.4485 -27.4382 -27.4343
     3.5428   3.5430   5.9655   5.9687   6.9414   6.9454   8.4364   8.4414
     9.7518   9.7550  10.1866  10.1917  10.9258  10.9283  11.3506  11.3517
    11.8600  11.8638  12.2864  12.2899  12.5059  12.5152  12.9035  12.9111
    13.1472  13.1565  13.2696  13.2791  13.4411  13.4426  13.5196  13.5288
    13.5706  13.5811  13.9841  13.9964  14.2201  14.2257  15.0460  15.0664
    15.1394  15.1641  15.2930  15.3045  15.6139  15.6390  15.7622  15.7910
    16.1595  16.1705  16.5123  16.5230  17.1853  17.2282

     occupation numbers 
     1.0000   1.0000   1.0000   1.0000   1.0000   1.0000   1.0000   1.0000
     1.0000   1.0000   1.0000   1.0000   1.0000   1.0000   1.0000   1.0000
     1.0000   1.0000   1.0000   1.0000   1.0000   1.0000   1.0000   1.0000
     1.0000   1.0000   1.0000   1.0000   1.0000   1.0000   1.0000   1.0000
     1.0000   1.0000   1.0000   1.0000   1.0000   1.0000   1.0000   1.0000
     1.0000   1.0000   1.0000   1.0000   1.0000   1.0000   1.0000   1.0000
     1.0000   1.0000   1.0000   1.0000   1.0000   1.0000   1.0000   1.0000
     1.0000   1.0000   1.0000   1.0000   1.0000   1.0000   1.0000   1.0000
     1.0000   1.0000   1.0000   1.0000   1.0000   1.0000  -0.0067  -0.0304
    -0.0171  -0.0091  -0.0000  -0.0000  -0.0000  -0.0000  -0.0000  -0.0000
    -0.0000  -0.0000  -0.0000  -0.0000  -0.0000  -0.0000

          k = 0.0000 0.2500 0.3333 (  9636 PWs)   bands (ev):

   -56.5064 -56.5064 -56.4948 -56.4948 -56.4811 -56.4811 -56.4777 -56.4777
   -28.5896 -28.5848 -28.5773 -28.5758 -28.5451 -28.5424 -28.5123 -28.5119
   -27.6343 -27.6313 -27.5833 -27.5767 -27.5623 -27.5526 -27.5427 -27.5367
   -27.5233 -27.4953 -27.4922 -27.4793 -27.4632 -27.4481 -27.4362 -27.4330
     3.8557   3.8561   5.6434   5.6458   6.9527   6.9562   8.1881   8.1920
     9.8431   9.8467  10.1797  10.1836  10.9891  10.9913  11.3885  11.3920
    11.8760  11.8781  12.1107  12.1120  12.4496  12.4599  12.7481  12.7566
    13.1963  13.2064  13.3023  13.3091  13.4484  13.4519  13.6453  13.6487
    13.7125  13.7172  14.0562  14.0672  14.3685  14.3883  14.9102  14.9349
    15.0745  15.0984  15.1864  15.1937  15.5819  15.6064  15.7075  15.7392
    16.1728  16.1807  16.4784  16.4883  17.1843  17.2198

     occupation numbers 
     1.0000   1.0000   1.0000   1.0000   1.0000   1.0000   1.0000   1.0000
     1.0000   1.0000   1.0000   1.0000   1.0000   1.0000   1.0000   1.0000
     1.0000   1.0000   1.0000   1.0000   1.0000   1.0000   1.0000   1.0000
     1.0000   1.0000   1.0000   1.0000   1.0000   1.0000   1.0000   1.0000
     1.0000   1.0000   1.0000   1.0000   1.0000   1.0000   1.0000   1.0000
     1.0000   1.0000   1.0000   1.0000   1.0000   1.0000   1.0000   1.0000
     1.0000   1.0000   1.0000   1.0000   1.0000   1.0000   1.0000   1.0000
     1.0000   1.0000   1.0000   1.0000   1.0000   1.0000   1.0000   1.0000
     1.0000   1.0000   1.0000   1.0000   1.0000   1.0000   0.7925   0.6223
    -0.0341  -0.0333  -0.0045  -0.0035  -0.0000  -0.0000  -0.0000  -0.0000
    -0.0000  -0.0000  -0.0000  -0.0000  -0.0000  -0.0000

          k = 0.0000 0.2500 0.4167 (  9659 PWs)   bands (ev):

   -56.5036 -56.5036 -56.4975 -56.4975 -56.4804 -56.4804 -56.4785 -56.4785
   -28.5873 -28.5836 -28.5794 -28.5773 -28.5376 -28.5358 -28.5202 -28.5196
   -27.6330 -27.6308 -27.5821 -27.5763 -27.5617 -27.5531 -27.5411 -27.5305
   -27.5258 -27.5056 -27.4905 -27.4838 -27.4586 -27.4500 -27.4345 -27.4327
     4.2435   4.2441   5.1762   5.1776   7.1710   7.1738   7.8424   7.8454
     9.9964   9.9995  10.1861  10.1891  11.0742  11.0807  11.3416  11.3527
    11.9082  11.9109  11.9804  11.9855  12.4122  12.4238  12.5557  12.5670
    13.2752  13.2835  13.3653  13.3673  13.4290  13.4308  13.6285  13.6308
    13.8636  13.8664  14.0587  14.0663  14.5325  14.5614  14.7626  14.7908
    15.0723  15.0895  15.1186  15.1220  15.5763  15.6015  15.6511  15.6828
    16.2385  16.2457  16.4217  16.4328  17.2188  17.2410

     occupation numbers 
     1.0000   1.0000   1.0000   1.0000   1.0000   1.0000   1.0000   1.0000
     1.0000   1.0000   1.0000   1.0000   1.0000   1.0000   1.0000   1.0000
     1.0000   1.0000   1.0000   1.0000   1.0000   1.0000   1.0000   1.0000
     1.0000   1.0000   1.0000   1.0000   1.0000   1.0000   1.0000   1.0000
     1.0000   1.0000   1.0000   1.0000   1.0000   1.0000   1.0000   1.0000
     1.0000   1.0000   1.0000   1.0000   1.0000   1.0000   1.0000   1.0000
     1.0000   1.0000   1.0000   1.0000   1.0000   1.0000   1.0000   1.0000
     1.0000   1.0000   1.0000   1.0000   1.0000   1.0000   1.0000   1.0000
     1.0000   1.0000   1.0000   1.0000   1.0000   1.0000   1.0173   1.0290
    -0.0334  -0.0351  -0.0258  -0.0244  -0.0000  -0.0000  -0.0000  -0.0000
    -0.0000  -0.0000  -0.0000  -0.0000  -0.0000  -0.0000

          k = 0.0000 0.2500-0.5000 (  9686 PWs)   bands (ev):

   -56.5006 -56.5006 -56.5006 -56.5006 -56.4795 -56.4795 -56.4795 -56.4795
   -28.5847 -28.5847 -28.5792 -28.5792 -28.5300 -28.5300 -28.5268 -28.5268
   -27.6316 -27.6316 -27.5794 -27.5794 -27.5572 -27.5572 -27.5357 -27.5357
   -27.5165 -27.5165 -27.4875 -27.4875 -27.4537 -27.4537 -27.4333 -27.4333
     4.6918   4.6918   4.6929   4.6929   7.4838   7.4838   7.4899   7.4899
    10.1294  10.1294  10.1325  10.1325  11.2001  11.2001  11.2118  11.2118
    11.9551  11.9551  11.9570  11.9570  12.4183  12.4183  12.4308  12.4308
    13.3460  13.3460  13.3524  13.3524  13.5155  13.5155  13.5215  13.5215
    13.9873  13.9873  13.9929  13.9929  14.6543  14.6543  14.6848  14.6848
    15.0841  15.0841  15.0958  15.0958  15.6022  15.6022  15.6311  15.6311
    16.3326  16.3326  16.3436  16.3436  17.3588  17.3600

     occupation numbers 
     1.0000   1.0000   1.0000   1.0000   1.0000   1.0000   1.0000   1.0000
     1.0000   1.0000   1.0000   1.0000   1.0000   1.0000   1.0000   1.0000
     1.0000   1.0000   1.0000   1.0000   1.0000   1.0000   1.0000   1.0000
     1.0000   1.0000   1.0000   1.0000   1.0000   1.0000   1.0000   1.0000
     1.0000   1.0000   1.0000   1.0000   1.0000   1.0000   1.0000   1.0000
     1.0000   1.0000   1.0000   1.0000   1.0000   1.0000   1.0000   1.0000
     1.0000   1.0000   1.0000   1.0000   1.0000   1.0000   1.0000   1.0000
     1.0000   1.0000   1.0000   1.0000   1.0000   1.0000   1.0000   1.0000
     1.0000   1.0000   1.0000   1.0000   1.0004   1.0004   1.0015   1.0015
    -0.0355  -0.0355  -0.0339  -0.0339  -0.0000  -0.0000  -0.0000  -0.0000
    -0.0000  -0.0000  -0.0000  -0.0000  -0.0000  -0.0000

          k = 0.0000 0.3333 0.3333 (  9619 PWs)   bands (ev):

   -56.5044 -56.5044 -56.4958 -56.4958 -56.4814 -56.4814 -56.4785 -56.4785
   -28.5872 -28.5831 -28.5760 -28.5751 -28.5431 -28.5406 -28.5185 -28.5177
   -27.6299 -27.6286 -27.5850 -27.5794 -27.5594 -27.5515 -27.5401 -27.5370
   -27.5238 -27.5005 -27.4983 -27.4872 -27.4580 -27.4445 -27.4347 -27.4317
     4.1586   4.1590   5.6403   5.6424   6.6786   6.6814   7.8200   7.8238
    10.0316  10.0343  10.3051  10.3081  10.9404  10.9421  11.2582  11.2603
    11.8941  11.9008  12.1585  12.1630  12.3089  12.3185  12.6280  12.6359
    13.1776  13.1860  13.3902  13.3952  13.5582  13.5610  13.7200  13.7253
    13.8832  13.8947  14.0941  14.1068  14.4879  14.5136  14.8479  14.8594
    14.9399  14.9600  15.0560  15.0729  15.5198  15.5429  15.6012  15.6312
    16.2319  16.2407  16.4897  16.4966  17.1460  17.1765

     occupation numbers 
     1.0000   1.0000   1.0000   1.0000   1.0000   1.0000   1.0000   1.0000
     1.0000   1.0000   1.0000   1.0000   1.0000   1.0000   1.0000   1.0000
     1.0000   1.0000   1.0000   1.0000   1.0000   1.0000   1.0000   1.0000
     1.0000   1.0000   1.0000   1.0000   1.0000   1.0000   1.0000   1.0000
     1.0000   1.0000   1.0000   1.0000   1.0000   1.0000   1.0000   1.0000
     1.0000   1.0000   1.0000   1.0000   1.0000   1.0000   1.0000   1.0000
     1.0000   1.0000   1.0000   1.0000   1.0000   1.0000   1.0000   1.0000
     1.0000   1.0000   1.0000   1.0000   1.0000   1.0000   1.0000   1.0000
     1.0000   1.0000   1.0000   1.0000   1.0000   1.0000   1.0186   0.9995
     0.5842   0.4291  -0.0213  -0.0336  -0.0000  -0.0000  -0.0000  -0.0000
    -0.0000  -0.0000  -0.0000  -0.0000  -0.0000  -0.0000

          k = 0.0000 0.3333 0.4167 (  9633 PWs)   bands (ev):

   -56.5020 -56.5020 -56.4975 -56.4975 -56.4811 -56.4811 -56.4794 -56.4794
   -28.5843 -28.5811 -28.5769 -28.5756 -28.5385 -28.5369 -28.5251 -28.5244
   -27.6265 -27.6255 -27.5877 -27.5838 -27.5552 -27.5497 -27.5391 -27.5302
   -27.5277 -27.5091 -27.5003 -27.4934 -27.4519 -27.4441 -27.4335 -27.4315
     4.5304   4.5311   5.3665   5.3683   6.7397   6.7425   7.4121   7.4151
    10.2064  10.2081  10.3657  10.3678  11.0317  11.0345  11.3561  11.3632
    11.7473  11.7503  11.9381  11.9433  12.3001  12.3063  12.4377  12.4464
    13.2736  13.2818  13.4169  13.4191  13.5828  13.5853  13.7586  13.7637
    14.0547  14.0620  14.1737  14.1816  14.5736  14.5973  14.7020  14.7206
    14.9164  14.9333  14.9741  14.9931  15.4929  15.5134  15.5340  15.5624
    16.3318  16.3417  16.5034  16.5097  17.0964  17.1156

     occupation numbers 
     1.0000   1.0000   1.0000   1.0000   1.0000   1.0000   1.0000   1.0000
     1.0000   1.0000   1.0000   1.0000   1.0000   1.0000   1.0000   1.0000
     1.0000   1.0000   1.0000   1.0000   1.0000   1.0000   1.0000   1.0000
     1.0000   1.0000   1.0000   1.0000   1.0000   1.0000   1.0000   1.0000
     1.0000   1.0000   1.0000   1.0000   1.0000   1.0000   1.0000   1.0000
     1.0000   1.0000   1.0000   1.0000   1.0000   1.0000   1.0000   1.0000
     1.0000   1.0000   1.0000   1.0000   1.0000   1.0000   1.0000   1.0000
     1.0000   1.0000   1.0000   1.0000   1.0000   1.0000   1.0000   1.0000
     1.0000   1.0000   1.0000   1.0000   1.0000   1.0000   1.0029   1.0054
     0.7534   0.6344   0.3239   0.1969  -0.0000  -0.0000  -0.0000  -0.0000
    -0.0000  -0.0000  -0.0000  -0.0000  -0.0000  -0.0000

          k = 0.0000 0.3333-0.5000 (  9646 PWs)   bands (ev):

   -56.4996 -56.4996 -56.4996 -56.4996 -56.4804 -56.4804 -56.4804 -56.4804
   -28.5814 -28.5814 -28.5770 -28.5770 -28.5332 -28.5332 -28.5301 -28.5301
   -27.6246 -27.6246 -27.5874 -27.5874 -27.5513 -27.5513 -27.5345 -27.5345
   -27.5196 -27.5196 -27.4979 -27.4979 -27.4469 -27.4469 -27.4322 -27.4322
     4.9498   4.9498   4.9512   4.9512   7.0288   7.0288   7.0337   7.0337
    10.3304  10.3304  10.3324  10.3324  11.2378  11.2378  11.2462  11.2462
    11.7603  11.7603  11.7658  11.7658  12.3339  12.3339  12.3412  12.3412
    13.3652  13.3652  13.3723  13.3723  13.6742  13.6742  13.6829  13.6829
    14.1705  14.1705  14.1760  14.1760  14.6101  14.6101  14.6291  14.6291
    14.9427  14.9427  14.9577  14.9577  15.4961  15.4961  15.5203  15.5203
    16.4401  16.4401  16.4508  16.4508  17.1939  17.1959

     occupation numbers 
     1.0000   1.0000   1.0000   1.0000   1.0000   1.0000   1.0000   1.0000
     1.0000   1.0000   1.0000   1.0000   1.0000   1.0000   1.0000   1.0000
     1.0000   1.0000   1.0000   1.0000   1.0000   1.0000   1.0000   1.0000
     1.0000   1.0000   1.0000   1.0000   1.0000   1.0000   1.0000   1.0000
     1.0000   1.0000   1.0000   1.0000   1.0000   1.0000   1.0000   1.0000
     1.0000   1.0000   1.0000   1.0000   1.0000   1.0000   1.0000   1.0000
     1.0000   1.0000   1.0000   1.0000   1.0000   1.0000   1.0000   1.0000
     1.0000   1.0000   1.0000   1.0000   1.0000   1.0000   1.0000   1.0000
     1.0000   1.0000   1.0000   1.0000   1.0000   1.0000   1.0001   1.0001
     0.5626   0.5626   0.4463   0.4463  -0.0000  -0.0000  -0.0000  -0.0000
    -0.0000  -0.0000  -0.0000  -0.0000  -0.0000  -0.0000

          k = 0.0000 0.4167 0.4167 (  9620 PWs)   bands (ev):

[...]
    12.1172  12.1172  12.1239  12.1239  12.4602  12.4602  12.4692  12.4692
    13.2032  13.2032  13.2078  13.2078  13.7311  13.7311  13.7447  13.7447
    14.3180  14.3180  14.3228  14.3228  14.7066  14.7066  14.7330  14.7330
    14.8545  14.8545  14.8933  14.8933  15.3745  15.3745  15.3857  15.3857
    16.4337  16.4337  16.4432  16.4432  17.0288  17.0321

     occupation numbers 
     1.0000   1.0000   1.0000   1.0000   1.0000   1.0000   1.0000   1.0000
     1.0000   1.0000   1.0000   1.0000   1.0000   1.0000   1.0000   1.0000
     1.0000   1.0000   1.0000   1.0000   1.0000   1.0000   1.0000   1.0000
     1.0000   1.0000   1.0000   1.0000   1.0000   1.0000   1.0000   1.0000
     1.0000   1.0000   1.0000   1.0000   1.0000   1.0000   1.0000   1.0000
     1.0000   1.0000   1.0000   1.0000   1.0000   1.0000   1.0000   1.0000
     1.0000   1.0000   1.0000   1.0000   1.0000   1.0000   1.0000   1.0000
     1.0000   1.0000   1.0000   1.0000   1.0000   1.0000   1.0000   1.0000
     1.0000   1.0000   1.0000   1.0000   1.0034   1.0034   1.0080   1.0080
     1.0088   1.0088   0.8853   0.8853  -0.0000  -0.0000  -0.0000  -0.0000
    -0.0000  -0.0000  -0.0000  -0.0000  -0.0000  -0.0000

          k =-0.2500 0.4167 0.3333 (  9646 PWs)   bands (ev):

   -56.4996 -56.4996 -56.4957 -56.4957 -56.4834 -56.4834 -56.4814 -56.4814
   -28.5795 -28.5765 -28.5717 -28.5705 -28.5439 -28.5419 -28.5323 -28.5307
   -27.6202 -27.6179 -27.5834 -27.5795 -27.5689 -27.5656 -27.5416 -27.5322
   -27.5242 -27.5115 -27.4833 -27.4759 -27.4593 -27.4547 -27.4356 -27.4332
     4.8890   4.8895   5.6569   5.6596   6.8104   6.8158   7.3892   7.3924
     8.9986   9.0029   9.5182   9.5230  10.7774  10.7806  11.2113  11.2131
    12.0004  12.0029  12.3391  12.3429  12.7068  12.7131  12.8287  12.8356
    13.1067  13.1144  13.1621  13.1739  13.4047  13.4125  13.5757  13.5862
    14.1364  14.1440  14.4442  14.4563  14.6830  14.6972  14.8319  14.8514
    14.9667  14.9783  15.1291  15.1624  15.2837  15.2918  15.4291  15.4423
    16.2778  16.2859  16.3853  16.3923  17.0192  17.0285

     occupation numbers 
     1.0000   1.0000   1.0000   1.0000   1.0000   1.0000   1.0000   1.0000
     1.0000   1.0000   1.0000   1.0000   1.0000   1.0000   1.0000   1.0000
     1.0000   1.0000   1.0000   1.0000   1.0000   1.0000   1.0000   1.0000
     1.0000   1.0000   1.0000   1.0000   1.0000   1.0000   1.0000   1.0000
     1.0000   1.0000   1.0000   1.0000   1.0000   1.0000   1.0000   1.0000
     1.0000   1.0000   1.0000   1.0000   1.0000   1.0000   1.0000   1.0000
     1.0000   1.0000   1.0000   1.0000   1.0000   1.0000   1.0000   1.0000
     1.0000   1.0000   1.0000   1.0000   1.0000   1.0000   1.0000   1.0000
     1.0000   1.0000   1.0000   1.0000   1.0014   1.0024   1.0323   1.0137
     0.3780   0.2939  -0.0213  -0.0096  -0.0001  -0.0000  -0.0000  -0.0000
    -0.0000  -0.0000  -0.0000  -0.0000  -0.0000  -0.0000

          k =-0.2500-0.5000 0.3333 (  9656 PWs)   bands (ev):

   -56.4975 -56.4975 -56.4975 -56.4975 -56.4826 -56.4826 -56.4826 -56.4826
   -28.5763 -28.5763 -28.5720 -28.5720 -28.5395 -28.5395 -28.5359 -28.5359
   -27.6176 -27.6176 -27.5828 -27.5828 -27.5674 -27.5674 -27.5375 -27.5375
   -27.5170 -27.5170 -27.4807 -27.4807 -27.4556 -27.4556 -27.4348 -27.4348
     5.2808   5.2808   5.2822   5.2822   7.0734   7.0734   7.0786   7.0786
     9.2473   9.2473   9.2518   9.2518  10.9386  10.9386  10.9412  10.9412
    12.1895  12.1895  12.1977  12.1977  12.7740  12.7740  12.7842  12.7842
    13.1170  13.1170  13.1282  13.1282  13.4998  13.4998  13.5102  13.5102
    14.3076  14.3076  14.3162  14.3162  14.7796  14.7796  14.7972  14.7972
    15.0295  15.0295  15.0547  15.0547  15.3552  15.3552  15.3703  15.3703
    16.3334  16.3334  16.3436  16.3436  17.0861  17.0873

     occupation numbers 
     1.0000   1.0000   1.0000   1.0000   1.0000   1.0000   1.0000   1.0000
     1.0000   1.0000   1.0000   1.0000   1.0000   1.0000   1.0000   1.0000
     1.0000   1.0000   1.0000   1.0000   1.0000   1.0000   1.0000   1.0000
     1.0000   1.0000   1.0000   1.0000   1.0000   1.0000   1.0000   1.0000
     1.0000   1.0000   1.0000   1.0000   1.0000   1.0000   1.0000   1.0000
     1.0000   1.0000   1.0000   1.0000   1.0000   1.0000   1.0000   1.0000
     1.0000   1.0000   1.0000   1.0000   1.0000   1.0000   1.0000   1.0000
     1.0000   1.0000   1.0000   1.0000   1.0000   1.0000   1.0000   1.0000
     1.0000   1.0000   1.0000   1.0000   1.0243   1.0243   1.0313   1.0313
     0.0324   0.0324  -0.0197  -0.0197  -0.0000  -0.0000  -0.0000  -0.0000
    -0.0000  -0.0000  -0.0000  -0.0000  -0.0000  -0.0000

          k =-0.2500-0.5000 0.4167 (  9646 PWs)   bands (ev):

   -56.4965 -56.4965 -56.4965 -56.4965 -56.4835 -56.4835 -56.4835 -56.4835
   -28.5730 -28.5730 -28.5703 -28.5703 -28.5418 -28.5418 -28.5395 -28.5395
   -27.6105 -27.6105 -27.5910 -27.5910 -27.5651 -27.5651 -27.5403 -27.5403
   -27.5126 -27.5126 -27.4854 -27.4854 -27.4505 -27.4505 -27.4375 -27.4375
     5.5375   5.5375   5.5393   5.5393   6.7778   6.7778   6.7821   6.7821
     9.3213   9.3213   9.3263   9.3263  10.6408  10.6408  10.6437  10.6437
    12.3613  12.3613  12.3697  12.3697  12.6609  12.6609  12.6704  12.6704
    13.1093  13.1093  13.1156  13.1156  13.5443  13.5443  13.5568  13.5568
    14.4439  14.4439  14.4505  14.4505  14.8160  14.8160  14.8424  14.8424
    14.9537  14.9537  14.9914  14.9914  15.3189  15.3189  15.3305  15.3305
    16.3804  16.3805  16.3889  16.3889  16.9292  16.9313

     occupation numbers 
     1.0000   1.0000   1.0000   1.0000   1.0000   1.0000   1.0000   1.0000
     1.0000   1.0000   1.0000   1.0000   1.0000   1.0000   1.0000   1.0000
     1.0000   1.0000   1.0000   1.0000   1.0000   1.0000   1.0000   1.0000
     1.0000   1.0000   1.0000   1.0000   1.0000   1.0000   1.0000   1.0000
     1.0000   1.0000   1.0000   1.0000   1.0000   1.0000   1.0000   1.0000
     1.0000   1.0000   1.0000   1.0000   1.0000   1.0000   1.0000   1.0000
     1.0000   1.0000   1.0000   1.0000   1.0000   1.0000   1.0000   1.0000
     1.0000   1.0000   1.0000   1.0000   1.0000   1.0000   1.0000   1.0000
     1.0000   1.0000   1.0000   1.0000   1.0354   1.0354   1.0248   1.0248
     0.4778   0.4778   0.2075   0.2075  -0.0000  -0.0000  -0.0000  -0.0000
    -0.0000  -0.0000  -0.0000  -0.0000  -0.0000  -0.0000

          k =-0.3333-0.5000 0.4167 (  9664 PWs)   bands (ev):

   -56.4948 -56.4948 -56.4948 -56.4948 -56.4852 -56.4852 -56.4852 -56.4852
   -28.5693 -28.5693 -28.5667 -28.5667 -28.5460 -28.5460 -28.5437 -28.5437
   -27.6060 -27.6060 -27.5883 -27.5883 -27.5733 -27.5733 -27.5447 -27.5447
   -27.5063 -27.5063 -27.4766 -27.4766 -27.4554 -27.4554 -27.4417 -27.4417
     5.7602   5.7602   5.7627   5.7627   6.7872   6.7872   6.7927   6.7927
     9.0480   9.0480   9.0543   9.0543  10.2140  10.2140  10.2176  10.2176
    12.5359  12.5359  12.5438  12.5438  12.8187  12.8187  12.8269  12.8269
    13.0616  13.0616  13.0712  13.0712  13.3558  13.3558  13.3663  13.3663
    14.5887  14.5887  14.5955  14.5955  14.9403  14.9403  14.9676  14.9676
    15.0538  15.0538  15.0883  15.0883  15.2574  15.2574  15.2759  15.2759
    16.3424  16.3424  16.3506  16.3506  16.7818  16.7870

     occupation numbers 
     1.0000   1.0000   1.0000   1.0000   1.0000   1.0000   1.0000   1.0000
     1.0000   1.0000   1.0000   1.0000   1.0000   1.0000   1.0000   1.0000
     1.0000   1.0000   1.0000   1.0000   1.0000   1.0000   1.0000   1.0000
     1.0000   1.0000   1.0000   1.0000   1.0000   1.0000   1.0000   1.0000
     1.0000   1.0000   1.0000   1.0000   1.0000   1.0000   1.0000   1.0000
     1.0000   1.0000   1.0000   1.0000   1.0000   1.0000   1.0000   1.0000
     1.0000   1.0000   1.0000   1.0000   1.0000   1.0000   1.0000   1.0000
     1.0000   1.0000   1.0000   1.0000   1.0000   1.0000   1.0000   1.0000
     1.0000   1.0000   1.0000   1.0000   0.5815   0.5815   0.3713   0.3713
    -0.0186  -0.0186  -0.0352  -0.0352  -0.0003  -0.0003  -0.0001  -0.0001
    -0.0000  -0.0000  -0.0000  -0.0000  -0.0000  -0.0000

     the Fermi energy is    14.9508 ev

!    total energy              =   -1180.35039818 Ry

     total all-electron energy =    -10727.811235 Ry
     estimated scf accuracy    <       0.00000003 Ry
     smearing contrib. (-TS)   =      -0.00003011 Ry
     internal energy E=F+TS    =   -1180.35036806 Ry

     The total energy is F=E-TS. E is the sum of the following terms:
     one-electron contribution =    -336.78689625 Ry
     hartree contribution      =     207.03016767 Ry
     xc contribution           =    -114.36085217 Ry
     ewald contribution        =    -496.51183961 Ry
     one-center paw contrib.   =    -439.72094770 Ry
      -> PAW hartree energy AE =     126.71069740 Ry
      -> PAW hartree energy PS =    -125.74336730 Ry
      -> PAW xc energy AE      =     -96.23934112 Ry
      -> PAW xc energy PS      =      20.93199388 Ry
      -> total E_H with PAW    =     207.99749778 Ry
      -> total E_XC with PAW   =    -189.66819941 Ry

     convergence has been achieved in   8 iterations

     Forces acting on atoms (cartesian axes, Ry/au):

     atom    1 type  1   force =    -0.00270319   -0.00270319    0.00270319
     atom    2 type  1   force =    -0.00270319    0.00270319   -0.00270319
     atom    3 type  1   force =     0.00270319   -0.00270319   -0.00270319
     atom    4 type  1   force =     0.00270319    0.00270319    0.00270319
     atom    5 type  2   force =    -0.00432065   -0.00432065    0.00432065
     atom    6 type  2   force =    -0.00432065    0.00432065   -0.00432065
     atom    7 type  2   force =     0.00432065   -0.00432065   -0.00432065
     atom    8 type  2   force =     0.00432065    0.00432065    0.00432065
     The non-local contrib.  to forces
     atom    1 type  1   force =     0.05128517    0.05128517   -0.05128517
     atom    2 type  1   force =     0.05128517   -0.05128517    0.05128517
     atom    3 type  1   force =    -0.05128517    0.05128517    0.05128517
     atom    4 type  1   force =    -0.05128517   -0.05128517   -0.05128517
     atom    5 type  2   force =    -0.00806559   -0.00806559    0.00806559
     atom    6 type  2   force =    -0.00806559    0.00806559   -0.00806559
     atom    7 type  2   force =     0.00806559   -0.00806559   -0.00806559
     atom    8 type  2   force =     0.00806559    0.00806559    0.00806559
     The ionic contribution  to forces
     atom    1 type  1   force =    -0.85044630   -0.85044630    0.85044630
     atom    2 type  1   force =    -0.85044630    0.85044630   -0.85044630
     atom    3 type  1   force =     0.85044630   -0.85044630   -0.85044630
     atom    4 type  1   force =     0.85044630    0.85044630    0.85044630
     atom    5 type  2   force =    -0.24524978   -0.24524978    0.24524978
     atom    6 type  2   force =    -0.24524978    0.24524978   -0.24524978
     atom    7 type  2   force =     0.24524978   -0.24524978   -0.24524978
     atom    8 type  2   force =     0.24524978    0.24524978    0.24524978
     The local contribution  to forces
     atom    1 type  1   force =     0.79744692    0.79744692   -0.79744692
     atom    2 type  1   force =     0.79744692   -0.79744692    0.79744692
     atom    3 type  1   force =    -0.79744692    0.79744692    0.79744692
     atom    4 type  1   force =    -0.79744692   -0.79744692   -0.79744692
     atom    5 type  2   force =     0.24820383    0.24820383   -0.24820383
     atom    6 type  2   force =     0.24820383   -0.24820383    0.24820383
     atom    7 type  2   force =    -0.24820383    0.24820383    0.24820383
     atom    8 type  2   force =    -0.24820383   -0.24820383   -0.24820383
     The core correction contribution to forces
     atom    1 type  1   force =    -0.00103255   -0.00103255    0.00103255
     atom    2 type  1   force =    -0.00103255    0.00103255   -0.00103255
     atom    3 type  1   force =     0.00103255   -0.00103255   -0.00103255
     atom    4 type  1   force =     0.00103255    0.00103255    0.00103255
     atom    5 type  2   force =     0.00079483    0.00079483   -0.00079483
     atom    6 type  2   force =     0.00079483   -0.00079483    0.00079483
     atom    7 type  2   force =    -0.00079483    0.00079483    0.00079483
     atom    8 type  2   force =    -0.00079483   -0.00079483   -0.00079483
     The Hubbard contrib.    to forces
     atom    1 type  1   force =     0.00000000    0.00000000    0.00000000
     atom    2 type  1   force =     0.00000000    0.00000000    0.00000000
     atom    3 type  1   force =     0.00000000    0.00000000    0.00000000
     atom    4 type  1   force =     0.00000000    0.00000000    0.00000000
     atom    5 type  2   force =     0.00000000    0.00000000    0.00000000
     atom    6 type  2   force =     0.00000000    0.00000000    0.00000000
     atom    7 type  2   force =     0.00000000    0.00000000    0.00000000
     atom    8 type  2   force =     0.00000000    0.00000000    0.00000000
     The SCF correction term to forces
     atom    1 type  1   force =     0.00004356    0.00004356   -0.00004356
     atom    2 type  1   force =     0.00004356   -0.00004356    0.00004356
     atom    3 type  1   force =    -0.00004356    0.00004356    0.00004356
     atom    4 type  1   force =    -0.00004356   -0.00004356   -0.00004356
     atom    5 type  2   force =    -0.00000395   -0.00000395    0.00000395
     atom    6 type  2   force =    -0.00000395    0.00000395   -0.00000395
     atom    7 type  2   force =     0.00000395   -0.00000395   -0.00000395
     atom    8 type  2   force =     0.00000395    0.00000395    0.00000395

     Total force =     0.017655     Total SCF correction =     0.000152


     Computing stress (Cartesian axis) and pressure

          total   stress  (Ry/bohr**3)                   (kbar)     P=      -43.25
  -0.00029402   0.00000000   0.00000000          -43.25        0.00        0.00
   0.00000000  -0.00029402   0.00000000            0.00      -43.25        0.00
   0.00000000   0.00000000  -0.00029402            0.00        0.00      -43.25

     kinetic stress (kbar)  35759.53      0.00      0.00
                                0.00  35759.53      0.00
                                0.00      0.00  35759.53

     local   stress (kbar) -10012.03     -0.00     -0.00
                               -0.00 -10012.03     -0.00
                               -0.00     -0.00 -10012.03

     nonloc. stress (kbar)   2426.67      0.00      0.00
                                0.00   2426.67      0.00
                                0.00      0.00   2426.67

     hartree stress (kbar)  15166.38     -0.00      0.00
                               -0.00  15166.38      0.00
                                0.00      0.00  15166.38

     exc-cor stress (kbar)  -1706.52     -0.00     -0.00
                               -0.00  -1706.52     -0.00
                               -0.00     -0.00  -1706.52

     corecor stress (kbar)  -5304.38      0.00     -0.00
                                0.00  -5304.38     -0.00
                               -0.00     -0.00  -5304.38

     ewald   stress (kbar) -36372.90      0.00      0.00
                                0.00 -36372.90      0.00
                                0.00      0.00 -36372.90

     hubbard stress (kbar)      0.00      0.00      0.00
                                0.00      0.00      0.00
                                0.00      0.00      0.00

     DFT-D   stress (kbar)      0.00      0.00      0.00
                                0.00      0.00      0.00
                                0.00      0.00      0.00

     XDM     stress (kbar)      0.00      0.00      0.00
                                0.00      0.00      0.00
                                0.00      0.00      0.00

     dft-nl  stress (kbar)      0.00      0.00      0.00
                                0.00      0.00      0.00
                                0.00      0.00      0.00

     TS-vdW  stress (kbar)      0.00      0.00      0.00
                                0.00      0.00      0.00
                                0.00      0.00      0.00



     Writing output data file /zfs_data/vergnior/martin/Scratch/OAL/CrSi/convergence/smearing/12x12x12/0.008/tmp/CrSi.save/
 
     init_run     :     23.51s CPU     24.37s WALL (       1 calls)
     electrons    :    717.42s CPU    730.21s WALL (       1 calls)
     forces       :     17.24s CPU     17.35s WALL (       1 calls)
     stress       :     42.46s CPU     42.77s WALL (       1 calls)

     Called by init_run:
     wfcinit      :     22.01s CPU     22.57s WALL (       1 calls)
     wfcinit:atom :      0.19s CPU      0.19s WALL (     119 calls)
     wfcinit:wfcr :     21.01s CPU     21.56s WALL (     119 calls)
     potinit      :      0.23s CPU      0.39s WALL (       1 calls)
     hinit0       :      0.20s CPU      0.21s WALL (       1 calls)

     Called by electrons:
     c_bands      :    585.45s CPU    594.60s WALL (       9 calls)
     sum_band     :    125.73s CPU    128.60s WALL (       9 calls)
     v_of_rho     :      0.27s CPU      0.29s WALL (       9 calls)
     v_h          :      0.02s CPU      0.02s WALL (       9 calls)
     v_xc         :      0.29s CPU      0.30s WALL (      11 calls)
     newd         :      5.14s CPU      5.92s WALL (       9 calls)
     PAW_pot      :      1.31s CPU      1.40s WALL (       9 calls)
     mix_rho      :      0.17s CPU      0.17s WALL (       9 calls)

     Called by c_bands:
     init_us_2    :      3.41s CPU      3.46s WALL (    2499 calls)
     cegterg      :    538.00s CPU    546.68s WALL (    1071 calls)

     Called by sum_band:
     sum_band:wei :      0.15s CPU      0.17s WALL (       9 calls)
     sum_band:loo :    121.62s CPU    123.51s WALL (       9 calls)
     sum_band:buf :      0.96s CPU      1.13s WALL (    1071 calls)
     sum_band:ini :      1.55s CPU      1.57s WALL (    1071 calls)
     sum_band:cal :      8.20s CPU      8.23s WALL (    1071 calls)
     sum_band:bec :     15.76s CPU     15.81s WALL (    1071 calls)
     addusdens    :      3.69s CPU      4.65s WALL (       9 calls)
     addusd:skk   :      0.01s CPU      0.01s WALL (      18 calls)
     addusd:dgemm :      1.41s CPU      2.34s WALL (      18 calls)
     addusd:qvan2 :      2.23s CPU      2.24s WALL (      18 calls)

     Called by *egterg:
     cdiaghg      :     47.00s CPU     47.22s WALL (    5715 calls)
     cegterg:over :     30.63s CPU     30.78s WALL (    4763 calls)
     cegterg:upda :     14.35s CPU     14.42s WALL (    4763 calls)
     cegterg:last :     25.49s CPU     25.60s WALL (    2779 calls)
     h_psi        :    375.68s CPU    384.11s WALL (    5953 calls)
     s_psi        :     50.80s CPU     51.02s WALL (    5953 calls)
     g_psi        :      0.88s CPU      0.89s WALL (    4763 calls)

     Called by h_psi:
     h_psi:calbec :     26.46s CPU     26.64s WALL (    5953 calls)
     vloc_psi     :    300.66s CPU    308.59s WALL (    5953 calls)
     add_vuspsi   :     46.55s CPU     46.84s WALL (    5953 calls)

     General routines
     calbec       :     37.44s CPU     37.69s WALL (    7619 calls)
     fft          :      0.29s CPU      0.29s WALL (     216 calls)
     ffts         :      0.04s CPU      0.13s WALL (      72 calls)
     fftw         :    247.94s CPU    254.22s WALL ( 1397336 calls)
     interpolate  :      0.08s CPU      0.17s WALL (      36 calls)
 
     Parallel routines
     fft_scatt_xy :     24.99s CPU     25.64s WALL ( 1397624 calls)
     fft_scatt_yz :     93.76s CPU     95.99s WALL ( 1397624 calls)

     PAW routines
     PAW_pot      :      1.31s CPU      1.40s WALL (       9 calls)
     PAW_symme    :      0.02s CPU      0.02s WALL (      18 calls)
 
     PWSCF        :  13m25.35s CPU  13m44.08s WALL

 
   This run was terminated on:  12:52:30   1Aug2021            

=------------------------------------------------------------------------------=
   JOB DONE.
=------------------------------------------------------------------------------=
