MPI startup(): Warning: I_MPI_PMI_LIBRARY will be ignored since the hydra process manager was found
MPI startup(): Warning: I_MPI_PMI_LIBRARY will be ignored since the hydra process manager was found
MPI startup(): Warning: I_MPI_PMI_LIBRARY will be ignored since the hydra process manager was found
MPI startup(): Warning: I_MPI_PMI_LIBRARY will be ignored since the hydra process manager was found
MPI startup(): Warning: I_MPI_PMI_LIBRARY will be ignored since the hydra process manager was found
MPI startup(): Warning: I_MPI_PMI_LIBRARY will be ignored since the hydra process manager was found
MPI startup(): Warning: I_MPI_PMI_LIBRARY will be ignored since the hydra process manager was found
MPI startup(): Warning: I_MPI_PMI_LIBRARY will be ignored since the hydra process manager was found
MPI startup(): Warning: I_MPI_PMI_LIBRARY will be ignored since the hydra process manager was found
MPI startup(): Warning: I_MPI_PMI_LIBRARY will be ignored since the hydra process manager was found
MPI startup(): Warning: I_MPI_PMI_LIBRARY will be ignored since the hydra process manager was found
MPI startup(): Warning: I_MPI_PMI_LIBRARY will be ignored since the hydra process manager was found
MPI startup(): Warning: I_MPI_PMI_LIBRARY will be ignored since the hydra process manager was found
MPI startup(): Warning: I_MPI_PMI_LIBRARY will be ignored since the hydra process manager was found
MPI startup(): Warning: I_MPI_PMI_LIBRARY will be ignored since the hydra process manager was found
MPI startup(): Warning: I_MPI_PMI_LIBRARY will be ignored since the hydra process manager was found
MPI startup(): Warning: I_MPI_PMI_LIBRARY will be ignored since the hydra process manager was found
MPI startup(): Warning: I_MPI_PMI_LIBRARY will be ignored since the hydra process manager was found
MPI startup(): Warning: I_MPI_PMI_LIBRARY will be ignored since the hydra process manager was found
MPI startup(): Warning: I_MPI_PMI_LIBRARY will be ignored since the hydra process manager was found
MPI startup(): Warning: I_MPI_PMI_LIBRARY will be ignored since the hydra process manager was found
MPI startup(): Warning: I_MPI_PMI_LIBRARY will be ignored since the hydra process manager was found
MPI startup(): Warning: I_MPI_PMI_LIBRARY will be ignored since the hydra process manager was found
MPI startup(): Warning: I_MPI_PMI_LIBRARY will be ignored since the hydra process manager was found

     Program PWSCF v.6.7MaX starts on  1Aug2021 at 12:44:21 

     This program is part of the open-source Quantum ESPRESSO suite
     for quantum simulation of materials; please cite
         "P. Giannozzi et al., J. Phys.:Condens. Matter 21 395502 (2009);
         "P. Giannozzi et al., J. Phys.:Condens. Matter 29 465901 (2017);
          URL http://www.quantum-espresso.org", 
     in publications or presentations arising from this work. More details at
     http://www.quantum-espresso.org/quote

     Parallel version (MPI), running on    24 processors

     MPI processes distributed on     1 nodes
     R & G space division:  proc/nbgrp/npool/nimage =      24
     Waiting for input...
     Reading input from standard input

     Current dimensions of program PWSCF are:
     Max number of different atomic species (ntypx) = 10
     Max number of k-points (npk) =  40000
     Max angular momentum in pseudopotentials (lmaxx) =  3
     file Cr.rel-pbe-spn-kjpaw_psl.1.0.0.UPF: wavefunction(s)  3S 3P 3P 3D 3D renormalized
     file Si.rel-pbe-n-kjpaw_psl.1.0.0.UPF: wavefunction(s)  3S 3P 3P renormalized

     Subspace diagonalization in iterative solution of the eigenvalue problem:
     a serial algorithm will be used

     Message from routine setup:
     using ibrav=0 with symmetry is DISCOURAGED, use correct ibrav instead
 
     Parallelization info
     --------------------
     sticks:   dense  smooth     PW     G-vecs:    dense   smooth      PW
     Min         228      91     25                12702     3210     487
     Max         229      93     26                12704     3214     492
     Sum        5473    2201    621               304867    77053   11753
 


     bravais-lattice index     =            0
     lattice parameter (alat)  =       8.7475  a.u.
     unit-cell volume          =     669.3575 (a.u.)^3
     number of atoms/cell      =            8
     number of atomic types    =            2
     number of electrons       =        72.00
     number of Kohn-Sham states=           86
     kinetic-energy cutoff     =      90.0000  Ry
     charge density cutoff     =     900.0000  Ry
     scf convergence threshold =      1.0E-06
     mixing beta               =       0.7000
     number of iterations used =            8  plain     mixing
     Exchange-correlation= SLA  PW   PBX  PBC
                           (   1   4   3   4   0   0   0)
     Non magnetic calculation with spin-orbit


     celldm(1)=   8.747542  celldm(2)=   0.000000  celldm(3)=   0.000000
     celldm(4)=   0.000000  celldm(5)=   0.000000  celldm(6)=   0.000000

     crystal axes: (cart. coord. in units of alat)
               a(1) = (   1.000000   0.000000   0.000000 )  
               a(2) = (   0.000000   1.000000   0.000000 )  
               a(3) = (   0.000000   0.000000   1.000000 )  

     reciprocal axes: (cart. coord. in units 2 pi/alat)
               b(1) = (  1.000000  0.000000  0.000000 )  
               b(2) = (  0.000000  1.000000  0.000000 )  
               b(3) = (  0.000000  0.000000  1.000000 )  


     PseudoPot. # 1 for Cr read from file:
     ../../../../pseudo/Cr.rel-pbe-spn-kjpaw_psl.1.0.0.UPF
     MD5 check sum: 1e24e2b5251376a8b945118fca0c7981
     Pseudo is Projector augmented-wave + core cor, Zval = 14.0
     Generated using &quot;atomic&quot; code by A. Dal Corso  v.6.3
     Shape of augmentation charge: PSQ
     Using radial grid of 1183 points, 10 beta functions with: 
                l(1) =   0
                l(2) =   0
                l(3) =   1
                l(4) =   1
                l(5) =   1
                l(6) =   1
                l(7) =   2
                l(8) =   2
                l(9) =   2
               l(10) =   2
     Q(r) pseudized with 0 coefficients 


     PseudoPot. # 2 for Si read from file:
     ../../../../pseudo/Si.rel-pbe-n-kjpaw_psl.1.0.0.UPF
     MD5 check sum: d74f6caf6830ea4c2076867160cab1b0
     Pseudo is Projector augmented-wave + core cor, Zval =  4.0
     Generated using &quot;atomic&quot; code by A. Dal Corso  v.6.3
     Shape of augmentation charge: PSQ
     Using radial grid of 1141 points, 10 beta functions with: 
                l(1) =   0
                l(2) =   0
                l(3) =   1
                l(4) =   1
                l(5) =   1
                l(6) =   1
                l(7) =   2
                l(8) =   2
                l(9) =   2
               l(10) =   2
     Q(r) pseudized with 0 coefficients 


     atomic species   valence    mass     pseudopotential
        Cr            14.00    51.99600     Cr( 1.00)
        Si             4.00    28.08500     Si( 1.00)

     12 Sym. Ops. (no inversion) found ( 9 have fractional translation)


                                    s                        frac. trans.

      isym =  1     identity                                     

 cryst.   s( 1) = (     1          0          0      )
                  (     0          1          0      )
                  (     0          0          1      )

 cart.    s( 1) = (  1.0000000  0.0000000  0.0000000 )
                  (  0.0000000  1.0000000  0.0000000 )
                  (  0.0000000  0.0000000  1.0000000 )


      isym =  2     180 deg rotation - cart. axis [0,0,1]        

 cryst.   s( 2) = (    -1          0          0      )    f =(  0.5000000 )
                  (     0         -1          0      )       (  0.0000000 )
                  (     0          0          1      )       ( -0.5000000 )

 cart.    s( 2) = ( -1.0000000  0.0000000  0.0000000 )    f =(  0.5000000 )
                  (  0.0000000 -1.0000000  0.0000000 )       (  0.0000000 )
                  (  0.0000000  0.0000000  1.0000000 )       ( -0.5000000 )


      isym =  3     180 deg rotation - cart. axis [0,1,0]        

 cryst.   s( 3) = (    -1          0          0      )    f =(  0.0000000 )
                  (     0          1          0      )       ( -0.5000000 )
                  (     0          0         -1      )       (  0.5000000 )

 cart.    s( 3) = ( -1.0000000  0.0000000  0.0000000 )    f =(  0.0000000 )
                  (  0.0000000  1.0000000  0.0000000 )       ( -0.5000000 )
                  (  0.0000000  0.0000000 -1.0000000 )       (  0.5000000 )


      isym =  4     180 deg rotation - cart. axis [1,0,0]        

 cryst.   s( 4) = (     1          0          0      )    f =(  0.5000000 )
                  (     0         -1          0      )       (  0.5000000 )
                  (     0          0         -1      )       (  0.0000000 )

 cart.    s( 4) = (  1.0000000  0.0000000  0.0000000 )    f =(  0.5000000 )
                  (  0.0000000 -1.0000000  0.0000000 )       (  0.5000000 )
                  (  0.0000000  0.0000000 -1.0000000 )       (  0.0000000 )


      isym =  5     120 deg rotation - cart. axis [-1,-1,-1]     

 cryst.   s( 5) = (     0          0          1      )
                  (     1          0          0      )
                  (     0          1          0      )

 cart.    s( 5) = (  0.0000000  1.0000000  0.0000000 )
                  (  0.0000000  0.0000000  1.0000000 )
                  (  1.0000000  0.0000000  0.0000000 )


      isym =  6     120 deg rotation - cart. axis [-1,1,1]       

 cryst.   s( 6) = (     0          0         -1      )    f =(  0.0000000 )
                  (    -1          0          0      )       ( -0.5000000 )
                  (     0          1          0      )       (  0.5000000 )

 cart.    s( 6) = (  0.0000000 -1.0000000  0.0000000 )    f =(  0.0000000 )
                  (  0.0000000  0.0000000  1.0000000 )       ( -0.5000000 )
                  ( -1.0000000  0.0000000  0.0000000 )       (  0.5000000 )


      isym =  7     120 deg rotation - cart. axis [1,1,-1]       

 cryst.   s( 7) = (     0          0         -1      )    f =(  0.5000000 )
                  (     1          0          0      )       (  0.5000000 )
                  (     0         -1          0      )       (  0.0000000 )

 cart.    s( 7) = (  0.0000000  1.0000000  0.0000000 )    f =(  0.5000000 )
                  (  0.0000000  0.0000000 -1.0000000 )       (  0.5000000 )
                  ( -1.0000000  0.0000000  0.0000000 )       (  0.0000000 )


      isym =  8     120 deg rotation - cart. axis [1,-1,1]       

 cryst.   s( 8) = (     0          0          1      )    f =(  0.5000000 )
                  (    -1          0          0      )       (  0.0000000 )
                  (     0         -1          0      )       ( -0.5000000 )

 cart.    s( 8) = (  0.0000000 -1.0000000  0.0000000 )    f =(  0.5000000 )
                  (  0.0000000  0.0000000 -1.0000000 )       (  0.0000000 )
                  (  1.0000000  0.0000000  0.0000000 )       ( -0.5000000 )


      isym =  9     120 deg rotation - cart. axis [1,1,1]        

 cryst.   s( 9) = (     0          1          0      )
                  (     0          0          1      )
                  (     1          0          0      )

 cart.    s( 9) = (  0.0000000  0.0000000  1.0000000 )
                  (  1.0000000  0.0000000  0.0000000 )
                  (  0.0000000  1.0000000  0.0000000 )


      isym = 10     120 deg rotation - cart. axis [-1,1,-1]      

 cryst.   s(10) = (     0         -1          0      )    f =(  0.5000000 )
                  (     0          0         -1      )       (  0.5000000 )
                  (     1          0          0      )       (  0.0000000 )

 cart.    s(10) = (  0.0000000  0.0000000  1.0000000 )    f =(  0.5000000 )
                  ( -1.0000000  0.0000000  0.0000000 )       (  0.5000000 )
                  (  0.0000000 -1.0000000  0.0000000 )       (  0.0000000 )


      isym = 11     120 deg rotation - cart. axis [1,-1,-1]      

 cryst.   s(11) = (     0         -1          0      )    f =(  0.5000000 )
                  (     0          0          1      )       (  0.0000000 )
                  (    -1          0          0      )       ( -0.5000000 )

 cart.    s(11) = (  0.0000000  0.0000000 -1.0000000 )    f =(  0.5000000 )
                  ( -1.0000000  0.0000000  0.0000000 )       (  0.0000000 )
                  (  0.0000000  1.0000000  0.0000000 )       ( -0.5000000 )


      isym = 12     120 deg rotation - cart. axis [-1,-1,1]      

 cryst.   s(12) = (     0          1          0      )    f =(  0.0000000 )
                  (     0          0         -1      )       ( -0.5000000 )
                  (    -1          0          0      )       (  0.5000000 )

 cart.    s(12) = (  0.0000000  0.0000000 -1.0000000 )    f =(  0.0000000 )
                  (  1.0000000  0.0000000  0.0000000 )       ( -0.5000000 )
                  (  0.0000000 -1.0000000  0.0000000 )       (  0.5000000 )


   Cartesian axes

     site n.     atom                  positions (alat units)
         1           Cr  tau(   1) = (   0.8640000   0.3640000   0.1360000  )
         2           Cr  tau(   2) = (   0.3640000   0.1360000   0.8640000  )
         3           Cr  tau(   3) = (   0.1360000   0.8640000   0.3640000  )
         4           Cr  tau(   4) = (   0.6360000   0.6360000   0.6360000  )
         5           Si  tau(   5) = (   0.1540000   0.6540000   0.8460000  )
         6           Si  tau(   6) = (   0.6540000   0.8460000   0.1540000  )
         7           Si  tau(   7) = (   0.8460000   0.1540000   0.6540000  )
         8           Si  tau(   8) = (   0.3460000   0.3460000   0.3460000  )

   Crystallographic axes

     site n.     atom                  positions (cryst. coord.)
         1           Cr  tau(   1) = (  0.8640000  0.3640000  0.1360000  )
         2           Cr  tau(   2) = (  0.3640000  0.1360000  0.8640000  )
         3           Cr  tau(   3) = (  0.1360000  0.8640000  0.3640000  )
         4           Cr  tau(   4) = (  0.6360000  0.6360000  0.6360000  )
         5           Si  tau(   5) = (  0.1540000  0.6540000  0.8460000  )
         6           Si  tau(   6) = (  0.6540000  0.8460000  0.1540000  )
         7           Si  tau(   7) = (  0.8460000  0.1540000  0.6540000  )
         8           Si  tau(   8) = (  0.3460000  0.3460000  0.3460000  )

     number of k points=    24  Methfessel-Paxton smearing, width (Ry)=  0.0180
                       cart. coord. in units 2pi/alat
        k(    1) = (   0.0000000   0.0000000   0.0000000), wk =   0.0046296
        k(    2) = (   0.0000000   0.0000000   0.1666667), wk =   0.0277778
        k(    3) = (   0.0000000   0.0000000   0.3333333), wk =   0.0277778
        k(    4) = (   0.0000000   0.0000000  -0.5000000), wk =   0.0138889
        k(    5) = (   0.0000000   0.1666667   0.1666667), wk =   0.0555556
        k(    6) = (   0.0000000   0.1666667   0.3333333), wk =   0.0555556
        k(    7) = (   0.0000000   0.1666667  -0.5000000), wk =   0.0277778
        k(    8) = (   0.0000000   0.3333333   0.3333333), wk =   0.0555556
        k(    9) = (   0.0000000   0.3333333  -0.5000000), wk =   0.0277778
        k(   10) = (   0.0000000  -0.5000000  -0.5000000), wk =   0.0138889
        k(   11) = (   0.1666667   0.1666667   0.1666667), wk =   0.0370370
        k(   12) = (   0.1666667   0.1666667   0.3333333), wk =   0.1111111
        k(   13) = (   0.1666667   0.1666667  -0.5000000), wk =   0.0555556
        k(   14) = (   0.1666667   0.3333333   0.3333333), wk =   0.1111111
        k(   15) = (   0.1666667   0.3333333  -0.5000000), wk =   0.0555556
        k(   16) = (   0.1666667  -0.5000000  -0.5000000), wk =   0.0277778
        k(   17) = (   0.3333333   0.3333333   0.3333333), wk =   0.0370370
        k(   18) = (   0.3333333   0.3333333  -0.5000000), wk =   0.0555556
        k(   19) = (   0.3333333  -0.5000000  -0.5000000), wk =   0.0277778
        k(   20) = (  -0.5000000  -0.5000000  -0.5000000), wk =   0.0046296
        k(   21) = (   0.0000000   0.3333333   0.1666667), wk =   0.0555556
        k(   22) = (   0.0000000  -0.5000000   0.1666667), wk =   0.0277778
        k(   23) = (   0.0000000  -0.5000000   0.3333333), wk =   0.0277778
        k(   24) = (  -0.1666667  -0.5000000   0.3333333), wk =   0.0555556

                       cryst. coord.
        k(    1) = (   0.0000000   0.0000000   0.0000000), wk =   0.0046296
        k(    2) = (   0.0000000   0.0000000   0.1666667), wk =   0.0277778
        k(    3) = (   0.0000000   0.0000000   0.3333333), wk =   0.0277778
        k(    4) = (   0.0000000   0.0000000  -0.5000000), wk =   0.0138889
        k(    5) = (   0.0000000   0.1666667   0.1666667), wk =   0.0555556
        k(    6) = (   0.0000000   0.1666667   0.3333333), wk =   0.0555556
        k(    7) = (   0.0000000   0.1666667  -0.5000000), wk =   0.0277778
        k(    8) = (   0.0000000   0.3333333   0.3333333), wk =   0.0555556
        k(    9) = (   0.0000000   0.3333333  -0.5000000), wk =   0.0277778
        k(   10) = (   0.0000000  -0.5000000  -0.5000000), wk =   0.0138889
        k(   11) = (   0.1666667   0.1666667   0.1666667), wk =   0.0370370
        k(   12) = (   0.1666667   0.1666667   0.3333333), wk =   0.1111111
        k(   13) = (   0.1666667   0.1666667  -0.5000000), wk =   0.0555556
        k(   14) = (   0.1666667   0.3333333   0.3333333), wk =   0.1111111
        k(   15) = (   0.1666667   0.3333333  -0.5000000), wk =   0.0555556
        k(   16) = (   0.1666667  -0.5000000  -0.5000000), wk =   0.0277778
        k(   17) = (   0.3333333   0.3333333   0.3333333), wk =   0.0370370
        k(   18) = (   0.3333333   0.3333333  -0.5000000), wk =   0.0555556
        k(   19) = (   0.3333333  -0.5000000  -0.5000000), wk =   0.0277778
        k(   20) = (  -0.5000000  -0.5000000  -0.5000000), wk =   0.0046296
        k(   21) = (   0.0000000   0.3333333   0.1666667), wk =   0.0555556
        k(   22) = (   0.0000000  -0.5000000   0.1666667), wk =   0.0277778
        k(   23) = (   0.0000000  -0.5000000   0.3333333), wk =   0.0277778
        k(   24) = (  -0.1666667  -0.5000000   0.3333333), wk =   0.0555556

     Dense  grid:   304867 G-vectors     FFT dimensions: (  90,  90,  90)

     Smooth grid:    77053 G-vectors     FFT dimensions: (  54,  54,  54)

     Dynamical RAM for                 wfc:       1.06 MB

     Dynamical RAM for     wfc (w. buffer):      26.38 MB

     Dynamical RAM for           str. fact:       0.39 MB

     Dynamical RAM for           local pot:       0.00 MB

     Dynamical RAM for          nlocal pot:       1.67 MB

     Dynamical RAM for                qrad:      12.61 MB

     Dynamical RAM for          rho,v,vnew:       5.29 MB

     Dynamical RAM for               rhoin:       1.76 MB

     Dynamical RAM for            rho*nmix:      12.41 MB

     Dynamical RAM for           G-vectors:       0.75 MB

     Dynamical RAM for          h,s,v(r/c):       1.35 MB

     Dynamical RAM for          <psi|beta>:       0.71 MB

     Dynamical RAM for                 psi:       2.11 MB

     Dynamical RAM for                hpsi:       2.11 MB

     Dynamical RAM for                spsi:       2.11 MB

     Dynamical RAM for      wfcinit/wfcrot:       2.35 MB

     Dynamical RAM for           addusdens:     119.02 MB

     Dynamical RAM for          addusforce:     120.34 MB

     Dynamical RAM for         addusstress:     121.74 MB

     Estimated static dynamical RAM per process >      63.81 MB

     Estimated max dynamical RAM per process >     185.55 MB

     Estimated total dynamical RAM >       4.35 GB

     Initial potential from superposition of free atoms

     starting charge   71.99469, renormalised to   72.00000
     Starting wfcs are  112 randomized atomic wfcs
     Checking if some PAW data can be deallocated... 
       PAW data deallocated on   12 nodes for type:  1
       PAW data deallocated on   12 nodes for type:  2

     total cpu time spent up to now is        7.3 secs

     Self-consistent Calculation

     iteration #  1     ecut=    90.00 Ry     beta= 0.70
     Davidson diagonalization with overlap
     ethr =  1.00E-02,  avg # of iterations =  2.0

     Threshold (ethr) on eigenvalues was too large:
     Diagonalizing with lowered threshold

     Davidson diagonalization with overlap
     ethr =  2.09E-04,  avg # of iterations =  4.5

     total cpu time spent up to now is       31.1 secs

     total energy              =   -1180.30969005 Ry
     estimated scf accuracy    <       0.18819909 Ry

     iteration #  2     ecut=    90.00 Ry     beta= 0.70
     Davidson diagonalization with overlap
     ethr =  2.61E-04,  avg # of iterations =  3.1

     total cpu time spent up to now is       43.4 secs

     total energy              =   -1180.31751436 Ry
     estimated scf accuracy    <       0.07376107 Ry

     iteration #  3     ecut=    90.00 Ry     beta= 0.70
     Davidson diagonalization with overlap
     ethr =  1.02E-04,  avg # of iterations =  5.0

     total cpu time spent up to now is       58.2 secs

     total energy              =   -1180.32648913 Ry
     estimated scf accuracy    <       0.15517203 Ry

     iteration #  4     ecut=    90.00 Ry     beta= 0.70
     Davidson diagonalization with overlap
     ethr =  1.02E-04,  avg # of iterations =  4.1

     total cpu time spent up to now is       70.5 secs

     total energy              =   -1180.34981988 Ry
     estimated scf accuracy    <       0.00067226 Ry

     iteration #  5     ecut=    90.00 Ry     beta= 0.70
     Davidson diagonalization with overlap
     ethr =  9.34E-07,  avg # of iterations =  7.4

     total cpu time spent up to now is       86.9 secs

     total energy              =   -1180.35036379 Ry
     estimated scf accuracy    <       0.00012437 Ry

     iteration #  6     ecut=    90.00 Ry     beta= 0.70
     Davidson diagonalization with overlap
     ethr =  1.73E-07,  avg # of iterations =  4.1

     total cpu time spent up to now is       98.6 secs

     total energy              =   -1180.35040299 Ry
     estimated scf accuracy    <       0.00000427 Ry

     iteration #  7     ecut=    90.00 Ry     beta= 0.70
     Davidson diagonalization with overlap
     ethr =  5.93E-09,  avg # of iterations =  5.7

     total cpu time spent up to now is      112.8 secs

     total energy              =   -1180.35040369 Ry
     estimated scf accuracy    <       0.00000572 Ry

     iteration #  8     ecut=    90.00 Ry     beta= 0.70
     Davidson diagonalization with overlap
     ethr =  5.93E-09,  avg # of iterations =  3.5

     total cpu time spent up to now is      124.3 secs

     End of self-consistent calculation

          k = 0.0000 0.0000 0.0000 (  9771 PWs)   bands (ev):

   -56.5145 -56.5145 -56.4798 -56.4798 -56.4798 -56.4798 -56.4798 -56.4798
   -28.5798 -28.5798 -28.5723 -28.5723 -28.5723 -28.5723 -28.4830 -28.4830
   -27.6141 -27.6141 -27.6141 -27.6141 -27.5375 -27.5375 -27.5375 -27.5375
   -27.5330 -27.5330 -27.4506 -27.4506 -27.4502 -27.4502 -27.4502 -27.4502
     2.6985   2.6985   7.4569   7.4569   7.4569   7.4569   7.4660   7.4660
    10.5371  10.5371  10.5450  10.5450  10.5450  10.5450  11.9112  11.9112
    11.9112  11.9112  11.9223  11.9223  12.6024  12.6024  12.7721  12.7721
    12.7721  12.7721  13.1443  13.1443  13.1443  13.1443  13.1454  13.1454
    13.6723  13.6723  13.6723  13.6723  13.6761  13.6761  15.5523  15.5523
    15.5836  15.5836  15.5836  15.5836  15.7672  15.7672  15.7672  15.7672
    16.6655  16.6655  16.6959  16.6959  16.6959  16.6959

     occupation numbers 
     1.0000   1.0000   1.0000   1.0000   1.0000   1.0000   1.0000   1.0000
     1.0000   1.0000   1.0000   1.0000   1.0000   1.0000   1.0000   1.0000
     1.0000   1.0000   1.0000   1.0000   1.0000   1.0000   1.0000   1.0000
     1.0000   1.0000   1.0000   1.0000   1.0000   1.0000   1.0000   1.0000
     1.0000   1.0000   1.0000   1.0000   1.0000   1.0000   1.0000   1.0000
     1.0000   1.0000   1.0000   1.0000   1.0000   1.0000   1.0000   1.0000
     1.0000   1.0000   1.0000   1.0000   1.0000   1.0000   1.0000   1.0000
     1.0000   1.0000   1.0000   1.0000   1.0000   1.0000   1.0000   1.0000
     1.0000   1.0000   1.0000   1.0000   1.0000   1.0000  -0.0014  -0.0014
    -0.0008  -0.0008  -0.0008  -0.0008  -0.0000  -0.0000  -0.0000  -0.0000
    -0.0000  -0.0000  -0.0000  -0.0000  -0.0000  -0.0000

          k = 0.0000 0.0000 0.1667 (  9663 PWs)   bands (ev):

   -56.5127 -56.5127 -56.4854 -56.4854 -56.4792 -56.4792 -56.4765 -56.4765
   -28.5875 -28.5806 -28.5766 -28.5759 -28.5618 -28.5586 -28.4881 -28.4880
   -27.6308 -27.6228 -27.6010 -27.5933 -27.5501 -27.5443 -27.5404 -27.5312
   -27.5285 -27.5160 -27.4610 -27.4589 -27.4558 -27.4489 -27.4479 -27.4427
     2.8906   2.8906   6.5400   6.5425   7.5630   7.5650   8.1197   8.1290
     9.9481   9.9523  10.6627  10.6652  11.0718  11.0747  11.2872  11.2880
    11.5001  11.5049  12.4492  12.4595  12.7393  12.7616  12.8027  12.8094
    13.0114  13.0147  13.1086  13.1111  13.1977  13.1997  13.2284  13.2287
    13.5321  13.5421  13.6327  13.6353  13.9640  13.9644  15.2942  15.3151
    15.4178  15.4253  15.6940  15.7035  15.7492  15.7676  15.7928  15.8184
    16.4072  16.4227  16.5954  16.6029  16.9907  17.0113

     occupation numbers 
     1.0000   1.0000   1.0000   1.0000   1.0000   1.0000   1.0000   1.0000
     1.0000   1.0000   1.0000   1.0000   1.0000   1.0000   1.0000   1.0000
     1.0000   1.0000   1.0000   1.0000   1.0000   1.0000   1.0000   1.0000
     1.0000   1.0000   1.0000   1.0000   1.0000   1.0000   1.0000   1.0000
     1.0000   1.0000   1.0000   1.0000   1.0000   1.0000   1.0000   1.0000
     1.0000   1.0000   1.0000   1.0000   1.0000   1.0000   1.0000   1.0000
     1.0000   1.0000   1.0000   1.0000   1.0000   1.0000   1.0000   1.0000
     1.0000   1.0000   1.0000   1.0000   1.0000   1.0000   1.0000   1.0000
     1.0000   1.0000   1.0000   1.0000   1.0000   1.0000  -0.0314  -0.0279
    -0.0105  -0.0095  -0.0001  -0.0001  -0.0000  -0.0000  -0.0000  -0.0000
    -0.0000  -0.0000  -0.0000  -0.0000  -0.0000  -0.0000

          k = 0.0000 0.0000 0.3333 (  9606 PWs)   bands (ev):

   -56.5078 -56.5078 -56.4927 -56.4927 -56.4778 -56.4778 -56.4755 -56.4755
   -28.5901 -28.5834 -28.5822 -28.5785 -28.5429 -28.5404 -28.5020 -28.5015
   -27.6386 -27.6307 -27.5826 -27.5781 -27.5626 -27.5429 -27.5377 -27.5288
   -27.5272 -27.4967 -27.4784 -27.4653 -27.4624 -27.4516 -27.4470 -27.4409
     3.4510   3.4510   5.4200   5.4208   7.8602   7.8642   8.5099   8.5196
     9.6514   9.6530  10.6589  10.6612  10.7714  10.7838  11.0446  11.0476
    11.8629  11.8649  12.1344  12.1501  12.8386  12.8547  12.9331  12.9426
    13.1150  13.1209  13.1705  13.1757  13.2588  13.2616  13.3944  13.3967
    13.4521  13.4542  13.9162  13.9200  14.1178  14.1245  14.8897  14.9238
    15.3587  15.3672  15.5369  15.5552  15.7451  15.7734  15.8551  15.8791
    16.1950  16.2108  16.3708  16.3844  17.3062  17.3223

     occupation numbers 
     1.0000   1.0000   1.0000   1.0000   1.0000   1.0000   1.0000   1.0000
     1.0000   1.0000   1.0000   1.0000   1.0000   1.0000   1.0000   1.0000
     1.0000   1.0000   1.0000   1.0000   1.0000   1.0000   1.0000   1.0000
     1.0000   1.0000   1.0000   1.0000   1.0000   1.0000   1.0000   1.0000
     1.0000   1.0000   1.0000   1.0000   1.0000   1.0000   1.0000   1.0000
     1.0000   1.0000   1.0000   1.0000   1.0000   1.0000   1.0000   1.0000
     1.0000   1.0000   1.0000   1.0000   1.0000   1.0000   1.0000   1.0000
     1.0000   1.0000   1.0000   1.0000   1.0000   1.0000   1.0000   1.0000
     1.0000   1.0000   1.0000   1.0000   1.0000   1.0000   0.6992   0.5873
    -0.0198  -0.0183  -0.0018  -0.0013  -0.0000  -0.0000  -0.0000  -0.0000
    -0.0000  -0.0000  -0.0000  -0.0000  -0.0000  -0.0000

          k = 0.0000 0.0000-0.5000 (  9658 PWs)   bands (ev):

   -56.5007 -56.5007 -56.5007 -56.5007 -56.4762 -56.4762 -56.4762 -56.4762
   -28.5876 -28.5876 -28.5820 -28.5820 -28.5217 -28.5217 -28.5202 -28.5202
   -27.6374 -27.6374 -27.5724 -27.5724 -27.5573 -27.5573 -27.5344 -27.5344
   -27.5036 -27.5036 -27.4791 -27.4791 -27.4573 -27.4573 -27.4438 -27.4438
     4.3285   4.3285   4.3287   4.3287   8.2827   8.2827   8.2891   8.2891
    10.0167  10.0167  10.0207  10.0207  10.8980  10.8980  10.9093  10.9093
    12.2474  12.2474  12.2539  12.2539  12.6857  12.6857  12.6982  12.6982
    13.1424  13.1424  13.1428  13.1428  13.2378  13.2378  13.2415  13.2415
    13.7829  13.7829  13.7860  13.7860  14.5653  14.5653  14.5939  14.5939
    15.4024  15.4024  15.4202  15.4202  15.8069  15.8069  15.8366  15.8366
    16.1661  16.1661  16.1798  16.1799  17.5447  17.5478

     occupation numbers 
     1.0000   1.0000   1.0000   1.0000   1.0000   1.0000   1.0000   1.0000
     1.0000   1.0000   1.0000   1.0000   1.0000   1.0000   1.0000   1.0000
     1.0000   1.0000   1.0000   1.0000   1.0000   1.0000   1.0000   1.0000
     1.0000   1.0000   1.0000   1.0000   1.0000   1.0000   1.0000   1.0000
     1.0000   1.0000   1.0000   1.0000   1.0000   1.0000   1.0000   1.0000
     1.0000   1.0000   1.0000   1.0000   1.0000   1.0000   1.0000   1.0000
     1.0000   1.0000   1.0000   1.0000   1.0000   1.0000   1.0000   1.0000
     1.0000   1.0000   1.0000   1.0000   1.0000   1.0000   1.0000   1.0000
     1.0000   1.0000   1.0000   1.0000   1.0246   1.0246   1.0298   1.0298
    -0.0126  -0.0126  -0.0102  -0.0102  -0.0000  -0.0000  -0.0000  -0.0000
    -0.0000  -0.0000  -0.0000  -0.0000  -0.0000  -0.0000

          k = 0.0000 0.1667 0.1667 (  9657 PWs)   bands (ev):

   -56.5110 -56.5110 -56.4873 -56.4873 -56.4798 -56.4798 -56.4757 -56.4757
   -28.5893 -28.5835 -28.5743 -28.5742 -28.5581 -28.5542 -28.4928 -28.4927
   -27.6316 -27.6275 -27.5917 -27.5878 -27.5513 -27.5480 -27.5437 -27.5367
   -27.5204 -27.5068 -27.4698 -27.4661 -27.4588 -27.4500 -27.4432 -27.4390
     3.0802   3.0802   6.3973   6.4016   7.2077   7.2120   8.4069   8.4123
     9.8325   9.8359  10.5099  10.5124  10.7870  10.7883  11.3571  11.3601
    11.7799  11.7803  12.4120  12.4177  12.5877  12.5954  12.9950  12.9963
    13.0909  13.0991  13.1724  13.1731  13.2439  13.2505  13.3362  13.3412
    13.4675  13.4754  13.7327  13.7468  14.0756  14.0830  15.2522  15.2739
    15.3017  15.3210  15.5363  15.5484  15.6963  15.7173  15.8147  15.8392
    16.2774  16.2944  16.6071  16.6168  17.0329  17.0676

     occupation numbers 
     1.0000   1.0000   1.0000   1.0000   1.0000   1.0000   1.0000   1.0000
     1.0000   1.0000   1.0000   1.0000   1.0000   1.0000   1.0000   1.0000
     1.0000   1.0000   1.0000   1.0000   1.0000   1.0000   1.0000   1.0000
     1.0000   1.0000   1.0000   1.0000   1.0000   1.0000   1.0000   1.0000
     1.0000   1.0000   1.0000   1.0000   1.0000   1.0000   1.0000   1.0000
     1.0000   1.0000   1.0000   1.0000   1.0000   1.0000   1.0000   1.0000
     1.0000   1.0000   1.0000   1.0000   1.0000   1.0000   1.0000   1.0000
     1.0000   1.0000   1.0000   1.0000   1.0000   1.0000   1.0000   1.0000
     1.0000   1.0000   1.0000   1.0000   1.0000   1.0000  -0.0354  -0.0341
    -0.0303  -0.0268  -0.0018  -0.0015  -0.0001  -0.0000  -0.0000  -0.0000
    -0.0000  -0.0000  -0.0000  -0.0000  -0.0000  -0.0000

          k = 0.0000 0.1667 0.3333 (  9647 PWs)   bands (ev):

   -56.5064 -56.5064 -56.4928 -56.4928 -56.4788 -56.4788 -56.4757 -56.4757
   -28.5892 -28.5840 -28.5780 -28.5759 -28.5435 -28.5410 -28.5059 -28.5056
   -27.6348 -27.6295 -27.5808 -27.5752 -27.5613 -27.5479 -27.5413 -27.5334
   -27.5217 -27.4930 -27.4872 -27.4715 -27.4645 -27.4530 -27.4396 -27.4359
     3.6327   3.6329   5.5377   5.5394   7.3629   7.3656   8.4327   8.4360
     9.7329   9.7361  10.1893  10.1935  10.9876  10.9906  11.3852  11.3948
    11.7521  11.7565  12.1890  12.1978  12.5944  12.6020  12.8763  12.8851
    13.1127  13.1221  13.2517  13.2575  13.3794  13.3807  13.5261  13.5361
    13.5893  13.6025  13.9889  13.9995  14.2436  14.2560  14.9094  14.9404
    15.2253  15.2439  15.3457  15.3557  15.6547  15.6797  15.8066  15.8369
    16.1518  16.1613  16.4395  16.4525  17.2365  17.2695

     occupation numbers 
     1.0000   1.0000   1.0000   1.0000   1.0000   1.0000   1.0000   1.0000
     1.0000   1.0000   1.0000   1.0000   1.0000   1.0000   1.0000   1.0000
     1.0000   1.0000   1.0000   1.0000   1.0000   1.0000   1.0000   1.0000
     1.0000   1.0000   1.0000   1.0000   1.0000   1.0000   1.0000   1.0000
     1.0000   1.0000   1.0000   1.0000   1.0000   1.0000   1.0000   1.0000
     1.0000   1.0000   1.0000   1.0000   1.0000   1.0000   1.0000   1.0000
     1.0000   1.0000   1.0000   1.0000   1.0000   1.0000   1.0000   1.0000
     1.0000   1.0000   1.0000   1.0000   1.0000   1.0000   1.0000   1.0000
     1.0000   1.0000   1.0000   1.0000   1.0002   1.0002   0.6355   0.5303
    -0.0338  -0.0354  -0.0222  -0.0203  -0.0002  -0.0001  -0.0000  -0.0000
    -0.0000  -0.0000  -0.0000  -0.0000  -0.0000  -0.0000

          k = 0.0000 0.1667-0.5000 (  9654 PWs)   bands (ev):

   -56.4999 -56.4999 -56.4999 -56.4999 -56.4770 -56.4770 -56.4770 -56.4770
   -28.5853 -28.5853 -28.5798 -28.5798 -28.5250 -28.5250 -28.5224 -28.5224
   -27.6332 -27.6332 -27.5725 -27.5725 -27.5580 -27.5580 -27.5338 -27.5338
   -27.5113 -27.5113 -27.4794 -27.4794 -27.4599 -27.4599 -27.4367 -27.4367
     4.4932   4.4932   4.4939   4.4939   7.8951   7.8951   7.9019   7.9019
    10.0148  10.0148  10.0188  10.0188  11.1033  11.1033  11.1174  11.1174
    12.0901  12.0901  12.0947  12.0947  12.5401  12.5401  12.5558  12.5558
    13.2761  13.2761  13.2770  13.2770  13.3913  13.3913  13.3924  13.3924
    13.8666  13.8666  13.8706  13.8706  14.6205  14.6205  14.6518  14.6518
    15.2382  15.2382  15.2529  15.2529  15.7149  15.7149  15.7447  15.7447
    16.2398  16.2398  16.2504  16.2504  17.4836  17.4868

     occupation numbers 
     1.0000   1.0000   1.0000   1.0000   1.0000   1.0000   1.0000   1.0000
     1.0000   1.0000   1.0000   1.0000   1.0000   1.0000   1.0000   1.0000
     1.0000   1.0000   1.0000   1.0000   1.0000   1.0000   1.0000   1.0000
     1.0000   1.0000   1.0000   1.0000   1.0000   1.0000   1.0000   1.0000
     1.0000   1.0000   1.0000   1.0000   1.0000   1.0000   1.0000   1.0000
     1.0000   1.0000   1.0000   1.0000   1.0000   1.0000   1.0000   1.0000
     1.0000   1.0000   1.0000   1.0000   1.0000   1.0000   1.0000   1.0000
     1.0000   1.0000   1.0000   1.0000   1.0000   1.0000   1.0000   1.0000
     1.0000   1.0000   1.0000   1.0000   1.0337   1.0337   1.0354   1.0354
    -0.0351  -0.0351  -0.0354  -0.0354  -0.0000  -0.0000  -0.0000  -0.0000
    -0.0000  -0.0000  -0.0000  -0.0000  -0.0000  -0.0000

          k = 0.0000 0.3333 0.3333 (  9619 PWs)   bands (ev):

   -56.5028 -56.5028 -56.4942 -56.4942 -56.4798 -56.4798 -56.4769 -56.4769
   -28.5852 -28.5813 -28.5743 -28.5733 -28.5412 -28.5389 -28.5167 -28.5160
   -27.6264 -27.6251 -27.5819 -27.5762 -27.5572 -27.5495 -27.5377 -27.5368
   -27.5205 -27.5009 -27.4987 -27.4873 -27.4585 -27.4447 -27.4353 -27.4321
     4.1582   4.1586   5.6398   5.6420   6.6784   6.6812   7.8198   7.8236
    10.0315  10.0342  10.3050  10.3080  10.9408  10.9425  11.2582  11.2604
    11.8946  11.9013  12.1581  12.1626  12.3094  12.3190  12.6283  12.6362
    13.1793  13.1877  13.3912  13.3962  13.5600  13.5628  13.7205  13.7258
    13.8833  13.8950  14.0943  14.1071  14.4877  14.5134  14.8483  14.8599
    14.9411  14.9614  15.0578  15.0745  15.5227  15.5458  15.6031  15.6330
    16.2325  16.2413  16.4899  16.4968  17.1472  17.1778

     occupation numbers 
     1.0000   1.0000   1.0000   1.0000   1.0000   1.0000   1.0000   1.0000
     1.0000   1.0000   1.0000   1.0000   1.0000   1.0000   1.0000   1.0000
     1.0000   1.0000   1.0000   1.0000   1.0000   1.0000   1.0000   1.0000
     1.0000   1.0000   1.0000   1.0000   1.0000   1.0000   1.0000   1.0000
     1.0000   1.0000   1.0000   1.0000   1.0000   1.0000   1.0000   1.0000
     1.0000   1.0000   1.0000   1.0000   1.0000   1.0000   1.0000   1.0000
     1.0000   1.0000   1.0000   1.0000   1.0000   1.0000   1.0000   1.0000
     1.0000   1.0000   1.0000   1.0000   1.0000   1.0000   1.0000   1.0000
     1.0000   1.0000   1.0000   1.0000   1.0114   1.0152   0.8182   0.7870
     0.5280   0.4580   0.1625   0.1237  -0.0023  -0.0015  -0.0005  -0.0003
    -0.0000  -0.0000  -0.0000  -0.0000  -0.0000  -0.0000

          k = 0.0000 0.3333-0.5000 (  9646 PWs)   bands (ev):

   -56.4981 -56.4981 -56.4981 -56.4981 -56.4788 -56.4788 -56.4788 -56.4788
   -28.5794 -28.5794 -28.5752 -28.5752 -28.5314 -28.5314 -28.5285 -28.5285
   -27.6211 -27.6211 -27.5841 -27.5841 -27.5495 -27.5495 -27.5317 -27.5317
   -27.5196 -27.5196 -27.4982 -27.4982 -27.4471 -27.4471 -27.4325 -27.4325
     4.9494   4.9494   4.9507   4.9507   7.0285   7.0285   7.0334   7.0334
    10.3305  10.3305  10.3325  10.3325  11.2378  11.2378  11.2462  11.2462
    11.7607  11.7607  11.7662  11.7662  12.3340  12.3340  12.3413  12.3413
    13.3669  13.3669  13.3740  13.3740  13.6750  13.6750  13.6837  13.6837
    14.1704  14.1704  14.1760  14.1760  14.6108  14.6108  14.6300  14.6300
    14.9436  14.9436  14.9585  14.9585  15.4984  15.4984  15.5226  15.5226
    16.4405  16.4405  16.4512  16.4512  17.1954  17.1958

     occupation numbers 
     1.0000   1.0000   1.0000   1.0000   1.0000   1.0000   1.0000   1.0000
     1.0000   1.0000   1.0000   1.0000   1.0000   1.0000   1.0000   1.0000
     1.0000   1.0000   1.0000   1.0000   1.0000   1.0000   1.0000   1.0000
     1.0000   1.0000   1.0000   1.0000   1.0000   1.0000   1.0000   1.0000
     1.0000   1.0000   1.0000   1.0000   1.0000   1.0000   1.0000   1.0000
     1.0000   1.0000   1.0000   1.0000   1.0000   1.0000   1.0000   1.0000
     1.0000   1.0000   1.0000   1.0000   1.0000   1.0000   1.0000   1.0000
     1.0000   1.0000   1.0000   1.0000   1.0000   1.0000   1.0000   1.0000
     1.0000   1.0000   1.0000   1.0000   1.0324   1.0324   1.0346   1.0346
     0.5194   0.5194   0.4679   0.4679  -0.0034  -0.0034  -0.0023  -0.0023
    -0.0000  -0.0000  -0.0000  -0.0000  -0.0000  -0.0000

          k = 0.0000-0.5000-0.5000 (  9580 PWs)   bands (ev):

   -56.4970 -56.4970 -56.4970 -56.4970 -56.4798 -56.4798 -56.4798 -56.4798
   -28.5742 -28.5742 -28.5742 -28.5742 -28.5335 -28.5335 -28.5335 -28.5335
   -27.6033 -27.6033 -27.6033 -27.6033 -27.5360 -27.5360 -27.5360 -27.5360
   -27.5161 -27.5161 -27.5161 -27.5161 -27.4363 -27.4363 -27.4363 -27.4363
     5.3713   5.3713   5.3713   5.3713   6.4277   6.4277   6.4277   6.4277
    10.7057  10.7057  10.7057  10.7057  11.2428  11.2428  11.2428  11.2428
    11.3852  11.3852  11.3852  11.3852  12.2844  12.2844  12.2844  12.2844
    13.3623  13.3623  13.3623  13.3623  14.0072  14.0072  14.0072  14.0072
    14.2944  14.2944  14.2944  14.2944  14.5252  14.5252  14.5252  14.5252
    14.7576  14.7576  14.7576  14.7576  15.4179  15.4179  15.4179  15.4179
    16.5875  16.5875  16.5875  16.5875  16.9849  16.9849

     occupation numbers 
     1.0000   1.0000   1.0000   1.0000   1.0000   1.0000   1.0000   1.0000
     1.0000   1.0000   1.0000   1.0000   1.0000   1.0000   1.0000   1.0000
     1.0000   1.0000   1.0000   1.0000   1.0000   1.0000   1.0000   1.0000
     1.0000   1.0000   1.0000   1.0000   1.0000   1.0000   1.0000   1.0000
     1.0000   1.0000   1.0000   1.0000   1.0000   1.0000   1.0000   1.0000
     1.0000   1.0000   1.0000   1.0000   1.0000   1.0000   1.0000   1.0000
     1.0000   1.0000   1.0000   1.0000   1.0000   1.0000   1.0000   1.0000
     1.0000   1.0000   1.0000   1.0000   1.0000   1.0000   1.0000   1.0000
     1.0005   1.0005   1.0005   1.0005   1.0172   1.0172   1.0172   1.0172
     0.9854   0.9854   0.9854   0.9854  -0.0105  -0.0105  -0.0105  -0.0105
    -0.0000  -0.0000  -0.0000  -0.0000  -0.0000  -0.0000

          k = 0.1667 0.1667 0.1667 (  9627 PWs)   bands (ev):

   -56.5095 -56.5095 -56.4884 -56.4884 -56.4804 -56.4804 -56.4755 -56.4755
   -28.5896 -28.5842 -28.5724 -28.5723 -28.5560 -28.5520 -28.4975 -28.4971
   -27.6310 -27.6286 -27.5892 -27.5804 -27.5517 -27.5476 -27.5465 -27.5439
   -27.5147 -27.5016 -27.4793 -27.4662 -27.4594 -27.4557 -27.4381 -27.4376
     3.2673   3.2673   6.3450   6.3517   7.0383   7.0470   8.3233   8.3256
     9.7322   9.7349  10.5173  10.5181  10.5473  10.5486  11.3853  11.3909
    11.9876  11.9881  12.3199  12.3281  12.8284  12.8339  12.8344  12.8407
    13.1022  13.1075  13.1341  13.1342  13.2098  13.2158  13.5213  13.5264
    13.6005  13.6100  13.7834  13.7888  14.1526  14.1612  15.2048  15.2194
    15.2723  15.2870  15.4709  15.4722  15.5230  15.5386  15.7925  15.8073
    16.2236  16.2405  16.6026  16.6142  17.0472  17.0874

     occupation numbers 
     1.0000   1.0000   1.0000   1.0000   1.0000   1.0000   1.0000   1.0000
     1.0000   1.0000   1.0000   1.0000   1.0000   1.0000   1.0000   1.0000
     1.0000   1.0000   1.0000   1.0000   1.0000   1.0000   1.0000   1.0000
     1.0000   1.0000   1.0000   1.0000   1.0000   1.0000   1.0000   1.0000
     1.0000   1.0000   1.0000   1.0000   1.0000   1.0000   1.0000   1.0000
     1.0000   1.0000   1.0000   1.0000   1.0000   1.0000   1.0000   1.0000
     1.0000   1.0000   1.0000   1.0000   1.0000   1.0000   1.0000   1.0000
     1.0000   1.0000   1.0000   1.0000   1.0000   1.0000   1.0000   1.0000
     1.0000   1.0000   1.0000   1.0000   1.0000   1.0000  -0.0291  -0.0328
    -0.0342  -0.0325  -0.0051  -0.0050  -0.0023  -0.0017  -0.0000  -0.0000
    -0.0000  -0.0000  -0.0000  -0.0000  -0.0000  -0.0000

          k = 0.1667 0.1667 0.3333 (  9629 PWs)   bands (ev):

   -56.5051 -56.5051 -56.4927 -56.4927 -56.4798 -56.4798 -56.4761 -56.4761
   -28.5878 -28.5832 -28.5750 -28.5735 -28.5446 -28.5418 -28.5100 -28.5092
   -27.6316 -27.6274 -27.5803 -27.5721 -27.5600 -27.5508 -27.5437 -27.5388
   -27.5163 -27.5030 -27.4805 -27.4703 -27.4681 -27.4565 -27.4359 -27.4343
     3.8116   3.8118   5.6522   5.6544   7.1826   7.1866   8.2389   8.2424
     9.3519   9.3544  10.2213  10.2238  10.9245  10.9282  11.4676  11.4708
    11.8288  11.8330  12.2173  12.2194  12.7505  12.7595  12.9440  12.9501
    13.0779  13.0866  13.1961  13.2046  13.2922  13.2958  13.5434  13.5502
    13.7617  13.7669  14.0122  14.0211  14.3516  14.3689  14.9060  14.9335
    15.1895  15.2047  15.2819  15.2919  15.5023  15.5168  15.7128  15.7336
    16.1652  16.1747  16.4524  16.4663  17.2166  17.2481

     occupation numbers 
     1.0000   1.0000   1.0000   1.0000   1.0000   1.0000   1.0000   1.0000
     1.0000   1.0000   1.0000   1.0000   1.0000   1.0000   1.0000   1.0000
     1.0000   1.0000   1.0000   1.0000   1.0000   1.0000   1.0000   1.0000
     1.0000   1.0000   1.0000   1.0000   1.0000   1.0000   1.0000   1.0000
     1.0000   1.0000   1.0000   1.0000   1.0000   1.0000   1.0000   1.0000
     1.0000   1.0000   1.0000   1.0000   1.0000   1.0000   1.0000   1.0000
     1.0000   1.0000   1.0000   1.0000   1.0000   1.0000   1.0000   1.0000
     1.0000   1.0000   1.0000   1.0000   1.0000   1.0000   1.0000   1.0000
     1.0000   1.0000   1.0000   1.0000   1.0015   1.0020   0.6467   0.5542
    -0.0231  -0.0291  -0.0332  -0.0318  -0.0032  -0.0025  -0.0000  -0.0000
    -0.0000  -0.0000  -0.0000  -0.0000  -0.0000  -0.0000

          k = 0.1667 0.1667-0.5000 (  9658 PWs)   bands (ev):

   -56.4990 -56.4990 -56.4990 -56.4990 -56.4779 -56.4779 -56.4779 -56.4779
   -28.5830 -28.5830 -28.5776 -28.5776 -28.5281 -28.5281 -28.5248 -28.5248
   -27.6293 -27.6293 -27.5707 -27.5707 -27.5618 -27.5618 -27.5324 -27.5324
   -27.5175 -27.5175 -27.4756 -27.4756 -27.4628 -27.4628 -27.4342 -27.4342
     4.6545   4.6545   4.6553   4.6553   7.7183   7.7183   7.7245   7.7245
     9.6724   9.6724   9.6736   9.6736  11.3989  11.3989  11.4071  11.4071
    11.8728  11.8728  11.8764  11.8764  12.7970  12.7970  12.8089  12.8089
    13.1811  13.1811  13.1916  13.1916  13.4171  13.4171  13.4212  13.4212
    13.9218  13.9218  13.9297  13.9297  14.6720  14.6720  14.7059  14.7059
    15.1619  15.1619  15.1819  15.1819  15.6032  15.6032  15.6258  15.6258
    16.2590  16.2590  16.2687  16.2687  17.5692  17.5699

     occupation numbers 
     1.0000   1.0000   1.0000   1.0000   1.0000   1.0000   1.0000   1.0000
     1.0000   1.0000   1.0000   1.0000   1.0000   1.0000   1.0000   1.0000
     1.0000   1.0000   1.0000   1.0000   1.0000   1.0000   1.0000   1.0000
     1.0000   1.0000   1.0000   1.0000   1.0000   1.0000   1.0000   1.0000
     1.0000   1.0000   1.0000   1.0000   1.0000   1.0000   1.0000   1.0000
     1.0000   1.0000   1.0000   1.0000   1.0000   1.0000   1.0000   1.0000
     1.0000   1.0000   1.0000   1.0000   1.0000   1.0000   1.0000   1.0000
     1.0000   1.0000   1.0000   1.0000   1.0000   1.0000   1.0000   1.0000
     1.0000   1.0000   1.0000   1.0000   1.0340   1.0340   1.0244   1.0244
    -0.0055  -0.0055  -0.0192  -0.0192  -0.0005  -0.0005  -0.0003  -0.0003
    -0.0000  -0.0000  -0.0000  -0.0000  -0.0000  -0.0000

          k = 0.1667 0.3333 0.3333 (  9651 PWs)   bands (ev):

   -56.5016 -56.5016 -56.4936 -56.4936 -56.4809 -56.4809 -56.4777 -56.4777
   -28.5833 -28.5795 -28.5717 -28.5708 -28.5432 -28.5410 -28.5203 -28.5193
   -27.6240 -27.6212 -27.5809 -27.5737 -27.5620 -27.5534 -27.5422 -27.5353
   -27.5194 -27.5104 -27.4866 -27.4785 -27.4623 -27.4508 -27.4351 -27.4318
     4.3282   4.3286   5.7581   5.7615   6.7213   6.7268   7.7768   7.7804
     9.2002   9.2036  10.0625  10.0662  10.9680  10.9702  11.5783  11.5826
    11.7444  11.7466  12.2587  12.2622  12.4929  12.4992  12.8107  12.8172
    13.1506  13.1548  13.2522  13.2644  13.3991  13.4065  13.6914  13.7066
    13.9163  13.9325  14.2276  14.2384  14.5635  14.5917  14.8629  14.8770
    14.9469  14.9580  15.1225  15.1492  15.4055  15.4083  15.5518  15.5673
    16.2275  16.2351  16.4568  16.4648  17.0963  17.1211

     occupation numbers 
     1.0000   1.0000   1.0000   1.0000   1.0000   1.0000   1.0000   1.0000
     1.0000   1.0000   1.0000   1.0000   1.0000   1.0000   1.0000   1.0000
     1.0000   1.0000   1.0000   1.0000   1.0000   1.0000   1.0000   1.0000
     1.0000   1.0000   1.0000   1.0000   1.0000   1.0000   1.0000   1.0000
     1.0000   1.0000   1.0000   1.0000   1.0000   1.0000   1.0000   1.0000
     1.0000   1.0000   1.0000   1.0000   1.0000   1.0000   1.0000   1.0000
     1.0000   1.0000   1.0000   1.0000   1.0000   1.0000   1.0000   1.0000
     1.0000   1.0000   1.0000   1.0000   1.0000   1.0000   1.0000   1.0000
     1.0000   1.0000   1.0001   1.0002   1.0242   1.0294   0.7786   0.7378
     0.5080   0.4697   0.0376   0.0058  -0.0121  -0.0117  -0.0014  -0.0010
    -0.0000  -0.0000  -0.0000  -0.0000  -0.0000  -0.0000

          k = 0.1667 0.3333-0.5000 (  9682 PWs)   bands (ev):

   -56.4970 -56.4970 -56.4970 -56.4970 -56.4798 -56.4798 -56.4798 -56.4798
   -28.5771 -28.5771 -28.5729 -28.5729 -28.5344 -28.5344 -28.5312 -28.5312
   -27.6179 -27.6179 -27.5818 -27.5818 -27.5575 -27.5575 -27.5334 -27.5334
   -27.5194 -27.5194 -27.4880 -27.4880 -27.4518 -27.4518 -27.4334 -27.4334
     5.1000   5.1000   5.1015   5.1015   7.0732   7.0732   7.0786   7.0786
     9.6225   9.6225   9.6261   9.6261  11.2866  11.2866  11.2884  11.2884
    11.9341  11.9341  11.9430  11.9430  12.5629  12.5629  12.5722  12.5722
    13.2646  13.2646  13.2707  13.2707  13.5480  13.5480  13.5629  13.5629
    14.2336  14.2336  14.2425  14.2425  14.7085  14.7085  14.7297  14.7297
    14.9613  14.9613  14.9791  14.9791  15.4424  15.4424  15.4593  15.4593
    16.3832  16.3832  16.3908  16.3908  17.1583  17.1611

     occupation numbers 
     1.0000   1.0000   1.0000   1.0000   1.0000   1.0000   1.0000   1.0000
     1.0000   1.0000   1.0000   1.0000   1.0000   1.0000   1.0000   1.0000
     1.0000   1.0000   1.0000   1.0000   1.0000   1.0000   1.0000   1.0000
     1.0000   1.0000   1.0000   1.0000   1.0000   1.0000   1.0000   1.0000
     1.0000   1.0000   1.0000   1.0000   1.0000   1.0000   1.0000   1.0000
     1.0000   1.0000   1.0000   1.0000   1.0000   1.0000   1.0000   1.0000
     1.0000   1.0000   1.0000   1.0000   1.0000   1.0000   1.0000   1.0000
     1.0000   1.0000   1.0000   1.0000   1.0000   1.0000   1.0000   1.0000
     1.0001   1.0001   1.0002   1.0002   1.0233   1.0233   1.0107   1.0107
     0.4583   0.4583   0.3975   0.3975  -0.0076  -0.0076  -0.0061  -0.0061
    -0.0000  -0.0000  -0.0000  -0.0000  -0.0000  -0.0000

          k = 0.1667-0.5000-0.5000 (  9628 PWs)   bands (ev):

   -56.4959 -56.4959 -56.4959 -56.4959 -56.4810 -56.4810 -56.4810 -56.4810
   -28.5718 -28.5718 -28.5717 -28.5717 -28.5367 -28.5367 -28.5364 -28.5364
   -27.6040 -27.6040 -27.5972 -27.5972 -27.5520 -27.5520 -27.5374 -27.5374
   -27.5139 -27.5139 -27.4987 -27.4987 -27.4427 -27.4427 -27.4368 -27.4368
     5.5078   5.5078   5.5092   5.5092   6.5305   6.5305   6.5332   6.5332
     9.8341   9.8341   9.8383   9.8383  10.8956  10.8956  10.8978  10.8978
    12.1889  12.1889  12.1915  12.1915  12.3739  12.3739  12.3770  12.3770
    13.2211  13.2211  13.2218  13.2218  13.7551  13.7551  13.7690  13.7690
    14.3902  14.3902  14.3972  14.3972  14.6950  14.6950  14.7124  14.7124
    14.8364  14.8364  14.8383  14.8383  15.3645  15.3645  15.3647  15.3647
    16.4841  16.4841  16.4856  16.4856  16.9506  16.9522

     occupation numbers 
     1.0000   1.0000   1.0000   1.0000   1.0000   1.0000   1.0000   1.0000
     1.0000   1.0000   1.0000   1.0000   1.0000   1.0000   1.0000   1.0000
     1.0000   1.0000   1.0000   1.0000   1.0000   1.0000   1.0000   1.0000
     1.0000   1.0000   1.0000   1.0000   1.0000   1.0000   1.0000   1.0000
     1.0000   1.0000   1.0000   1.0000   1.0000   1.0000   1.0000   1.0000
     1.0000   1.0000   1.0000   1.0000   1.0000   1.0000   1.0000   1.0000
     1.0000   1.0000   1.0000   1.0000   1.0000   1.0000   1.0000   1.0000
     1.0000   1.0000   1.0000   1.0000   1.0000   1.0000   1.0000   1.0000
     1.0029   1.0029   1.0032   1.0032   1.0286   1.0286   1.0214   1.0214
     0.8476   0.8476   0.8432   0.8432  -0.0187  -0.0187  -0.0187  -0.0187
    -0.0000  -0.0000  -0.0000  -0.0000  -0.0000  -0.0000

          k = 0.3333 0.3333 0.3333 (  9690 PWs)   bands (ev):

   -56.4984 -56.4984 -56.4927 -56.4927 -56.4828 -56.4828 -56.4798 -56.4798
   -28.5778 -28.5746 -28.5667 -28.5667 -28.5460 -28.5440 -28.5295 -28.5281
   -27.6164 -27.6128 -27.5795 -27.5697 -27.5695 -27.5681 -27.5461 -27.5330
   -27.5229 -27.5029 -27.4823 -27.4640 -27.4638 -27.4633 -27.4373 -27.4340
     4.8143   4.8148   5.9666   5.9731   6.6627   6.6731   7.5019   7.5045
     8.7479   8.7530   9.4975   9.5039  10.5487  10.5533  11.1925  11.1944
    12.0050  12.0068  12.4955  12.4985  12.7669  12.7710  12.8469  12.8486
    13.1363  13.1481  13.1941  13.2009  13.2636  13.2659  13.5426  13.5457
    14.1375  14.1421  14.4893  14.4976  14.7897  14.8265  14.8476  14.8593
    14.9932  15.0041  15.1344  15.1402  15.2605  15.2875  15.4105  15.4298
    16.2517  16.2587  16.3860  16.3887  16.9521  16.9604

     occupation numbers 
     1.0000   1.0000   1.0000   1.0000   1.0000   1.0000   1.0000   1.0000
     1.0000   1.0000   1.0000   1.0000   1.0000   1.0000   1.0000   1.0000
     1.0000   1.0000   1.0000   1.0000   1.0000   1.0000   1.0000   1.0000
     1.0000   1.0000   1.0000   1.0000   1.0000   1.0000   1.0000   1.0000
     1.0000   1.0000   1.0000   1.0000   1.0000   1.0000   1.0000   1.0000
     1.0000   1.0000   1.0000   1.0000   1.0000   1.0000   1.0000   1.0000
     1.0000   1.0000   1.0000   1.0000   1.0000   1.0000   1.0000   1.0000
     1.0000   1.0000   1.0000   1.0000   1.0000   1.0000   1.0000   1.0000
     1.0000   1.0000   1.0116   1.0128   0.9417   0.8707   0.8198   0.7886
     0.3508   0.3156   0.0221   0.0152  -0.0351  -0.0324  -0.0114  -0.0090
    -0.0000  -0.0000  -0.0000  -0.0000  -0.0000  -0.0000

          k = 0.3333 0.3333-0.5000 (  9648 PWs)   bands (ev):

   -56.4945 -56.4945 -56.4945 -56.4945 -56.4823 -56.4823 -56.4823 -56.4823
   -28.5709 -28.5709 -28.5673 -28.5673 -28.5413 -28.5413 -28.5381 -28.5381
   -27.6087 -27.6087 -27.5799 -27.5799 -27.5694 -27.5694 -27.5427 -27.5427
   -27.5084 -27.5084 -27.4766 -27.4766 -27.4582 -27.4582 -27.4383 -27.4383
     5.5136   5.5136   5.5155   5.5155   6.9761   6.9761   6.9819   6.9819
     9.0499   9.0499   9.0558   9.0558  10.5628  10.5628  10.5657  10.5657
    12.3833  12.3833  12.3918  12.3918  12.8168  12.8168  12.8244  12.8244
    13.1308  13.1308  13.1418  13.1418  13.3755  13.3755  13.3839  13.3839
    14.4633  14.4633  14.4716  14.4716  14.8585  14.8585  14.8742  14.8742
    15.0780  15.0780  15.0973  15.0973  15.2939  15.2939  15.3102  15.3102
    16.3280  16.3280  16.3374  16.3374  16.9266  16.9286

     occupation numbers 
     1.0000   1.0000   1.0000   1.0000   1.0000   1.0000   1.0000   1.0000
     1.0000   1.0000   1.0000   1.0000   1.0000   1.0000   1.0000   1.0000
     1.0000   1.0000   1.0000   1.0000   1.0000   1.0000   1.0000   1.0000
     1.0000   1.0000   1.0000   1.0000   1.0000   1.0000   1.0000   1.0000
     1.0000   1.0000   1.0000   1.0000   1.0000   1.0000   1.0000   1.0000
     1.0000   1.0000   1.0000   1.0000   1.0000   1.0000   1.0000   1.0000
     1.0000   1.0000   1.0000   1.0000   1.0000   1.0000   1.0000   1.0000
     1.0000   1.0000   1.0000   1.0000   1.0000   1.0000   1.0000   1.0000
     1.0084   1.0084   1.0094   1.0094   0.7910   0.7910   0.7463   0.7463
     0.1160   0.1160   0.0779   0.0779  -0.0315  -0.0315  -0.0288  -0.0288
    -0.0000  -0.0000  -0.0000  -0.0000  -0.0000  -0.0000

          k = 0.3333-0.5000-0.5000 (  9668 PWs)   bands (ev):

   -56.4927 -56.4927 -56.4927 -56.4927 -56.4841 -56.4841 -56.4841 -56.4841
   -28.5650 -28.5650 -28.5647 -28.5647 -28.5447 -28.5447 -28.5443 -28.5443
   -27.5980 -27.5980 -27.5896 -27.5896 -27.5697 -27.5697 -27.5471 -27.5471
   -27.5008 -27.5008 -27.4785 -27.4785 -27.4531 -27.4531 -27.4449 -27.4449
     5.8919   5.8919   5.8950   5.8950   6.6646   6.6646   6.6702   6.6702
     9.0933   9.0933   9.0999   9.0999  10.0567  10.0567  10.0609  10.0609
    12.6124  12.6124  12.6164  12.6164  12.7979  12.7979  12.8000  12.8000
    13.0407  13.0407  13.0407  13.0407  13.3501  13.3501  13.3608  13.3608
    14.6537  14.6537  14.6613  14.6613  14.9701  14.9701  14.9776  14.9776
    15.0622  15.0622  15.0678  15.0678  15.2526  15.2526  15.2644  15.2644
    16.3650  16.3650  16.3664  16.3664  16.7175  16.7181

     occupation numbers 
     1.0000   1.0000   1.0000   1.0000   1.0000   1.0000   1.0000   1.0000
     1.0000   1.0000   1.0000   1.0000   1.0000   1.0000   1.0000   1.0000
     1.0000   1.0000   1.0000   1.0000   1.0000   1.0000   1.0000   1.0000
     1.0000   1.0000   1.0000   1.0000   1.0000   1.0000   1.0000   1.0000
     1.0000   1.0000   1.0000   1.0000   1.0000   1.0000   1.0000   1.0000
     1.0000   1.0000   1.0000   1.0000   1.0000   1.0000   1.0000   1.0000
     1.0000   1.0000   1.0000   1.0000   1.0000   1.0000   1.0000   1.0000
     1.0000   1.0000   1.0000   1.0000   1.0000   1.0000   1.0000   1.0000
     1.0354   1.0354   1.0351   1.0351   0.4280   0.4280   0.4026   0.4026
     0.1518   0.1518   0.1388   0.1388  -0.0354  -0.0354  -0.0349  -0.0349
    -0.0000  -0.0000  -0.0000  -0.0000  -0.0000  -0.0000

          k =-0.5000-0.5000-0.5000 (  9568 PWs)   bands (ev):

   -56.4884 -56.4884 -56.4884 -56.4884 -56.4884 -56.4884 -56.4884 -56.4884
   -28.5556 -28.5556 -28.5548 -28.5548 -28.5548 -28.5548 -28.5548 -28.5548
   -27.5858 -27.5858 -27.5858 -27.5858 -27.5858 -27.5858 -27.5511 -27.5511
   -27.4937 -27.4937 -27.4595 -27.4595 -27.4595 -27.4595 -27.4595 -27.4595
     6.3989   6.3989   6.3989   6.3989   6.3989   6.3989   6.4092   6.4092
     9.2379   9.2379   9.2503   9.2503   9.2503   9.2503   9.2503   9.2503
    12.9156  12.9156  12.9221  12.9221  12.9221  12.9221  12.9221  12.9221
    12.9986  12.9986  13.0034  13.0034  13.0034  13.0034  13.0034  13.0034
    14.9315  14.9315  14.9334  14.9334  14.9334  14.9334  14.9334  14.9334
    15.2343  15.2343  15.2343  15.2343  15.2343  15.2343  15.2775  15.2775
    16.4074  16.4074  16.4198  16.4198  16.4198  16.4198

     occupation numbers 
     1.0000   1.0000   1.0000   1.0000   1.0000   1.0000   1.0000   1.0000
     1.0000   1.0000   1.0000   1.0000   1.0000   1.0000   1.0000   1.0000
     1.0000   1.0000   1.0000   1.0000   1.0000   1.0000   1.0000   1.0000
     1.0000   1.0000   1.0000   1.0000   1.0000   1.0000   1.0000   1.0000
     1.0000   1.0000   1.0000   1.0000   1.0000   1.0000   1.0000   1.0000
     1.0000   1.0000   1.0000   1.0000   1.0000   1.0000   1.0000   1.0000
     1.0000   1.0000   1.0000   1.0000   1.0000   1.0000   1.0000   1.0000
     1.0000   1.0000   1.0000   1.0000   1.0000   1.0000   1.0000   1.0000
     0.5611   0.5611   0.5546   0.5546   0.5546   0.5546   0.5546   0.5546
    -0.0348  -0.0348  -0.0348  -0.0348  -0.0348  -0.0348  -0.0337  -0.0337
    -0.0000  -0.0000  -0.0000  -0.0000  -0.0000  -0.0000

          k = 0.0000 0.3333 0.1667 (  9647 PWs)   bands (ev):

   -56.5064 -56.5064 -56.4928 -56.4928 -56.4788 -56.4788 -56.4757 -56.4757
   -28.5891 -28.5842 -28.5778 -28.5760 -28.5437 -28.5408 -28.5061 -28.5054
   -27.6349 -27.6296 -27.5786 -27.5775 -27.5601 -27.5480 -27.5424 -27.5337
   -27.5211 -27.4948 -27.4844 -27.4732 -27.4640 -27.4527 -27.4395 -27.4361
     3.6326   3.6328   5.5373   5.5383   7.3650   7.3662   8.4325   8.4390
     9.7430   9.7455  10.2563  10.2625  10.9710  10.9742  11.0971  11.0997
    11.8627  11.8650  12.2417  12.2457  12.7968  12.8018  12.9747  12.9799
    13.0653  13.0716  13.2436  13.2499  13.3397  13.3443  13.4877  13.4924
    13.5376  13.5401  13.9653  13.9753  14.2287  14.2408  14.8889  14.9209
    15.2766  15.2949  15.3366  15.3536  15.6443  15.6720  15.7836  15.8093
    16.1537  16.1661  16.4210  16.4352  17.2703  17.3001

     occupation numbers 
     1.0000   1.0000   1.0000   1.0000   1.0000   1.0000   1.0000   1.0000
     1.0000   1.0000   1.0000   1.0000   1.0000   1.0000   1.0000   1.0000
     1.0000   1.0000   1.0000   1.0000   1.0000   1.0000   1.0000   1.0000
     1.0000   1.0000   1.0000   1.0000   1.0000   1.0000   1.0000   1.0000
     1.0000   1.0000   1.0000   1.0000   1.0000   1.0000   1.0000   1.0000
     1.0000   1.0000   1.0000   1.0000   1.0000   1.0000   1.0000   1.0000
     1.0000   1.0000   1.0000   1.0000   1.0000   1.0000   1.0000   1.0000
     1.0000   1.0000   1.0000   1.0000   1.0000   1.0000   1.0000   1.0000
     1.0000   1.0000   1.0000   1.0000   1.0001   1.0002   0.7014   0.5971
    -0.0338  -0.0313  -0.0239  -0.0207  -0.0002  -0.0001  -0.0000  -0.0000
    -0.0000  -0.0000  -0.0000  -0.0000  -0.0000  -0.0000

          k = 0.0000-0.5000 0.1667 (  9654 PWs)   bands (ev):

   -56.4999 -56.4999 -56.4999 -56.4999 -56.4770 -56.4770 -56.4770 -56.4770
   -28.5853 -28.5853 -28.5798 -28.5798 -28.5251 -28.5251 -28.5223 -28.5223
   -27.6333 -27.6333 -27.5715 -27.5715 -27.5587 -27.5587 -27.5339 -27.5339
   -27.5115 -27.5115 -27.4793 -27.4793 -27.4597 -27.4597 -27.4369 -27.4369
     4.4929   4.4929   4.4934   4.4934   7.8970   7.8970   7.9017   7.9017
    10.1025  10.1025  10.1075  10.1075  10.8747  10.8747  10.8819  10.8819
    12.1412  12.1412  12.1461  12.1461  12.8617  12.8617  12.8708  12.8708
    13.1078  13.1078  13.1158  13.1158  13.3965  13.3965  13.4057  13.4057
    13.8069  13.8069  13.8123  13.8123  14.6067  14.6067  14.6378  14.6378
    15.2584  15.2584  15.2807  15.2807  15.6823  15.6823  15.7108  15.7108
    16.2146  16.2146  16.2263  16.2263  17.5914  17.5975

     occupation numbers 
     1.0000   1.0000   1.0000   1.0000   1.0000   1.0000   1.0000   1.0000
     1.0000   1.0000   1.0000   1.0000   1.0000   1.0000   1.0000   1.0000
     1.0000   1.0000   1.0000   1.0000   1.0000   1.0000   1.0000   1.0000
     1.0000   1.0000   1.0000   1.0000   1.0000   1.0000   1.0000   1.0000
     1.0000   1.0000   1.0000   1.0000   1.0000   1.0000   1.0000   1.0000
     1.0000   1.0000   1.0000   1.0000   1.0000   1.0000   1.0000   1.0000
     1.0000   1.0000   1.0000   1.0000   1.0000   1.0000   1.0000   1.0000
     1.0000   1.0000   1.0000   1.0000   1.0000   1.0000   1.0000   1.0000
     1.0000   1.0000   1.0000   1.0000   1.0318   1.0318   1.0351   1.0351
    -0.0352  -0.0352  -0.0333  -0.0333  -0.0001  -0.0001  -0.0000  -0.0000
    -0.0000  -0.0000  -0.0000  -0.0000  -0.0000  -0.0000

          k = 0.0000-0.5000 0.3333 (  9646 PWs)   bands (ev):

   -56.4981 -56.4981 -56.4981 -56.4981 -56.4788 -56.4788 -56.4788 -56.4788
   -28.5794 -28.5794 -28.5752 -28.5752 -28.5315 -28.5315 -28.5283 -28.5283
   -27.6213 -27.6213 -27.5834 -27.5834 -27.5501 -27.5501 -27.5310 -27.5310
   -27.5206 -27.5206 -27.4977 -27.4977 -27.4470 -27.4470 -27.4327 -27.4327
     4.9489   4.9489   4.9498   4.9498   7.0317   7.0317   7.0342   7.0342
    10.5070  10.5070  10.5104  10.5104  10.8270  10.8270  10.8292  10.8292
    11.9937  11.9937  11.9991  11.9991  12.4094  12.4094  12.4200  12.4200
    13.2668  13.2668  13.2732  13.2732  13.9136  13.9136  13.9200  13.9200
    13.9552  13.9552  13.9684  13.9684  14.6422  14.6422  14.6757  14.6757
    14.9015  14.9015  14.9374  14.9374  15.4783  15.4783  15.5014  15.5014
    16.3852  16.3852  16.3971  16.3971  17.2932  17.2947

     occupation numbers 
     1.0000   1.0000   1.0000   1.0000   1.0000   1.0000   1.0000   1.0000
     1.0000   1.0000   1.0000   1.0000   1.0000   1.0000   1.0000   1.0000
     1.0000   1.0000   1.0000   1.0000   1.0000   1.0000   1.0000   1.0000
     1.0000   1.0000   1.0000   1.0000   1.0000   1.0000   1.0000   1.0000
     1.0000   1.0000   1.0000   1.0000   1.0000   1.0000   1.0000   1.0000
     1.0000   1.0000   1.0000   1.0000   1.0000   1.0000   1.0000   1.0000
     1.0000   1.0000   1.0000   1.0000   1.0000   1.0000   1.0000   1.0000
     1.0000   1.0000   1.0000   1.0000   1.0000   1.0000   1.0000   1.0000
     1.0000   1.0000   1.0000   1.0000   1.0353   1.0353   1.0334   1.0334
     0.6614   0.6614   0.5407   0.5407  -0.0046  -0.0046  -0.0032  -0.0032
    -0.0000  -0.0000  -0.0000  -0.0000  -0.0000  -0.0000

          k =-0.1667-0.5000 0.3333 (  9682 PWs)   bands (ev):

   -56.4970 -56.4970 -56.4970 -56.4970 -56.4798 -56.4798 -56.4798 -56.4798
   -28.5771 -28.5771 -28.5729 -28.5729 -28.5344 -28.5344 -28.5311 -28.5311
   -27.6181 -27.6181 -27.5813 -27.5813 -27.5579 -27.5579 -27.5331 -27.5331
   -27.5198 -27.5198 -27.4879 -27.4879 -27.4518 -27.4518 -27.4335 -27.4335
     5.0998   5.0998   5.1009   5.1009   7.0751   7.0751   7.0790   7.0790
     9.6359   9.6359   9.6387   9.6387  11.1974  11.1974  11.2004  11.2004
    11.9963  11.9963  12.0029  12.0029  12.6304  12.6304  12.6407  12.6407
    13.1712  13.1712  13.1792  13.1792  13.6489  13.6489  13.6606  13.6606
    14.1689  14.1689  14.1782  14.1782  14.7151  14.7151  14.7403  14.7403
    14.9605  14.9605  14.9918  14.9918  15.4229  15.4229  15.4401  15.4401
    16.3546  16.3546  16.3654  16.3654  17.2141  17.2163

     occupation numbers 
     1.0000   1.0000   1.0000   1.0000   1.0000   1.0000   1.0000   1.0000
     1.0000   1.0000   1.0000   1.0000   1.0000   1.0000   1.0000   1.0000
     1.0000   1.0000   1.0000   1.0000   1.0000   1.0000   1.0000   1.0000
     1.0000   1.0000   1.0000   1.0000   1.0000   1.0000   1.0000   1.0000
     1.0000   1.0000   1.0000   1.0000   1.0000   1.0000   1.0000   1.0000
     1.0000   1.0000   1.0000   1.0000   1.0000   1.0000   1.0000   1.0000
     1.0000   1.0000   1.0000   1.0000   1.0000   1.0000   1.0000   1.0000
     1.0000   1.0000   1.0000   1.0000   1.0000   1.0000   1.0000   1.0000
     1.0000   1.0000   1.0000   1.0000   1.0200   1.0200   1.0024   1.0024
     0.4610   0.4610   0.3552   0.3552  -0.0098  -0.0098  -0.0079  -0.0079
    -0.0000  -0.0000  -0.0000  -0.0000  -0.0000  -0.0000

     the Fermi energy is    14.9492 ev

!    total energy              =   -1180.35040477 Ry

     total all-electron energy =    -10727.811241 Ry
     estimated scf accuracy    <       0.00000006 Ry
     smearing contrib. (-TS)   =      -0.00120320 Ry
     internal energy E=F+TS    =   -1180.34920157 Ry

     The total energy is F=E-TS. E is the sum of the following terms:
     one-electron contribution =    -336.79151781 Ry
     hartree contribution      =     207.03644494 Ry
     xc contribution           =    -114.36137994 Ry
     ewald contribution        =    -496.51183961 Ry
     one-center paw contrib.   =    -439.72090915 Ry
      -> PAW hartree energy AE =     126.71363122 Ry
      -> PAW hartree energy PS =    -125.74629852 Ry
      -> PAW xc energy AE      =     -96.23958274 Ry
      -> PAW xc energy PS      =      20.93223820 Ry
      -> total E_H with PAW    =     208.00377764 Ry
      -> total E_XC with PAW   =    -189.66872447 Ry

     convergence has been achieved in   8 iterations

     Forces acting on atoms (cartesian axes, Ry/au):

     atom    1 type  1   force =    -0.00288420   -0.00288420    0.00288420
     atom    2 type  1   force =    -0.00288420    0.00288420   -0.00288420
     atom    3 type  1   force =     0.00288420   -0.00288420   -0.00288420
     atom    4 type  1   force =     0.00288420    0.00288420    0.00288420
     atom    5 type  2   force =    -0.00412663   -0.00412663    0.00412663
     atom    6 type  2   force =    -0.00412663    0.00412663   -0.00412663
     atom    7 type  2   force =     0.00412663   -0.00412663   -0.00412663
     atom    8 type  2   force =     0.00412663    0.00412663    0.00412663
     The non-local contrib.  to forces
     atom    1 type  1   force =     0.05133542    0.05133542   -0.05133542
     atom    2 type  1   force =     0.05133542   -0.05133542    0.05133542
     atom    3 type  1   force =    -0.05133542    0.05133542    0.05133542
     atom    4 type  1   force =    -0.05133542   -0.05133542   -0.05133542
     atom    5 type  2   force =    -0.00810654   -0.00810654    0.00810654
     atom    6 type  2   force =    -0.00810654    0.00810654   -0.00810654
     atom    7 type  2   force =     0.00810654   -0.00810654   -0.00810654
     atom    8 type  2   force =     0.00810654    0.00810654    0.00810654
     The ionic contribution  to forces
     atom    1 type  1   force =    -0.85044630   -0.85044630    0.85044630
     atom    2 type  1   force =    -0.85044630    0.85044630   -0.85044630
     atom    3 type  1   force =     0.85044630   -0.85044630   -0.85044630
     atom    4 type  1   force =     0.85044630    0.85044630    0.85044630
     atom    5 type  2   force =    -0.24524978   -0.24524978    0.24524978
     atom    6 type  2   force =    -0.24524978    0.24524978   -0.24524978
     atom    7 type  2   force =     0.24524978   -0.24524978   -0.24524978
     atom    8 type  2   force =     0.24524978    0.24524978    0.24524978
     The local contribution  to forces
     atom    1 type  1   force =     0.79725213    0.79725213   -0.79725213
     atom    2 type  1   force =     0.79725213   -0.79725213    0.79725213
     atom    3 type  1   force =    -0.79725213    0.79725213    0.79725213
     atom    4 type  1   force =    -0.79725213   -0.79725213   -0.79725213
     atom    5 type  2   force =     0.24843534    0.24843534   -0.24843534
     atom    6 type  2   force =     0.24843534   -0.24843534    0.24843534
     atom    7 type  2   force =    -0.24843534    0.24843534    0.24843534
     atom    8 type  2   force =    -0.24843534   -0.24843534   -0.24843534
     The core correction contribution to forces
     atom    1 type  1   force =    -0.00103449   -0.00103449    0.00103449
     atom    2 type  1   force =    -0.00103449    0.00103449   -0.00103449
     atom    3 type  1   force =     0.00103449   -0.00103449   -0.00103449
     atom    4 type  1   force =     0.00103449    0.00103449    0.00103449
     atom    5 type  2   force =     0.00080091    0.00080091   -0.00080091
     atom    6 type  2   force =     0.00080091   -0.00080091    0.00080091
     atom    7 type  2   force =    -0.00080091    0.00080091    0.00080091
     atom    8 type  2   force =    -0.00080091   -0.00080091   -0.00080091
     The Hubbard contrib.    to forces
     atom    1 type  1   force =     0.00000000    0.00000000    0.00000000
     atom    2 type  1   force =     0.00000000    0.00000000    0.00000000
     atom    3 type  1   force =     0.00000000    0.00000000    0.00000000
     atom    4 type  1   force =     0.00000000    0.00000000    0.00000000
     atom    5 type  2   force =     0.00000000    0.00000000    0.00000000
     atom    6 type  2   force =     0.00000000    0.00000000    0.00000000
     atom    7 type  2   force =     0.00000000    0.00000000    0.00000000
     atom    8 type  2   force =     0.00000000    0.00000000    0.00000000
     The SCF correction term to forces
     atom    1 type  1   force =     0.00000904    0.00000904   -0.00000904
     atom    2 type  1   force =     0.00000904   -0.00000904    0.00000904
     atom    3 type  1   force =    -0.00000904    0.00000904    0.00000904
     atom    4 type  1   force =    -0.00000904   -0.00000904   -0.00000904
     atom    5 type  2   force =    -0.00000656   -0.00000656    0.00000656
     atom    6 type  2   force =    -0.00000656    0.00000656   -0.00000656
     atom    7 type  2   force =     0.00000656   -0.00000656   -0.00000656
     atom    8 type  2   force =     0.00000656    0.00000656    0.00000656

     Total force =     0.017441     Total SCF correction =     0.000039


     Computing stress (Cartesian axis) and pressure

          total   stress  (Ry/bohr**3)                   (kbar)     P=      -42.67
  -0.00029004   0.00000000   0.00000000          -42.67        0.00        0.00
   0.00000000  -0.00029004   0.00000000            0.00      -42.67        0.00
   0.00000000   0.00000000  -0.00029004            0.00        0.00      -42.67

     kinetic stress (kbar)  35759.91      0.00      0.00
                                0.00  35759.91      0.00
                                0.00      0.00  35759.91

     local   stress (kbar) -10012.33      0.00     -0.00
                                0.00 -10012.33     -0.00
                               -0.00     -0.00 -10012.33

     nonloc. stress (kbar)   2426.75      0.00      0.00
                                0.00   2426.75      0.00
                                0.00      0.00   2426.75

     hartree stress (kbar)  15166.84      0.00      0.00
                                0.00  15166.84     -0.00
                                0.00     -0.00  15166.84

     exc-cor stress (kbar)  -1706.55     -0.00     -0.00
                               -0.00  -1706.55     -0.00
                               -0.00     -0.00  -1706.55

     corecor stress (kbar)  -5304.38     -0.00     -0.00
                               -0.00  -5304.38      0.00
                               -0.00      0.00  -5304.38

     ewald   stress (kbar) -36372.90      0.00      0.00
                                0.00 -36372.90      0.00
                                0.00      0.00 -36372.90

     hubbard stress (kbar)      0.00      0.00      0.00
                                0.00      0.00      0.00
                                0.00      0.00      0.00

     DFT-D   stress (kbar)      0.00      0.00      0.00
                                0.00      0.00      0.00
                                0.00      0.00      0.00

     XDM     stress (kbar)      0.00      0.00      0.00
                                0.00      0.00      0.00
                                0.00      0.00      0.00

     dft-nl  stress (kbar)      0.00      0.00      0.00
                                0.00      0.00      0.00
                                0.00      0.00      0.00

     TS-vdW  stress (kbar)      0.00      0.00      0.00
                                0.00      0.00      0.00
                                0.00      0.00      0.00



     Writing output data file /zfs_data/vergnior/martin/Scratch/OAL/CrSi/convergence/smearing/6x6x6/0.018/tmp/CrSi.save/
 
     init_run     :      4.54s CPU      4.79s WALL (       1 calls)
     electrons    :    113.87s CPU    116.96s WALL (       1 calls)
     forces       :      3.94s CPU      4.01s WALL (       1 calls)
     stress       :     10.35s CPU     10.56s WALL (       1 calls)

     Called by init_run:
     wfcinit      :      3.36s CPU      3.44s WALL (       1 calls)
     wfcinit:atom :      0.03s CPU      0.03s WALL (      24 calls)
     wfcinit:wfcr :      3.20s CPU      3.28s WALL (      24 calls)
     potinit      :      0.19s CPU      0.26s WALL (       1 calls)
     hinit0       :      0.17s CPU      0.18s WALL (       1 calls)

     Called by electrons:
     c_bands      :     89.09s CPU     90.55s WALL (       9 calls)
     sum_band     :     19.50s CPU     20.55s WALL (       9 calls)
     v_of_rho     :      0.21s CPU      0.22s WALL (       9 calls)
     v_h          :      0.02s CPU      0.02s WALL (       9 calls)
     v_xc         :      0.23s CPU      0.24s WALL (      11 calls)
     newd         :      4.33s CPU      4.95s WALL (       9 calls)
     PAW_pot      :      1.12s CPU      1.13s WALL (       9 calls)
     mix_rho      :      0.12s CPU      0.13s WALL (       9 calls)

     Called by c_bands:
     init_us_2    :      0.48s CPU      0.49s WALL (     504 calls)
     cegterg      :     80.67s CPU     82.01s WALL (     216 calls)

     Called by sum_band:
     sum_band:wei :      0.03s CPU      0.03s WALL (       9 calls)
     sum_band:loo :     16.30s CPU     16.56s WALL (       9 calls)
     sum_band:buf :      0.14s CPU      0.15s WALL (     216 calls)
     sum_band:ini :      0.22s CPU      0.22s WALL (     216 calls)
     sum_band:cal :      1.13s CPU      1.14s WALL (     216 calls)
     sum_band:bec :      2.77s CPU      2.78s WALL (     216 calls)
     addusdens    :      2.98s CPU      3.77s WALL (       9 calls)
     addusd:skk   :      0.01s CPU      0.01s WALL (      18 calls)
     addusd:dgemm :      1.14s CPU      1.90s WALL (      18 calls)
     addusd:qvan2 :      1.79s CPU      1.80s WALL (      18 calls)

     Called by *egterg:
     cdiaghg      :      8.06s CPU      8.09s WALL (    1137 calls)
     cegterg:over :      4.17s CPU      4.20s WALL (     945 calls)
     cegterg:upda :      2.19s CPU      2.20s WALL (     945 calls)
     cegterg:last :      3.89s CPU      3.90s WALL (     552 calls)
     h_psi        :     55.36s CPU     56.61s WALL (    1185 calls)
     s_psi        :      8.00s CPU      8.04s WALL (    1185 calls)
     g_psi        :      0.13s CPU      0.13s WALL (     945 calls)

     Called by h_psi:
     h_psi:calbec :      3.85s CPU      3.88s WALL (    1185 calls)
     vloc_psi     :     43.81s CPU     44.97s WALL (    1185 calls)
     add_vuspsi   :      7.43s CPU      7.48s WALL (    1185 calls)

     General routines
     calbec       :      5.54s CPU      5.58s WALL (    1521 calls)
     fft          :      0.22s CPU      0.22s WALL (     216 calls)
     ffts         :      0.03s CPU      0.09s WALL (      72 calls)
     fftw         :     40.94s CPU     42.00s WALL (  277976 calls)
     interpolate  :      0.06s CPU      0.12s WALL (      36 calls)
 
     Parallel routines
     fft_scatt_xy :      3.98s CPU      4.07s WALL (  278264 calls)
     fft_scatt_yz :     14.90s CPU     15.28s WALL (  278264 calls)

     PAW routines
     PAW_pot      :      1.12s CPU      1.13s WALL (       9 calls)
     PAW_symme    :      0.02s CPU      0.02s WALL (      18 calls)
 
     PWSCF        :   2m15.68s CPU   2m20.40s WALL

 
   This run was terminated on:  12:46:41   1Aug2021            

=------------------------------------------------------------------------------=
   JOB DONE.
=------------------------------------------------------------------------------=
