MPI startup(): Warning: I_MPI_PMI_LIBRARY will be ignored since the hydra process manager was found
MPI startup(): Warning: I_MPI_PMI_LIBRARY will be ignored since the hydra process manager was found
MPI startup(): Warning: I_MPI_PMI_LIBRARY will be ignored since the hydra process manager was found
MPI startup(): Warning: I_MPI_PMI_LIBRARY will be ignored since the hydra process manager was found
MPI startup(): Warning: I_MPI_PMI_LIBRARY will be ignored since the hydra process manager was found
MPI startup(): Warning: I_MPI_PMI_LIBRARY will be ignored since the hydra process manager was found
MPI startup(): Warning: I_MPI_PMI_LIBRARY will be ignored since the hydra process manager was found
MPI startup(): Warning: I_MPI_PMI_LIBRARY will be ignored since the hydra process manager was found
MPI startup(): Warning: I_MPI_PMI_LIBRARY will be ignored since the hydra process manager was found
MPI startup(): Warning: I_MPI_PMI_LIBRARY will be ignored since the hydra process manager was found
MPI startup(): Warning: I_MPI_PMI_LIBRARY will be ignored since the hydra process manager was found
MPI startup(): Warning: I_MPI_PMI_LIBRARY will be ignored since the hydra process manager was found
MPI startup(): Warning: I_MPI_PMI_LIBRARY will be ignored since the hydra process manager was found
MPI startup(): Warning: I_MPI_PMI_LIBRARY will be ignored since the hydra process manager was found
MPI startup(): Warning: I_MPI_PMI_LIBRARY will be ignored since the hydra process manager was found
MPI startup(): Warning: I_MPI_PMI_LIBRARY will be ignored since the hydra process manager was found
MPI startup(): Warning: I_MPI_PMI_LIBRARY will be ignored since the hydra process manager was found
MPI startup(): Warning: I_MPI_PMI_LIBRARY will be ignored since the hydra process manager was found
MPI startup(): Warning: I_MPI_PMI_LIBRARY will be ignored since the hydra process manager was found
MPI startup(): Warning: I_MPI_PMI_LIBRARY will be ignored since the hydra process manager was found
MPI startup(): Warning: I_MPI_PMI_LIBRARY will be ignored since the hydra process manager was found
MPI startup(): Warning: I_MPI_PMI_LIBRARY will be ignored since the hydra process manager was found
MPI startup(): Warning: I_MPI_PMI_LIBRARY will be ignored since the hydra process manager was found
MPI startup(): Warning: I_MPI_PMI_LIBRARY will be ignored since the hydra process manager was found

     Program PWSCF v.6.7MaX starts on 30Jul2021 at 18:27:33 

     This program is part of the open-source Quantum ESPRESSO suite
     for quantum simulation of materials; please cite
         "P. Giannozzi et al., J. Phys.:Condens. Matter 21 395502 (2009);
         "P. Giannozzi et al., J. Phys.:Condens. Matter 29 465901 (2017);
          URL http://www.quantum-espresso.org", 
     in publications or presentations arising from this work. More details at
     http://www.quantum-espresso.org/quote

     Parallel version (MPI), running on    24 processors

     MPI processes distributed on     1 nodes
     R & G space division:  proc/nbgrp/npool/nimage =      24
     Waiting for input...
     Reading input from standard input

     Current dimensions of program PWSCF are:
     Max number of different atomic species (ntypx) = 10
     Max number of k-points (npk) =  40000
     Max angular momentum in pseudopotentials (lmaxx) =  3
     file Cr.rel-pbe-spn-kjpaw_psl.1.0.0.UPF: wavefunction(s)  3S 3P 3P 3D 3D renormalized
     file Si.rel-pbe-n-kjpaw_psl.1.0.0.UPF: wavefunction(s)  3S 3P 3P renormalized

     Subspace diagonalization in iterative solution of the eigenvalue problem:
     a serial algorithm will be used

     Message from routine setup:
     using ibrav=0 with symmetry is DISCOURAGED, use correct ibrav instead
 
     Parallelization info
     --------------------
     sticks:   dense  smooth     PW     G-vecs:    dense   smooth      PW
     Min         280     112     31                17184     4344     645
     Max         281     113     32                17186     4347     650
     Sum        6721    2693    749               412421   104295   15515
 


     bravais-lattice index     =            0
     lattice parameter (alat)  =       8.7475  a.u.
     unit-cell volume          =     669.3575 (a.u.)^3
     number of atoms/cell      =            8
     number of atomic types    =            2
     number of electrons       =        72.00
     number of Kohn-Sham states=           86
     kinetic-energy cutoff     =     110.0000  Ry
     charge density cutoff     =    1100.0000  Ry
     scf convergence threshold =      1.0E-06
     mixing beta               =       0.7000
     number of iterations used =            8  plain     mixing
     Exchange-correlation= SLA  PW   PBX  PBC
                           (   1   4   3   4   0   0   0)
     Non magnetic calculation with spin-orbit


     celldm(1)=   8.747542  celldm(2)=   0.000000  celldm(3)=   0.000000
     celldm(4)=   0.000000  celldm(5)=   0.000000  celldm(6)=   0.000000

     crystal axes: (cart. coord. in units of alat)
               a(1) = (   1.000000   0.000000   0.000000 )  
               a(2) = (   0.000000   1.000000   0.000000 )  
               a(3) = (   0.000000   0.000000   1.000000 )  

     reciprocal axes: (cart. coord. in units 2 pi/alat)
               b(1) = (  1.000000  0.000000  0.000000 )  
               b(2) = (  0.000000  1.000000  0.000000 )  
               b(3) = (  0.000000  0.000000  1.000000 )  


     PseudoPot. # 1 for Cr read from file:
     ../../../../pseudo/Cr.rel-pbe-spn-kjpaw_psl.1.0.0.UPF
     MD5 check sum: 1e24e2b5251376a8b945118fca0c7981
     Pseudo is Projector augmented-wave + core cor, Zval = 14.0
     Generated using &quot;atomic&quot; code by A. Dal Corso  v.6.3
     Shape of augmentation charge: PSQ
     Using radial grid of 1183 points, 10 beta functions with: 
                l(1) =   0
                l(2) =   0
                l(3) =   1
                l(4) =   1
                l(5) =   1
                l(6) =   1
                l(7) =   2
                l(8) =   2
                l(9) =   2
               l(10) =   2
     Q(r) pseudized with 0 coefficients 


     PseudoPot. # 2 for Si read from file:
     ../../../../pseudo/Si.rel-pbe-n-kjpaw_psl.1.0.0.UPF
     MD5 check sum: d74f6caf6830ea4c2076867160cab1b0
     Pseudo is Projector augmented-wave + core cor, Zval =  4.0
     Generated using &quot;atomic&quot; code by A. Dal Corso  v.6.3
     Shape of augmentation charge: PSQ
     Using radial grid of 1141 points, 10 beta functions with: 
                l(1) =   0
                l(2) =   0
                l(3) =   1
                l(4) =   1
                l(5) =   1
                l(6) =   1
                l(7) =   2
                l(8) =   2
                l(9) =   2
               l(10) =   2
     Q(r) pseudized with 0 coefficients 


     atomic species   valence    mass     pseudopotential
        Cr            14.00    51.99600     Cr( 1.00)
        Si             4.00    28.08500     Si( 1.00)

     12 Sym. Ops. (no inversion) found ( 9 have fractional translation)


                                    s                        frac. trans.

      isym =  1     identity                                     

 cryst.   s( 1) = (     1          0          0      )
                  (     0          1          0      )
                  (     0          0          1      )

 cart.    s( 1) = (  1.0000000  0.0000000  0.0000000 )
                  (  0.0000000  1.0000000  0.0000000 )
                  (  0.0000000  0.0000000  1.0000000 )


      isym =  2     180 deg rotation - cart. axis [0,0,1]        

 cryst.   s( 2) = (    -1          0          0      )    f =(  0.5000000 )
                  (     0         -1          0      )       (  0.0000000 )
                  (     0          0          1      )       ( -0.5000000 )

 cart.    s( 2) = ( -1.0000000  0.0000000  0.0000000 )    f =(  0.5000000 )
                  (  0.0000000 -1.0000000  0.0000000 )       (  0.0000000 )
                  (  0.0000000  0.0000000  1.0000000 )       ( -0.5000000 )


      isym =  3     180 deg rotation - cart. axis [0,1,0]        

 cryst.   s( 3) = (    -1          0          0      )    f =(  0.0000000 )
                  (     0          1          0      )       ( -0.5000000 )
                  (     0          0         -1      )       (  0.5000000 )

 cart.    s( 3) = ( -1.0000000  0.0000000  0.0000000 )    f =(  0.0000000 )
                  (  0.0000000  1.0000000  0.0000000 )       ( -0.5000000 )
                  (  0.0000000  0.0000000 -1.0000000 )       (  0.5000000 )


      isym =  4     180 deg rotation - cart. axis [1,0,0]        

 cryst.   s( 4) = (     1          0          0      )    f =(  0.5000000 )
                  (     0         -1          0      )       (  0.5000000 )
                  (     0          0         -1      )       (  0.0000000 )

 cart.    s( 4) = (  1.0000000  0.0000000  0.0000000 )    f =(  0.5000000 )
                  (  0.0000000 -1.0000000  0.0000000 )       (  0.5000000 )
                  (  0.0000000  0.0000000 -1.0000000 )       (  0.0000000 )


      isym =  5     120 deg rotation - cart. axis [-1,-1,-1]     

 cryst.   s( 5) = (     0          0          1      )
                  (     1          0          0      )
                  (     0          1          0      )

 cart.    s( 5) = (  0.0000000  1.0000000  0.0000000 )
                  (  0.0000000  0.0000000  1.0000000 )
                  (  1.0000000  0.0000000  0.0000000 )


      isym =  6     120 deg rotation - cart. axis [-1,1,1]       

 cryst.   s( 6) = (     0          0         -1      )    f =(  0.0000000 )
                  (    -1          0          0      )       ( -0.5000000 )
                  (     0          1          0      )       (  0.5000000 )

 cart.    s( 6) = (  0.0000000 -1.0000000  0.0000000 )    f =(  0.0000000 )
                  (  0.0000000  0.0000000  1.0000000 )       ( -0.5000000 )
                  ( -1.0000000  0.0000000  0.0000000 )       (  0.5000000 )


      isym =  7     120 deg rotation - cart. axis [1,1,-1]       

 cryst.   s( 7) = (     0          0         -1      )    f =(  0.5000000 )
                  (     1          0          0      )       (  0.5000000 )
                  (     0         -1          0      )       (  0.0000000 )

 cart.    s( 7) = (  0.0000000  1.0000000  0.0000000 )    f =(  0.5000000 )
                  (  0.0000000  0.0000000 -1.0000000 )       (  0.5000000 )
                  ( -1.0000000  0.0000000  0.0000000 )       (  0.0000000 )


      isym =  8     120 deg rotation - cart. axis [1,-1,1]       

 cryst.   s( 8) = (     0          0          1      )    f =(  0.5000000 )
                  (    -1          0          0      )       (  0.0000000 )
                  (     0         -1          0      )       ( -0.5000000 )

 cart.    s( 8) = (  0.0000000 -1.0000000  0.0000000 )    f =(  0.5000000 )
                  (  0.0000000  0.0000000 -1.0000000 )       (  0.0000000 )
                  (  1.0000000  0.0000000  0.0000000 )       ( -0.5000000 )


      isym =  9     120 deg rotation - cart. axis [1,1,1]        

 cryst.   s( 9) = (     0          1          0      )
                  (     0          0          1      )
                  (     1          0          0      )

 cart.    s( 9) = (  0.0000000  0.0000000  1.0000000 )
                  (  1.0000000  0.0000000  0.0000000 )
                  (  0.0000000  1.0000000  0.0000000 )


      isym = 10     120 deg rotation - cart. axis [-1,1,-1]      

 cryst.   s(10) = (     0         -1          0      )    f =(  0.5000000 )
                  (     0          0         -1      )       (  0.5000000 )
                  (     1          0          0      )       (  0.0000000 )

 cart.    s(10) = (  0.0000000  0.0000000  1.0000000 )    f =(  0.5000000 )
                  ( -1.0000000  0.0000000  0.0000000 )       (  0.5000000 )
                  (  0.0000000 -1.0000000  0.0000000 )       (  0.0000000 )


      isym = 11     120 deg rotation - cart. axis [1,-1,-1]      

 cryst.   s(11) = (     0         -1          0      )    f =(  0.5000000 )
                  (     0          0          1      )       (  0.0000000 )
                  (    -1          0          0      )       ( -0.5000000 )

 cart.    s(11) = (  0.0000000  0.0000000 -1.0000000 )    f =(  0.5000000 )
                  ( -1.0000000  0.0000000  0.0000000 )       (  0.0000000 )
                  (  0.0000000  1.0000000  0.0000000 )       ( -0.5000000 )


      isym = 12     120 deg rotation - cart. axis [-1,-1,1]      

 cryst.   s(12) = (     0          1          0      )    f =(  0.0000000 )
                  (     0          0         -1      )       ( -0.5000000 )
                  (    -1          0          0      )       (  0.5000000 )

 cart.    s(12) = (  0.0000000  0.0000000 -1.0000000 )    f =(  0.0000000 )
                  (  1.0000000  0.0000000  0.0000000 )       ( -0.5000000 )
                  (  0.0000000 -1.0000000  0.0000000 )       (  0.5000000 )


   Cartesian axes

     site n.     atom                  positions (alat units)
         1           Cr  tau(   1) = (   0.8640000   0.3640000   0.1360000  )
         2           Cr  tau(   2) = (   0.3640000   0.1360000   0.8640000  )
         3           Cr  tau(   3) = (   0.1360000   0.8640000   0.3640000  )
         4           Cr  tau(   4) = (   0.6360000   0.6360000   0.6360000  )
         5           Si  tau(   5) = (   0.1540000   0.6540000   0.8460000  )
         6           Si  tau(   6) = (   0.6540000   0.8460000   0.1540000  )
         7           Si  tau(   7) = (   0.8460000   0.1540000   0.6540000  )
         8           Si  tau(   8) = (   0.3460000   0.3460000   0.3460000  )

   Crystallographic axes

     site n.     atom                  positions (cryst. coord.)
         1           Cr  tau(   1) = (  0.8640000  0.3640000  0.1360000  )
         2           Cr  tau(   2) = (  0.3640000  0.1360000  0.8640000  )
         3           Cr  tau(   3) = (  0.1360000  0.8640000  0.3640000  )
         4           Cr  tau(   4) = (  0.6360000  0.6360000  0.6360000  )
         5           Si  tau(   5) = (  0.1540000  0.6540000  0.8460000  )
         6           Si  tau(   6) = (  0.6540000  0.8460000  0.1540000  )
         7           Si  tau(   7) = (  0.8460000  0.1540000  0.6540000  )
         8           Si  tau(   8) = (  0.3460000  0.3460000  0.3460000  )

     number of k points=    24  Methfessel-Paxton smearing, width (Ry)=  0.0200
                       cart. coord. in units 2pi/alat
        k(    1) = (   0.0000000   0.0000000   0.0000000), wk =   0.0046296
        k(    2) = (   0.0000000   0.0000000   0.1666667), wk =   0.0277778
        k(    3) = (   0.0000000   0.0000000   0.3333333), wk =   0.0277778
        k(    4) = (   0.0000000   0.0000000  -0.5000000), wk =   0.0138889
        k(    5) = (   0.0000000   0.1666667   0.1666667), wk =   0.0555556
        k(    6) = (   0.0000000   0.1666667   0.3333333), wk =   0.0555556
        k(    7) = (   0.0000000   0.1666667  -0.5000000), wk =   0.0277778
        k(    8) = (   0.0000000   0.3333333   0.3333333), wk =   0.0555556
        k(    9) = (   0.0000000   0.3333333  -0.5000000), wk =   0.0277778
        k(   10) = (   0.0000000  -0.5000000  -0.5000000), wk =   0.0138889
        k(   11) = (   0.1666667   0.1666667   0.1666667), wk =   0.0370370
        k(   12) = (   0.1666667   0.1666667   0.3333333), wk =   0.1111111
        k(   13) = (   0.1666667   0.1666667  -0.5000000), wk =   0.0555556
        k(   14) = (   0.1666667   0.3333333   0.3333333), wk =   0.1111111
        k(   15) = (   0.1666667   0.3333333  -0.5000000), wk =   0.0555556
        k(   16) = (   0.1666667  -0.5000000  -0.5000000), wk =   0.0277778
        k(   17) = (   0.3333333   0.3333333   0.3333333), wk =   0.0370370
        k(   18) = (   0.3333333   0.3333333  -0.5000000), wk =   0.0555556
        k(   19) = (   0.3333333  -0.5000000  -0.5000000), wk =   0.0277778
        k(   20) = (  -0.5000000  -0.5000000  -0.5000000), wk =   0.0046296
        k(   21) = (   0.0000000   0.3333333   0.1666667), wk =   0.0555556
        k(   22) = (   0.0000000  -0.5000000   0.1666667), wk =   0.0277778
        k(   23) = (   0.0000000  -0.5000000   0.3333333), wk =   0.0277778
        k(   24) = (  -0.1666667  -0.5000000   0.3333333), wk =   0.0555556

                       cryst. coord.
        k(    1) = (   0.0000000   0.0000000   0.0000000), wk =   0.0046296
        k(    2) = (   0.0000000   0.0000000   0.1666667), wk =   0.0277778
        k(    3) = (   0.0000000   0.0000000   0.3333333), wk =   0.0277778
        k(    4) = (   0.0000000   0.0000000  -0.5000000), wk =   0.0138889
        k(    5) = (   0.0000000   0.1666667   0.1666667), wk =   0.0555556
        k(    6) = (   0.0000000   0.1666667   0.3333333), wk =   0.0555556
        k(    7) = (   0.0000000   0.1666667  -0.5000000), wk =   0.0277778
        k(    8) = (   0.0000000   0.3333333   0.3333333), wk =   0.0555556
        k(    9) = (   0.0000000   0.3333333  -0.5000000), wk =   0.0277778
        k(   10) = (   0.0000000  -0.5000000  -0.5000000), wk =   0.0138889
        k(   11) = (   0.1666667   0.1666667   0.1666667), wk =   0.0370370
        k(   12) = (   0.1666667   0.1666667   0.3333333), wk =   0.1111111
        k(   13) = (   0.1666667   0.1666667  -0.5000000), wk =   0.0555556
        k(   14) = (   0.1666667   0.3333333   0.3333333), wk =   0.1111111
        k(   15) = (   0.1666667   0.3333333  -0.5000000), wk =   0.0555556
        k(   16) = (   0.1666667  -0.5000000  -0.5000000), wk =   0.0277778
        k(   17) = (   0.3333333   0.3333333   0.3333333), wk =   0.0370370
        k(   18) = (   0.3333333   0.3333333  -0.5000000), wk =   0.0555556
        k(   19) = (   0.3333333  -0.5000000  -0.5000000), wk =   0.0277778
        k(   20) = (  -0.5000000  -0.5000000  -0.5000000), wk =   0.0046296
        k(   21) = (   0.0000000   0.3333333   0.1666667), wk =   0.0555556
        k(   22) = (   0.0000000  -0.5000000   0.1666667), wk =   0.0277778
        k(   23) = (   0.0000000  -0.5000000   0.3333333), wk =   0.0277778
        k(   24) = (  -0.1666667  -0.5000000   0.3333333), wk =   0.0555556

     Dense  grid:   412421 G-vectors     FFT dimensions: (  96,  96,  96)

     Smooth grid:   104295 G-vectors     FFT dimensions: (  60,  60,  60)

     Dynamical RAM for                 wfc:       1.43 MB

     Dynamical RAM for     wfc (w. buffer):      35.63 MB

     Dynamical RAM for           str. fact:       0.52 MB

     Dynamical RAM for           local pot:       0.00 MB

     Dynamical RAM for          nlocal pot:       2.25 MB

     Dynamical RAM for                qrad:      13.93 MB

     Dynamical RAM for          rho,v,vnew:       6.52 MB

     Dynamical RAM for               rhoin:       2.17 MB

     Dynamical RAM for            rho*nmix:      16.78 MB

     Dynamical RAM for           G-vectors:       1.02 MB

     Dynamical RAM for          h,s,v(r/c):       1.35 MB

     Dynamical RAM for          <psi|beta>:       0.71 MB

     Dynamical RAM for                 psi:       2.85 MB

     Dynamical RAM for                hpsi:       2.85 MB

     Dynamical RAM for                spsi:       2.85 MB

     Dynamical RAM for      wfcinit/wfcrot:       3.07 MB

     Dynamical RAM for           addusdens:     161.01 MB

     Estimated static dynamical RAM per process >      81.87 MB

     Estimated max dynamical RAM per process >     242.88 MB

     Estimated total dynamical RAM >       5.69 GB

     Initial potential from superposition of free atoms

     starting charge   71.99469, renormalised to   72.00000
     Starting wfcs are  112 randomized atomic wfcs
     Checking if some PAW data can be deallocated... 
       PAW data deallocated on   12 nodes for type:  1
       PAW data deallocated on   12 nodes for type:  2

     total cpu time spent up to now is        7.9 secs

     Self-consistent Calculation

     iteration #  1     ecut=   110.00 Ry     beta= 0.70
     Davidson diagonalization with overlap
     ethr =  1.00E-02,  avg # of iterations =  2.0

     Threshold (ethr) on eigenvalues was too large:
     Diagonalizing with lowered threshold

     Davidson diagonalization with overlap
     ethr =  2.09E-04,  avg # of iterations =  4.5

     total cpu time spent up to now is       34.1 secs

     total energy              =   -1180.31085246 Ry
     estimated scf accuracy    <       0.18868151 Ry

     iteration #  2     ecut=   110.00 Ry     beta= 0.70
     Davidson diagonalization with overlap
     ethr =  2.62E-04,  avg # of iterations =  3.3

     total cpu time spent up to now is       47.8 secs

     total energy              =   -1180.31629980 Ry
     estimated scf accuracy    <       0.07958097 Ry

     iteration #  3     ecut=   110.00 Ry     beta= 0.70
     Davidson diagonalization with overlap
     ethr =  1.11E-04,  avg # of iterations =  5.0

     total cpu time spent up to now is       64.1 secs

     total energy              =   -1180.32700991 Ry
     estimated scf accuracy    <       0.16143628 Ry

     iteration #  4     ecut=   110.00 Ry     beta= 0.70
     Davidson diagonalization with overlap
     ethr =  1.11E-04,  avg # of iterations =  4.1

     total cpu time spent up to now is       77.4 secs

     total energy              =   -1180.35085182 Ry
     estimated scf accuracy    <       0.00038595 Ry

     iteration #  5     ecut=   110.00 Ry     beta= 0.70
     Davidson diagonalization with overlap
     ethr =  5.36E-07,  avg # of iterations =  7.6

     total cpu time spent up to now is       96.6 secs

     total energy              =   -1180.35144715 Ry
     estimated scf accuracy    <       0.00025710 Ry

     iteration #  6     ecut=   110.00 Ry     beta= 0.70
     Davidson diagonalization with overlap
     ethr =  3.57E-07,  avg # of iterations =  2.9

     total cpu time spent up to now is      108.6 secs

     total energy              =   -1180.35149365 Ry
     estimated scf accuracy    <       0.00000160 Ry

     iteration #  7     ecut=   110.00 Ry     beta= 0.70
     Davidson diagonalization with overlap
     ethr =  2.23E-09,  avg # of iterations =  8.3

     total cpu time spent up to now is      130.9 secs

     total energy              =   -1180.35149506 Ry
     estimated scf accuracy    <       0.00002606 Ry

     iteration #  8     ecut=   110.00 Ry     beta= 0.70
     Davidson diagonalization with overlap
     ethr =  2.23E-09,  avg # of iterations =  5.2

     total cpu time spent up to now is      148.4 secs

     End of self-consistent calculation

          k = 0.0000 0.0000 0.0000 ( 13133 PWs)   bands (ev):

   -56.5142 -56.5142 -56.4795 -56.4795 -56.4795 -56.4795 -56.4795 -56.4795
   -28.5802 -28.5802 -28.5728 -28.5728 -28.5728 -28.5728 -28.4834 -28.4834
   -27.6144 -27.6144 -27.6144 -27.6144 -27.5379 -27.5379 -27.5379 -27.5379
   -27.5337 -27.5337 -27.4513 -27.4513 -27.4507 -27.4507 -27.4507 -27.4507
     2.6984   2.6984   7.4568   7.4568   7.4568   7.4568   7.4659   7.4659
    10.5370  10.5370  10.5449  10.5449  10.5449  10.5449  11.9111  11.9111
    11.9111  11.9111  11.9222  11.9222  12.6021  12.6021  12.7720  12.7720
    12.7720  12.7720  13.1443  13.1443  13.1443  13.1443  13.1454  13.1454
    13.6723  13.6723  13.6723  13.6723  13.6761  13.6761  15.5521  15.5521
    15.5834  15.5834  15.5834  15.5834  15.7671  15.7671  15.7671  15.7671
    16.6652  16.6652  16.6955  16.6955  16.6955  16.6955

     occupation numbers 
     1.0000   1.0000   1.0000   1.0000   1.0000   1.0000   1.0000   1.0000
     1.0000   1.0000   1.0000   1.0000   1.0000   1.0000   1.0000   1.0000
     1.0000   1.0000   1.0000   1.0000   1.0000   1.0000   1.0000   1.0000
     1.0000   1.0000   1.0000   1.0000   1.0000   1.0000   1.0000   1.0000
     1.0000   1.0000   1.0000   1.0000   1.0000   1.0000   1.0000   1.0000
     1.0000   1.0000   1.0000   1.0000   1.0000   1.0000   1.0000   1.0000
     1.0000   1.0000   1.0000   1.0000   1.0000   1.0000   1.0000   1.0000
     1.0000   1.0000   1.0000   1.0000   1.0000   1.0000   1.0000   1.0000
     1.0000   1.0000   1.0000   1.0000   1.0000   1.0000  -0.0038  -0.0038
    -0.0024  -0.0024  -0.0024  -0.0024  -0.0001  -0.0001  -0.0001  -0.0001
    -0.0000  -0.0000  -0.0000  -0.0000  -0.0000  -0.0000

          k = 0.0000 0.0000 0.1667 ( 13065 PWs)   bands (ev):

   -56.5125 -56.5125 -56.4852 -56.4852 -56.4790 -56.4790 -56.4763 -56.4763
   -28.5879 -28.5810 -28.5770 -28.5763 -28.5622 -28.5590 -28.4885 -28.4884
   -27.6311 -27.6231 -27.6013 -27.5936 -27.5505 -27.5447 -27.5410 -27.5315
   -27.5288 -27.5166 -27.4615 -27.4594 -27.4564 -27.4495 -27.4484 -27.4433
     2.8905   2.8905   6.5399   6.5424   7.5629   7.5649   8.1196   8.1289
     9.9481   9.9523  10.6627  10.6652  11.0717  11.0746  11.2871  11.2879
    11.5000  11.5048  12.4490  12.4594  12.7391  12.7614  12.8026  12.8092
    13.0112  13.0145  13.1085  13.1110  13.1976  13.1997  13.2283  13.2286
    13.5320  13.5421  13.6326  13.6352  13.9639  13.9644  15.2940  15.3149
    15.4176  15.4251  15.6939  15.7034  15.7491  15.7675  15.7925  15.8181
    16.4069  16.4224  16.5951  16.6026  16.9904  17.0110

     occupation numbers 
     1.0000   1.0000   1.0000   1.0000   1.0000   1.0000   1.0000   1.0000
     1.0000   1.0000   1.0000   1.0000   1.0000   1.0000   1.0000   1.0000
     1.0000   1.0000   1.0000   1.0000   1.0000   1.0000   1.0000   1.0000
     1.0000   1.0000   1.0000   1.0000   1.0000   1.0000   1.0000   1.0000
     1.0000   1.0000   1.0000   1.0000   1.0000   1.0000   1.0000   1.0000
     1.0000   1.0000   1.0000   1.0000   1.0000   1.0000   1.0000   1.0000
     1.0000   1.0000   1.0000   1.0000   1.0000   1.0000   1.0000   1.0000
     1.0000   1.0000   1.0000   1.0000   1.0000   1.0000   1.0000   1.0000
     1.0000   1.0000   1.0000   1.0000   1.0000   1.0000  -0.0353  -0.0338
    -0.0179  -0.0167  -0.0004  -0.0003  -0.0001  -0.0001  -0.0001  -0.0000
    -0.0000  -0.0000  -0.0000  -0.0000  -0.0000  -0.0000

          k = 0.0000 0.0000 0.3333 ( 13041 PWs)   bands (ev):

   -56.5075 -56.5075 -56.4925 -56.4925 -56.4776 -56.4776 -56.4753 -56.4753
   -28.5905 -28.5838 -28.5826 -28.5789 -28.5434 -28.5409 -28.5024 -28.5019
   -27.6389 -27.6310 -27.5830 -27.5785 -27.5630 -27.5432 -27.5380 -27.5293
   -27.5275 -27.4973 -27.4789 -27.4659 -27.4630 -27.4521 -27.4476 -27.4415
     3.4509   3.4510   5.4200   5.4207   7.8601   7.8641   8.5098   8.5195
     9.6513   9.6529  10.6588  10.6611  10.7713  10.7837  11.0446  11.0475
    11.8628  11.8648  12.1343  12.1500  12.8385  12.8546  12.9330  12.9424
    13.1149  13.1208  13.1705  13.1756  13.2586  13.2615  13.3944  13.3966
    13.4519  13.4540  13.9161  13.9199  14.1175  14.1243  14.8894  14.9235
    15.3586  15.3670  15.5368  15.5551  15.7450  15.7733  15.8548  15.8789
    16.1947  16.2106  16.3704  16.3841  17.3060  17.3220

     occupation numbers 
     1.0000   1.0000   1.0000   1.0000   1.0000   1.0000   1.0000   1.0000
     1.0000   1.0000   1.0000   1.0000   1.0000   1.0000   1.0000   1.0000
     1.0000   1.0000   1.0000   1.0000   1.0000   1.0000   1.0000   1.0000
     1.0000   1.0000   1.0000   1.0000   1.0000   1.0000   1.0000   1.0000
     1.0000   1.0000   1.0000   1.0000   1.0000   1.0000   1.0000   1.0000
     1.0000   1.0000   1.0000   1.0000   1.0000   1.0000   1.0000   1.0000
     1.0000   1.0000   1.0000   1.0000   1.0000   1.0000   1.0000   1.0000
     1.0000   1.0000   1.0000   1.0000   1.0000   1.0000   1.0000   1.0000
     1.0000   1.0000   1.0000   1.0000   1.0001   1.0001   0.6854   0.5841
    -0.0277  -0.0263  -0.0047  -0.0037  -0.0001  -0.0001  -0.0000  -0.0000
    -0.0000  -0.0000  -0.0000  -0.0000  -0.0000  -0.0000

          k = 0.0000 0.0000-0.5000 ( 13022 PWs)   bands (ev):

   -56.5004 -56.5004 -56.5004 -56.5004 -56.4760 -56.4760 -56.4760 -56.4760
   -28.5880 -28.5880 -28.5824 -28.5824 -28.5221 -28.5221 -28.5207 -28.5207
   -27.6377 -27.6377 -27.5728 -27.5728 -27.5577 -27.5577 -27.5346 -27.5346
   -27.5040 -27.5040 -27.4797 -27.4797 -27.4579 -27.4579 -27.4444 -27.4444
     4.3284   4.3284   4.3286   4.3286   8.2826   8.2826   8.2890   8.2890
    10.0166  10.0166  10.0206  10.0206  10.8980  10.8980  10.9092  10.9092
    12.2472  12.2472  12.2538  12.2538  12.6857  12.6857  12.6982  12.6982
    13.1422  13.1422  13.1427  13.1427  13.2378  13.2378  13.2414  13.2414
    13.7827  13.7827  13.7859  13.7859  14.5650  14.5650  14.5936  14.5936
    15.4022  15.4022  15.4200  15.4200  15.8067  15.8067  15.8364  15.8364
    16.1658  16.1658  16.1795  16.1795  17.5453  17.5480

     occupation numbers 
     1.0000   1.0000   1.0000   1.0000   1.0000   1.0000   1.0000   1.0000
     1.0000   1.0000   1.0000   1.0000   1.0000   1.0000   1.0000   1.0000
     1.0000   1.0000   1.0000   1.0000   1.0000   1.0000   1.0000   1.0000
     1.0000   1.0000   1.0000   1.0000   1.0000   1.0000   1.0000   1.0000
     1.0000   1.0000   1.0000   1.0000   1.0000   1.0000   1.0000   1.0000
     1.0000   1.0000   1.0000   1.0000   1.0000   1.0000   1.0000   1.0000
     1.0000   1.0000   1.0000   1.0000   1.0000   1.0000   1.0000   1.0000
     1.0000   1.0000   1.0000   1.0000   1.0000   1.0000   1.0000   1.0000
     1.0000   1.0000   1.0000   1.0000   1.0311   1.0311   1.0344   1.0344
    -0.0203  -0.0203  -0.0175  -0.0175  -0.0000  -0.0000  -0.0000  -0.0000
    -0.0000  -0.0000  -0.0000  -0.0000  -0.0000  -0.0000

          k = 0.0000 0.1667 0.1667 ( 13073 PWs)   bands (ev):

   -56.5108 -56.5108 -56.4870 -56.4870 -56.4796 -56.4796 -56.4754 -56.4754
   -28.5897 -28.5839 -28.5747 -28.5746 -28.5585 -28.5547 -28.4932 -28.4931
   -27.6319 -27.6278 -27.5921 -27.5881 -27.5517 -27.5484 -27.5443 -27.5370
   -27.5207 -27.5074 -27.4703 -27.4666 -27.4593 -27.4505 -27.4438 -27.4396
     3.0801   3.0802   6.3972   6.4015   7.2076   7.2119   8.4068   8.4122
     9.8325   9.8358  10.5098  10.5123  10.7870  10.7882  11.3571  11.3600
    11.7797  11.7801  12.4119  12.4175  12.5875  12.5952  12.9949  12.9961
    13.0907  13.0989  13.1723  13.1731  13.2438  13.2504  13.3361  13.3411
    13.4674  13.4753  13.7326  13.7467  14.0756  14.0830  15.2519  15.2737
    15.3015  15.3208  15.5362  15.5482  15.6962  15.7172  15.8145  15.8390
    16.2771  16.2941  16.6068  16.6165  17.0326  17.0671

     occupation numbers 
     1.0000   1.0000   1.0000   1.0000   1.0000   1.0000   1.0000   1.0000
     1.0000   1.0000   1.0000   1.0000   1.0000   1.0000   1.0000   1.0000
     1.0000   1.0000   1.0000   1.0000   1.0000   1.0000   1.0000   1.0000
     1.0000   1.0000   1.0000   1.0000   1.0000   1.0000   1.0000   1.0000
     1.0000   1.0000   1.0000   1.0000   1.0000   1.0000   1.0000   1.0000
     1.0000   1.0000   1.0000   1.0000   1.0000   1.0000   1.0000   1.0000
     1.0000   1.0000   1.0000   1.0000   1.0000   1.0000   1.0000   1.0000
     1.0000   1.0000   1.0000   1.0000   1.0000   1.0000   1.0000   1.0000
     1.0000   1.0000   1.0000   1.0000   1.0000   1.0000  -0.0330  -0.0352
    -0.0349  -0.0331  -0.0047  -0.0040  -0.0004  -0.0003  -0.0000  -0.0000
    -0.0000  -0.0000  -0.0000  -0.0000  -0.0000  -0.0000

          k = 0.0000 0.1667 0.3333 ( 13047 PWs)   bands (ev):

   -56.5062 -56.5062 -56.4926 -56.4926 -56.4786 -56.4786 -56.4755 -56.4755
   -28.5896 -28.5845 -28.5784 -28.5763 -28.5439 -28.5414 -28.5063 -28.5060
   -27.6351 -27.6298 -27.5811 -27.5756 -27.5617 -27.5483 -27.5416 -27.5339
   -27.5220 -27.4935 -27.4877 -27.4720 -27.4651 -27.4536 -27.4402 -27.4364
     3.6326   3.6328   5.5376   5.5393   7.3628   7.3655   8.4326   8.4359
     9.7328   9.7360  10.1892  10.1935  10.9875  10.9906  11.3851  11.3947
    11.7520  11.7563  12.1889  12.1977  12.5942  12.6019  12.8762  12.8850
    13.1126  13.1220  13.2517  13.2574  13.3794  13.3807  13.5260  13.5360
    13.5891  13.6023  13.9887  13.9994  14.2433  14.2558  14.9091  14.9401
    15.2251  15.2437  15.3456  15.3556  15.6546  15.6796  15.8064  15.8366
    16.1515  16.1610  16.4391  16.4522  17.2362  17.2691

     occupation numbers 
     1.0000   1.0000   1.0000   1.0000   1.0000   1.0000   1.0000   1.0000
     1.0000   1.0000   1.0000   1.0000   1.0000   1.0000   1.0000   1.0000
     1.0000   1.0000   1.0000   1.0000   1.0000   1.0000   1.0000   1.0000
     1.0000   1.0000   1.0000   1.0000   1.0000   1.0000   1.0000   1.0000
     1.0000   1.0000   1.0000   1.0000   1.0000   1.0000   1.0000   1.0000
     1.0000   1.0000   1.0000   1.0000   1.0000   1.0000   1.0000   1.0000
     1.0000   1.0000   1.0000   1.0000   1.0000   1.0000   1.0000   1.0000
     1.0000   1.0000   1.0000   1.0000   1.0000   1.0000   1.0000   1.0000
     1.0000   1.0000   1.0000   1.0000   1.0007   1.0009   0.6276   0.5327
    -0.0260  -0.0314  -0.0298  -0.0282  -0.0008  -0.0005  -0.0000  -0.0000
    -0.0000  -0.0000  -0.0000  -0.0000  -0.0000  -0.0000

          k = 0.0000 0.1667-0.5000 ( 13042 PWs)   bands (ev):

   -56.4996 -56.4996 -56.4996 -56.4996 -56.4768 -56.4768 -56.4768 -56.4768
   -28.5857 -28.5857 -28.5802 -28.5802 -28.5254 -28.5254 -28.5228 -28.5228
   -27.6335 -27.6335 -27.5729 -27.5729 -27.5583 -27.5583 -27.5341 -27.5341
   -27.5118 -27.5118 -27.4799 -27.4799 -27.4605 -27.4605 -27.4373 -27.4373
     4.4931   4.4931   4.4938   4.4938   7.8950   7.8950   7.9018   7.9018
    10.0147  10.0147  10.0187  10.0187  11.1032  11.1032  11.1173  11.1173
    12.0900  12.0900  12.0946  12.0946  12.5400  12.5400  12.5558  12.5558
    13.2761  13.2761  13.2770  13.2770  13.3912  13.3912  13.3924  13.3924
    13.8664  13.8664  13.8704  13.8704  14.6202  14.6202  14.6515  14.6515
    15.2381  15.2381  15.2528  15.2528  15.7148  15.7148  15.7445  15.7445
    16.2395  16.2395  16.2501  16.2501  17.4823  17.4907

     occupation numbers 
     1.0000   1.0000   1.0000   1.0000   1.0000   1.0000   1.0000   1.0000
     1.0000   1.0000   1.0000   1.0000   1.0000   1.0000   1.0000   1.0000
     1.0000   1.0000   1.0000   1.0000   1.0000   1.0000   1.0000   1.0000
     1.0000   1.0000   1.0000   1.0000   1.0000   1.0000   1.0000   1.0000
     1.0000   1.0000   1.0000   1.0000   1.0000   1.0000   1.0000   1.0000
     1.0000   1.0000   1.0000   1.0000   1.0000   1.0000   1.0000   1.0000
     1.0000   1.0000   1.0000   1.0000   1.0000   1.0000   1.0000   1.0000
     1.0000   1.0000   1.0000   1.0000   1.0000   1.0000   1.0000   1.0000
     1.0000   1.0000   1.0000   1.0000   1.0354   1.0354   1.0326   1.0326
    -0.0300  -0.0300  -0.0331  -0.0331  -0.0003  -0.0003  -0.0001  -0.0001
    -0.0000  -0.0000  -0.0000  -0.0000  -0.0000  -0.0000

          k = 0.0000 0.3333 0.3333 ( 13006 PWs)   bands (ev):

   -56.5025 -56.5025 -56.4940 -56.4940 -56.4796 -56.4796 -56.4767 -56.4767
   -28.5856 -28.5817 -28.5747 -28.5737 -28.5416 -28.5393 -28.5171 -28.5164
   -27.6267 -27.6254 -27.5822 -27.5765 -27.5576 -27.5499 -27.5383 -27.5371
   -27.5208 -27.5015 -27.4992 -27.4878 -27.4590 -27.4452 -27.4359 -27.4326
     4.1582   4.1586   5.6397   5.6419   6.6783   6.6811   7.8197   7.8235
    10.0314  10.0342  10.3050  10.3080  10.9407  10.9424  11.2581  11.2603
    11.8946  11.9012  12.1580  12.1624  12.3093  12.3189  12.6282  12.6361
    13.1793  13.1876  13.3911  13.3962  13.5599  13.5627  13.7203  13.7257
    13.8831  13.8947  14.0941  14.1069  14.4874  14.5131  14.8480  14.8596
    14.9409  14.9612  15.0576  15.0743  15.5225  15.5457  15.6029  15.6328
    16.2322  16.2410  16.4896  16.4965  17.1468  17.1774

     occupation numbers 
     1.0000   1.0000   1.0000   1.0000   1.0000   1.0000   1.0000   1.0000
     1.0000   1.0000   1.0000   1.0000   1.0000   1.0000   1.0000   1.0000
     1.0000   1.0000   1.0000   1.0000   1.0000   1.0000   1.0000   1.0000
     1.0000   1.0000   1.0000   1.0000   1.0000   1.0000   1.0000   1.0000
     1.0000   1.0000   1.0000   1.0000   1.0000   1.0000   1.0000   1.0000
     1.0000   1.0000   1.0000   1.0000   1.0000   1.0000   1.0000   1.0000
     1.0000   1.0000   1.0000   1.0000   1.0000   1.0000   1.0000   1.0000
     1.0000   1.0000   1.0000   1.0000   1.0000   1.0000   1.0000   1.0000
     1.0000   1.0000   1.0000   1.0001   1.0184   1.0227   0.7955   0.7663
     0.5304   0.4673   0.1941   0.1561  -0.0057  -0.0042  -0.0018  -0.0011
    -0.0000  -0.0000  -0.0000  -0.0000  -0.0000  -0.0000

          k = 0.0000 0.3333-0.5000 ( 13038 PWs)   bands (ev):

   -56.4978 -56.4978 -56.4978 -56.4978 -56.4786 -56.4786 -56.4786 -56.4786
   -28.5799 -28.5799 -28.5757 -28.5757 -28.5318 -28.5318 -28.5289 -28.5289
   -27.6214 -27.6214 -27.5845 -27.5845 -27.5499 -27.5499 -27.5321 -27.5321
   -27.5201 -27.5201 -27.4987 -27.4987 -27.4477 -27.4477 -27.4331 -27.4331
     4.9493   4.9493   4.9507   4.9507   7.0285   7.0285   7.0334   7.0334
    10.3305  10.3305  10.3325  10.3325  11.2377  11.2377  11.2462  11.2462
    11.7607  11.7607  11.7662  11.7662  12.3338  12.3338  12.3412  12.3412
    13.3669  13.3669  13.3740  13.3740  13.6749  13.6749  13.6836  13.6836
    14.1702  14.1702  14.1757  14.1757  14.6106  14.6106  14.6298  14.6298
    14.9434  14.9434  14.9583  14.9583  15.4983  15.4983  15.5225  15.5225
    16.4402  16.4402  16.4510  16.4510  17.1953  17.1977

     occupation numbers 
     1.0000   1.0000   1.0000   1.0000   1.0000   1.0000   1.0000   1.0000
     1.0000   1.0000   1.0000   1.0000   1.0000   1.0000   1.0000   1.0000
     1.0000   1.0000   1.0000   1.0000   1.0000   1.0000   1.0000   1.0000
     1.0000   1.0000   1.0000   1.0000   1.0000   1.0000   1.0000   1.0000
     1.0000   1.0000   1.0000   1.0000   1.0000   1.0000   1.0000   1.0000
     1.0000   1.0000   1.0000   1.0000   1.0000   1.0000   1.0000   1.0000
     1.0000   1.0000   1.0000   1.0000   1.0000   1.0000   1.0000   1.0000
     1.0000   1.0000   1.0000   1.0000   1.0000   1.0000   1.0000   1.0000
     1.0002   1.0002   1.0002   1.0002   1.0354   1.0354   1.0351   1.0351
     0.5227   0.5227   0.4764   0.4764  -0.0077  -0.0077  -0.0057  -0.0057
    -0.0000  -0.0000  -0.0000  -0.0000  -0.0000  -0.0000

          k = 0.0000-0.5000-0.5000 ( 13000 PWs)   bands (ev):

   -56.4968 -56.4968 -56.4968 -56.4968 -56.4796 -56.4796 -56.4796 -56.4796
   -28.5746 -28.5746 -28.5746 -28.5746 -28.5339 -28.5339 -28.5339 -28.5339
   -27.6036 -27.6036 -27.6036 -27.6036 -27.5364 -27.5364 -27.5364 -27.5364
   -27.5166 -27.5166 -27.5166 -27.5166 -27.4369 -27.4369 -27.4369 -27.4369
     5.3712   5.3712   5.3712   5.3712   6.4276   6.4276   6.4276   6.4276
    10.7057  10.7057  10.7057  10.7057  11.2427  11.2427  11.2427  11.2427
    11.3851  11.3851  11.3851  11.3851  12.2842  12.2842  12.2842  12.2842
    13.3623  13.3623  13.3623  13.3623  14.0070  14.0070  14.0070  14.0070
    14.2943  14.2943  14.2943  14.2943  14.5249  14.5249  14.5249  14.5249
    14.7573  14.7573  14.7573  14.7573  15.4177  15.4177  15.4177  15.4177
    16.5872  16.5872  16.5872  16.5872  16.9847  16.9847

     occupation numbers 
     1.0000   1.0000   1.0000   1.0000   1.0000   1.0000   1.0000   1.0000
     1.0000   1.0000   1.0000   1.0000   1.0000   1.0000   1.0000   1.0000
     1.0000   1.0000   1.0000   1.0000   1.0000   1.0000   1.0000   1.0000
     1.0000   1.0000   1.0000   1.0000   1.0000   1.0000   1.0000   1.0000
     1.0000   1.0000   1.0000   1.0000   1.0000   1.0000   1.0000   1.0000
     1.0000   1.0000   1.0000   1.0000   1.0000   1.0000   1.0000   1.0000
     1.0000   1.0000   1.0000   1.0000   1.0000   1.0000   1.0000   1.0000
     1.0000   1.0000   1.0000   1.0000   1.0000   1.0000   1.0000   1.0000
     1.0017   1.0017   1.0017   1.0017   1.0247   1.0247   1.0247   1.0247
     0.9635   0.9635   0.9635   0.9635  -0.0178  -0.0178  -0.0178  -0.0178
    -0.0000  -0.0000  -0.0000  -0.0000  -0.0000  -0.0000

          k = 0.1667 0.1667 0.1667 ( 13055 PWs)   bands (ev):

   -56.5092 -56.5092 -56.4882 -56.4882 -56.4802 -56.4802 -56.4753 -56.4753
   -28.5900 -28.5847 -28.5728 -28.5727 -28.5564 -28.5524 -28.4979 -28.4975
   -27.6313 -27.6289 -27.5896 -27.5807 -27.5521 -27.5480 -27.5471 -27.5442
   -27.5150 -27.5022 -27.4798 -27.4668 -27.4599 -27.4562 -27.4387 -27.4382
     3.2672   3.2673   6.3449   6.3516   7.0382   7.0469   8.3232   8.3255
     9.7321   9.7348  10.5173  10.5181  10.5472  10.5485  11.3852  11.3908
    11.9875  11.9880  12.3198  12.3280  12.8282  12.8337  12.8342  12.8405
    13.1021  13.1075  13.1340  13.1341  13.2097  13.2158  13.5212  13.5263
    13.6004  13.6099  13.7833  13.7887  14.1524  14.1610  15.2045  15.2192
    15.2721  15.2868  15.4708  15.4720  15.5229  15.5385  15.7923  15.8071
    16.2233  16.2402  16.6023  16.6139  17.0469  17.0871

     occupation numbers 
     1.0000   1.0000   1.0000   1.0000   1.0000   1.0000   1.0000   1.0000
     1.0000   1.0000   1.0000   1.0000   1.0000   1.0000   1.0000   1.0000
     1.0000   1.0000   1.0000   1.0000   1.0000   1.0000   1.0000   1.0000
     1.0000   1.0000   1.0000   1.0000   1.0000   1.0000   1.0000   1.0000
     1.0000   1.0000   1.0000   1.0000   1.0000   1.0000   1.0000   1.0000
     1.0000   1.0000   1.0000   1.0000   1.0000   1.0000   1.0000   1.0000
     1.0000   1.0000   1.0000   1.0000   1.0000   1.0000   1.0000   1.0000
     1.0000   1.0000   1.0000   1.0000   1.0000   1.0000   1.0000   1.0000
     1.0000   1.0000   1.0000   1.0000   1.0001   1.0002  -0.0167  -0.0237
    -0.0351  -0.0354  -0.0105  -0.0104  -0.0057  -0.0046  -0.0001  -0.0000
    -0.0000  -0.0000  -0.0000  -0.0000  -0.0000  -0.0000

          k = 0.1667 0.1667 0.3333 ( 13044 PWs)   bands (ev):

   -56.5049 -56.5049 -56.4925 -56.4925 -56.4796 -56.4796 -56.4759 -56.4759
   -28.5882 -28.5836 -28.5755 -28.5739 -28.5450 -28.5423 -28.5104 -28.5096
   -27.6319 -27.6277 -27.5807 -27.5725 -27.5604 -27.5512 -27.5441 -27.5394
   -27.5166 -27.5035 -27.4810 -27.4709 -27.4686 -27.4571 -27.4364 -27.4348
     3.8115   3.8117   5.6521   5.6543   7.1826   7.1866   8.2388   8.2424
     9.3519   9.3543  10.2213  10.2237  10.9244  10.9281  11.4675  11.4707
    11.8287  11.8329  12.2172  12.2193  12.7504  12.7593  12.9439  12.9500
    13.0778  13.0865  13.1960  13.2045  13.2921  13.2957  13.5433  13.5501
    13.7616  13.7668  14.0120  14.0210  14.3513  14.3687  14.9057  14.9332
    15.1894  15.2045  15.2818  15.2917  15.5021  15.5167  15.7126  15.7334
    16.1649  16.1744  16.4521  16.4660  17.2161  17.2473

     occupation numbers 
     1.0000   1.0000   1.0000   1.0000   1.0000   1.0000   1.0000   1.0000
     1.0000   1.0000   1.0000   1.0000   1.0000   1.0000   1.0000   1.0000
     1.0000   1.0000   1.0000   1.0000   1.0000   1.0000   1.0000   1.0000
     1.0000   1.0000   1.0000   1.0000   1.0000   1.0000   1.0000   1.0000
     1.0000   1.0000   1.0000   1.0000   1.0000   1.0000   1.0000   1.0000
     1.0000   1.0000   1.0000   1.0000   1.0000   1.0000   1.0000   1.0000
     1.0000   1.0000   1.0000   1.0000   1.0000   1.0000   1.0000   1.0000
     1.0000   1.0000   1.0000   1.0000   1.0000   1.0000   1.0000   1.0000
     1.0000   1.0000   1.0000   1.0000   1.0039   1.0050   0.6376   0.5542
    -0.0072  -0.0167  -0.0354  -0.0353  -0.0073  -0.0061  -0.0003  -0.0002
    -0.0000  -0.0000  -0.0000  -0.0000  -0.0000  -0.0000

          k = 0.1667 0.1667-0.5000 ( 13038 PWs)   bands (ev):

   -56.4988 -56.4988 -56.4988 -56.4988 -56.4776 -56.4776 -56.4776 -56.4776
   -28.5834 -28.5834 -28.5781 -28.5781 -28.5285 -28.5285 -28.5252 -28.5252
   -27.6296 -27.6296 -27.5711 -27.5711 -27.5622 -27.5622 -27.5327 -27.5327
   -27.5180 -27.5180 -27.4762 -27.4762 -27.4634 -27.4634 -27.4347 -27.4347
     4.6544   4.6544   4.6552   4.6552   7.7182   7.7182   7.7244   7.7244
     9.6723   9.6723   9.6736   9.6736  11.3988  11.3988  11.4070  11.4070
    11.8727  11.8727  11.8764  11.8764  12.7969  12.7969  12.8088  12.8088
    13.1810  13.1810  13.1915  13.1915  13.4170  13.4170  13.4211  13.4211
    13.9216  13.9216  13.9295  13.9295  14.6717  14.6717  14.7056  14.7056
    15.1618  15.1618  15.1818  15.1818  15.6030  15.6030  15.6256  15.6256
    16.2588  16.2588  16.2684  16.2684  17.5695  17.5704

     occupation numbers 
     1.0000   1.0000   1.0000   1.0000   1.0000   1.0000   1.0000   1.0000
     1.0000   1.0000   1.0000   1.0000   1.0000   1.0000   1.0000   1.0000
     1.0000   1.0000   1.0000   1.0000   1.0000   1.0000   1.0000   1.0000
     1.0000   1.0000   1.0000   1.0000   1.0000   1.0000   1.0000   1.0000
     1.0000   1.0000   1.0000   1.0000   1.0000   1.0000   1.0000   1.0000
     1.0000   1.0000   1.0000   1.0000   1.0000   1.0000   1.0000   1.0000
     1.0000   1.0000   1.0000   1.0000   1.0000   1.0000   1.0000   1.0000
     1.0000   1.0000   1.0000   1.0000   1.0000   1.0000   1.0000   1.0000
     1.0000   1.0000   1.0000   1.0000   1.0276   1.0276   1.0115   1.0115
     0.0164   0.0164  -0.0016  -0.0016  -0.0018  -0.0018  -0.0013  -0.0013
    -0.0000  -0.0000  -0.0000  -0.0000  -0.0000  -0.0000

          k = 0.1667 0.3333 0.3333 ( 13027 PWs)   bands (ev):

   -56.5013 -56.5013 -56.4933 -56.4933 -56.4807 -56.4807 -56.4774 -56.4774
   -28.5837 -28.5800 -28.5721 -28.5712 -28.5436 -28.5414 -28.5207 -28.5197
   -27.6243 -27.6215 -27.5813 -27.5740 -27.5623 -27.5537 -27.5427 -27.5357
   -27.5199 -27.5107 -27.4872 -27.4790 -27.4629 -27.4514 -27.4356 -27.4324
     4.3281   4.3285   5.7580   5.7614   6.7213   6.7268   7.7767   7.7803
     9.2002   9.2036  10.0625  10.0661  10.9679  10.9701  11.5782  11.5825
    11.7443  11.7465  12.2586  12.2621  12.4928  12.4991  12.8106  12.8171
    13.1505  13.1548  13.2521  13.2643  13.3990  13.4064  13.6913  13.7065
    13.9162  13.9324  14.2274  14.2382  14.5632  14.5914  14.8627  14.8768
    14.9467  14.9578  15.1222  15.1490  15.4054  15.4082  15.5516  15.5671
    16.2272  16.2348  16.4565  16.4645  17.0960  17.1209

     occupation numbers 
     1.0000   1.0000   1.0000   1.0000   1.0000   1.0000   1.0000   1.0000
     1.0000   1.0000   1.0000   1.0000   1.0000   1.0000   1.0000   1.0000
     1.0000   1.0000   1.0000   1.0000   1.0000   1.0000   1.0000   1.0000
     1.0000   1.0000   1.0000   1.0000   1.0000   1.0000   1.0000   1.0000
     1.0000   1.0000   1.0000   1.0000   1.0000   1.0000   1.0000   1.0000
     1.0000   1.0000   1.0000   1.0000   1.0000   1.0000   1.0000   1.0000
     1.0000   1.0000   1.0000   1.0000   1.0000   1.0000   1.0000   1.0000
     1.0000   1.0000   1.0000   1.0000   1.0000   1.0000   1.0000   1.0000
     1.0000   1.0000   1.0006   1.0007   1.0309   1.0342   0.7584   0.7206
     0.5123   0.4778   0.0668   0.0305  -0.0198  -0.0194  -0.0039  -0.0031
    -0.0000  -0.0000  -0.0000  -0.0000  -0.0000  -0.0000

          k = 0.1667 0.3333-0.5000 ( 13040 PWs)   bands (ev):

   -56.4968 -56.4968 -56.4968 -56.4968 -56.4796 -56.4796 -56.4796 -56.4796
   -28.5775 -28.5775 -28.5734 -28.5734 -28.5348 -28.5348 -28.5316 -28.5316
   -27.6182 -27.6182 -27.5822 -27.5822 -27.5579 -27.5579 -27.5339 -27.5339
   -27.5198 -27.5198 -27.4886 -27.4886 -27.4524 -27.4524 -27.4340 -27.4340
     5.1000   5.1000   5.1014   5.1014   7.0731   7.0731   7.0785   7.0785
     9.6224   9.6224   9.6261   9.6261  11.2866  11.2866  11.2884  11.2884
    11.9340  11.9340  11.9429  11.9429  12.5628  12.5628  12.5721  12.5721
    13.2646  13.2646  13.2707  13.2707  13.5478  13.5478  13.5628  13.5628
    14.2334  14.2334  14.2423  14.2423  14.7082  14.7082  14.7295  14.7295
    14.9611  14.9611  14.9789  14.9789  15.4423  15.4423  15.4592  15.4592
    16.3829  16.3829  16.3905  16.3905  17.1577  17.1600

     occupation numbers 
     1.0000   1.0000   1.0000   1.0000   1.0000   1.0000   1.0000   1.0000
     1.0000   1.0000   1.0000   1.0000   1.0000   1.0000   1.0000   1.0000
     1.0000   1.0000   1.0000   1.0000   1.0000   1.0000   1.0000   1.0000
     1.0000   1.0000   1.0000   1.0000   1.0000   1.0000   1.0000   1.0000
     1.0000   1.0000   1.0000   1.0000   1.0000   1.0000   1.0000   1.0000
     1.0000   1.0000   1.0000   1.0000   1.0000   1.0000   1.0000   1.0000
     1.0000   1.0000   1.0000   1.0000   1.0000   1.0000   1.0000   1.0000
     1.0000   1.0000   1.0000   1.0000   1.0000   1.0000   1.0000   1.0000
     1.0006   1.0006   1.0007   1.0007   1.0098   1.0098   0.9933   0.9933
     0.4677   0.4677   0.4127   0.4127  -0.0142  -0.0142  -0.0119  -0.0119
    -0.0000  -0.0000  -0.0000  -0.0000  -0.0000  -0.0000

          k = 0.1667-0.5000-0.5000 ( 13056 PWs)   bands (ev):

   -56.4956 -56.4956 -56.4956 -56.4956 -56.4808 -56.4808 -56.4808 -56.4808
   -28.5722 -28.5722 -28.5721 -28.5721 -28.5371 -28.5371 -28.5368 -28.5368
   -27.6043 -27.6043 -27.5975 -27.5975 -27.5523 -27.5523 -27.5380 -27.5380
   -27.5143 -27.5143 -27.4993 -27.4993 -27.4433 -27.4433 -27.4374 -27.4374
     5.5077   5.5077   5.5091   5.5091   6.5305   6.5305   6.5331   6.5331
     9.8341   9.8341   9.8382   9.8382  10.8955  10.8955  10.8977  10.8977
    12.1888  12.1888  12.1914  12.1914  12.3737  12.3737  12.3768  12.3768
    13.2210  13.2210  13.2218  13.2218  13.7549  13.7549  13.7688  13.7688
    14.3901  14.3901  14.3972  14.3972  14.6947  14.6947  14.7121  14.7121
    14.8361  14.8361  14.8380  14.8380  15.3644  15.3644  15.3646  15.3646
    16.4838  16.4838  16.4853  16.4853  16.9502  16.9525

     occupation numbers 
     1.0000   1.0000   1.0000   1.0000   1.0000   1.0000   1.0000   1.0000
     1.0000   1.0000   1.0000   1.0000   1.0000   1.0000   1.0000   1.0000
     1.0000   1.0000   1.0000   1.0000   1.0000   1.0000   1.0000   1.0000
     1.0000   1.0000   1.0000   1.0000   1.0000   1.0000   1.0000   1.0000
     1.0000   1.0000   1.0000   1.0000   1.0000   1.0000   1.0000   1.0000
     1.0000   1.0000   1.0000   1.0000   1.0000   1.0000   1.0000   1.0000
     1.0000   1.0000   1.0000   1.0000   1.0000   1.0000   1.0000   1.0000
     1.0000   1.0000   1.0000   1.0000   1.0000   1.0000   1.0000   1.0000
     1.0066   1.0066   1.0072   1.0072   1.0178   1.0178   1.0072   1.0072
     0.8236   0.8236   0.8194   0.8194  -0.0267  -0.0267  -0.0267  -0.0267
    -0.0000  -0.0000  -0.0000  -0.0000  -0.0000  -0.0000

          k = 0.3333 0.3333 0.3333 ( 13058 PWs)   bands (ev):

   -56.4981 -56.4981 -56.4925 -56.4925 -56.4826 -56.4826 -56.4796 -56.4796
   -28.5782 -28.5750 -28.5672 -28.5671 -28.5464 -28.5444 -28.5299 -28.5285
   -27.6167 -27.6131 -27.5799 -27.5700 -27.5698 -27.5684 -27.5467 -27.5336
   -27.5233 -27.5032 -27.4829 -27.4646 -27.4644 -27.4637 -27.4378 -27.4345
     4.8142   4.8147   5.9665   5.9730   6.6626   6.6730   7.5018   7.5044
     8.7479   8.7530   9.4975   9.5039  10.5487  10.5532  11.1925  11.1943
    12.0049  12.0066  12.4954  12.4984  12.7667  12.7708  12.8469  12.8486
    13.1362  13.1480  13.1940  13.2008  13.2635  13.2658  13.5424  13.5456
    14.1374  14.1420  14.4891  14.4974  14.7894  14.8262  14.8476  14.8593
    14.9929  15.0038  15.1342  15.1401  15.2602  15.2872  15.4104  15.4297
    16.2514  16.2584  16.3857  16.3884  16.9519  16.9602

     occupation numbers 
     1.0000   1.0000   1.0000   1.0000   1.0000   1.0000   1.0000   1.0000
     1.0000   1.0000   1.0000   1.0000   1.0000   1.0000   1.0000   1.0000
     1.0000   1.0000   1.0000   1.0000   1.0000   1.0000   1.0000   1.0000
     1.0000   1.0000   1.0000   1.0000   1.0000   1.0000   1.0000   1.0000
     1.0000   1.0000   1.0000   1.0000   1.0000   1.0000   1.0000   1.0000
     1.0000   1.0000   1.0000   1.0000   1.0000   1.0000   1.0000   1.0000
     1.0000   1.0000   1.0000   1.0000   1.0000   1.0000   1.0000   1.0000
     1.0000   1.0000   1.0000   1.0000   1.0000   1.0000   1.0000   1.0000
     1.0001   1.0001   1.0187   1.0201   0.9166   0.8458   0.7966   0.7673
     0.3705   0.3383   0.0493   0.0415  -0.0341  -0.0354  -0.0190  -0.0160
    -0.0000  -0.0000  -0.0000  -0.0000  -0.0000  -0.0000

          k = 0.3333 0.3333-0.5000 ( 13052 PWs)   bands (ev):

   -56.4943 -56.4943 -56.4943 -56.4943 -56.4821 -56.4821 -56.4821 -56.4821
   -28.5713 -28.5713 -28.5677 -28.5677 -28.5417 -28.5417 -28.5385 -28.5385
   -27.6090 -27.6090 -27.5802 -27.5802 -27.5698 -27.5698 -27.5434 -27.5434
   -27.5088 -27.5088 -27.4771 -27.4771 -27.4587 -27.4587 -27.4388 -27.4388
     5.5135   5.5135   5.5154   5.5154   6.9760   6.9760   6.9818   6.9818
     9.0499   9.0499   9.0558   9.0558  10.5627  10.5627  10.5657  10.5657
    12.3832  12.3832  12.3916  12.3916  12.8166  12.8166  12.8243  12.8243
    13.1306  13.1306  13.1416  13.1416  13.3753  13.3753  13.3837  13.3837
    14.4631  14.4631  14.4715  14.4715  14.8582  14.8582  14.8739  14.8739
    15.0778  15.0778  15.0971  15.0971  15.2937  15.2937  15.3100  15.3100
    16.3277  16.3277  16.3371  16.3371  16.9260  16.9275

     occupation numbers 
     1.0000   1.0000   1.0000   1.0000   1.0000   1.0000   1.0000   1.0000
     1.0000   1.0000   1.0000   1.0000   1.0000   1.0000   1.0000   1.0000
     1.0000   1.0000   1.0000   1.0000   1.0000   1.0000   1.0000   1.0000
     1.0000   1.0000   1.0000   1.0000   1.0000   1.0000   1.0000   1.0000
     1.0000   1.0000   1.0000   1.0000   1.0000   1.0000   1.0000   1.0000
     1.0000   1.0000   1.0000   1.0000   1.0000   1.0000   1.0000   1.0000
     1.0000   1.0000   1.0000   1.0000   1.0000   1.0000   1.0000   1.0000
     1.0000   1.0000   1.0000   1.0000   1.0000   1.0000   1.0000   1.0000
     1.0148   1.0148   1.0160   1.0160   0.7700   0.7700   0.7286   0.7286
     0.1484   0.1484   0.1097   0.1097  -0.0353  -0.0353  -0.0342  -0.0342
    -0.0000  -0.0000  -0.0000  -0.0000  -0.0000  -0.0000

          k = 0.3333-0.5000-0.5000 ( 13024 PWs)   bands (ev):

   -56.4925 -56.4925 -56.4925 -56.4925 -56.4839 -56.4839 -56.4839 -56.4839
   -28.5654 -28.5654 -28.5651 -28.5651 -28.5451 -28.5451 -28.5447 -28.5447
   -27.5983 -27.5983 -27.5899 -27.5899 -27.5700 -27.5700 -27.5477 -27.5477
   -27.5011 -27.5011 -27.4791 -27.4791 -27.4537 -27.4537 -27.4455 -27.4455
     5.8918   5.8918   5.8949   5.8949   6.6646   6.6646   6.6701   6.6701
     9.0933   9.0933   9.0999   9.0999  10.0567  10.0567  10.0609  10.0609
    12.6122  12.6122  12.6162  12.6162  12.7977  12.7977  12.7998  12.7998
    13.0406  13.0406  13.0406  13.0406  13.3500  13.3500  13.3606  13.3606
    14.6536  14.6536  14.6613  14.6613  14.9699  14.9699  14.9774  14.9774
    15.0619  15.0619  15.0675  15.0675  15.2524  15.2524  15.2642  15.2642
    16.3647  16.3647  16.3661  16.3661  16.7174  16.7180

     occupation numbers 
     1.0000   1.0000   1.0000   1.0000   1.0000   1.0000   1.0000   1.0000
     1.0000   1.0000   1.0000   1.0000   1.0000   1.0000   1.0000   1.0000
     1.0000   1.0000   1.0000   1.0000   1.0000   1.0000   1.0000   1.0000
     1.0000   1.0000   1.0000   1.0000   1.0000   1.0000   1.0000   1.0000
     1.0000   1.0000   1.0000   1.0000   1.0000   1.0000   1.0000   1.0000
     1.0000   1.0000   1.0000   1.0000   1.0000   1.0000   1.0000   1.0000
     1.0000   1.0000   1.0000   1.0000   1.0000   1.0000   1.0000   1.0000
     1.0000   1.0000   1.0000   1.0000   1.0000   1.0000   1.0000   1.0000
     1.0322   1.0322   1.0305   1.0305   0.4403   0.4403   0.4173   0.4173
     0.1840   0.1840   0.1712   0.1712  -0.0330  -0.0330  -0.0346  -0.0346
    -0.0000  -0.0000  -0.0000  -0.0000  -0.0000  -0.0000

          k =-0.5000-0.5000-0.5000 ( 13096 PWs)   bands (ev):

   -56.4882 -56.4882 -56.4882 -56.4882 -56.4882 -56.4882 -56.4882 -56.4882
   -28.5560 -28.5560 -28.5552 -28.5552 -28.5552 -28.5552 -28.5552 -28.5552
   -27.5862 -27.5862 -27.5862 -27.5862 -27.5862 -27.5862 -27.5518 -27.5518
   -27.4940 -27.4940 -27.4601 -27.4601 -27.4601 -27.4601 -27.4601 -27.4601
     6.3988   6.3988   6.3988   6.3988   6.3988   6.3988   6.4091   6.4091
     9.2379   9.2379   9.2503   9.2503   9.2503   9.2503   9.2503   9.2503
    12.9154  12.9154  12.9219  12.9219  12.9219  12.9219  12.9219  12.9219
    12.9985  12.9985  13.0032  13.0032  13.0032  13.0032  13.0032  13.0032
    14.9314  14.9314  14.9333  14.9333  14.9333  14.9333  14.9333  14.9333
    15.2340  15.2340  15.2340  15.2340  15.2340  15.2340  15.2771  15.2771
    16.4072  16.4073  16.4195  16.4195  16.4195  16.4195

     occupation numbers 
     1.0000   1.0000   1.0000   1.0000   1.0000   1.0000   1.0000   1.0000
     1.0000   1.0000   1.0000   1.0000   1.0000   1.0000   1.0000   1.0000
     1.0000   1.0000   1.0000   1.0000   1.0000   1.0000   1.0000   1.0000
     1.0000   1.0000   1.0000   1.0000   1.0000   1.0000   1.0000   1.0000
     1.0000   1.0000   1.0000   1.0000   1.0000   1.0000   1.0000   1.0000
     1.0000   1.0000   1.0000   1.0000   1.0000   1.0000   1.0000   1.0000
     1.0000   1.0000   1.0000   1.0000   1.0000   1.0000   1.0000   1.0000
     1.0000   1.0000   1.0000   1.0000   1.0000   1.0000   1.0000   1.0000
     0.5597   0.5597   0.5539   0.5539   0.5539   0.5539   0.5539   0.5539
    -0.0289  -0.0289  -0.0289  -0.0289  -0.0289  -0.0289  -0.0354  -0.0354
    -0.0000  -0.0000  -0.0000  -0.0000  -0.0000  -0.0000

          k = 0.0000 0.3333 0.1667 ( 13047 PWs)   bands (ev):

   -56.5062 -56.5062 -56.4926 -56.4926 -56.4786 -56.4786 -56.4755 -56.4755
   -28.5895 -28.5846 -28.5782 -28.5764 -28.5441 -28.5413 -28.5065 -28.5058
   -27.6352 -27.6299 -27.5789 -27.5779 -27.5605 -27.5484 -27.5428 -27.5341
   -27.5215 -27.4954 -27.4850 -27.4737 -27.4646 -27.4533 -27.4400 -27.4367
     3.6326   3.6327   5.5373   5.5382   7.3649   7.3661   8.4324   8.4390
     9.7429   9.7454  10.2562  10.2624  10.9709  10.9741  11.0970  11.0996
    11.8626  11.8649  12.2415  12.2455  12.7967  12.8017  12.9746  12.9798
    13.0652  13.0715  13.2435  13.2498  13.3396  13.3443  13.4876  13.4923
    13.5375  13.5399  13.9652  13.9752  14.2285  14.2406  14.8886  14.9206
    15.2764  15.2947  15.3365  15.3535  15.6442  15.6719  15.7834  15.8092
    16.1534  16.1658  16.4207  16.4349  17.2700  17.2999

     occupation numbers 
     1.0000   1.0000   1.0000   1.0000   1.0000   1.0000   1.0000   1.0000
     1.0000   1.0000   1.0000   1.0000   1.0000   1.0000   1.0000   1.0000
     1.0000   1.0000   1.0000   1.0000   1.0000   1.0000   1.0000   1.0000
     1.0000   1.0000   1.0000   1.0000   1.0000   1.0000   1.0000   1.0000
     1.0000   1.0000   1.0000   1.0000   1.0000   1.0000   1.0000   1.0000
     1.0000   1.0000   1.0000   1.0000   1.0000   1.0000   1.0000   1.0000
     1.0000   1.0000   1.0000   1.0000   1.0000   1.0000   1.0000   1.0000
     1.0000   1.0000   1.0000   1.0000   1.0000   1.0000   1.0000   1.0000
     1.0000   1.0000   1.0000   1.0000   1.0006   1.0007   0.6875   0.5928
    -0.0353  -0.0352  -0.0311  -0.0285  -0.0009  -0.0006  -0.0001  -0.0000
    -0.0000  -0.0000  -0.0000  -0.0000  -0.0000  -0.0000

          k = 0.0000-0.5000 0.1667 ( 13042 PWs)   bands (ev):

   -56.4996 -56.4996 -56.4996 -56.4996 -56.4768 -56.4768 -56.4768 -56.4768
   -28.5857 -28.5857 -28.5802 -28.5802 -28.5255 -28.5255 -28.5227 -28.5227
   -27.6336 -27.6336 -27.5720 -27.5720 -27.5591 -27.5591 -27.5342 -27.5342
   -27.5120 -27.5120 -27.4799 -27.4799 -27.4602 -27.4602 -27.4374 -27.4374
     4.4929   4.4929   4.4934   4.4934   7.8969   7.8969   7.9016   7.9016
    10.1024  10.1024  10.1075  10.1075  10.8746  10.8746  10.8819  10.8819
    12.1411  12.1411  12.1460  12.1460  12.8616  12.8616  12.8707  12.8707
    13.1078  13.1078  13.1158  13.1158  13.3964  13.3964  13.4056  13.4056
    13.8067  13.8067  13.8122  13.8122  14.6064  14.6064  14.6375  14.6375
    15.2582  15.2582  15.2805  15.2805  15.6821  15.6821  15.7106  15.7106
    16.2143  16.2143  16.2260  16.2260  17.5912  17.6031

     occupation numbers 
     1.0000   1.0000   1.0000   1.0000   1.0000   1.0000   1.0000   1.0000
     1.0000   1.0000   1.0000   1.0000   1.0000   1.0000   1.0000   1.0000
     1.0000   1.0000   1.0000   1.0000   1.0000   1.0000   1.0000   1.0000
     1.0000   1.0000   1.0000   1.0000   1.0000   1.0000   1.0000   1.0000
     1.0000   1.0000   1.0000   1.0000   1.0000   1.0000   1.0000   1.0000
     1.0000   1.0000   1.0000   1.0000   1.0000   1.0000   1.0000   1.0000
     1.0000   1.0000   1.0000   1.0000   1.0000   1.0000   1.0000   1.0000
     1.0000   1.0000   1.0000   1.0000   1.0000   1.0000   1.0000   1.0000
     1.0000   1.0000   1.0000   1.0000   1.0352   1.0352   1.0345   1.0345
    -0.0339  -0.0339  -0.0354  -0.0354  -0.0005  -0.0005  -0.0003  -0.0003
    -0.0000  -0.0000  -0.0000  -0.0000  -0.0000  -0.0000

          k = 0.0000-0.5000 0.3333 ( 13038 PWs)   bands (ev):

   -56.4978 -56.4978 -56.4978 -56.4978 -56.4786 -56.4786 -56.4786 -56.4786
   -28.5799 -28.5799 -28.5757 -28.5757 -28.5319 -28.5319 -28.5287 -28.5287
   -27.6216 -27.6216 -27.5837 -27.5837 -27.5506 -27.5506 -27.5313 -27.5313
   -27.5212 -27.5212 -27.4983 -27.4983 -27.4475 -27.4475 -27.4332 -27.4332
     4.9489   4.9489   4.9497   4.9497   7.0316   7.0316   7.0341   7.0341
    10.5069  10.5069  10.5103  10.5103  10.8269  10.8269  10.8291  10.8291
    11.9936  11.9936  11.9990  11.9990  12.4093  12.4093  12.4198  12.4198
    13.2667  13.2667  13.2732  13.2732  13.9134  13.9134  13.9198  13.9198
    13.9551  13.9551  13.9682  13.9682  14.6419  14.6419  14.6754  14.6754
    14.9013  14.9013  14.9372  14.9372  15.4782  15.4782  15.5013  15.5013
    16.3849  16.3849  16.3968  16.3968  17.2930  17.2951

     occupation numbers 
     1.0000   1.0000   1.0000   1.0000   1.0000   1.0000   1.0000   1.0000
     1.0000   1.0000   1.0000   1.0000   1.0000   1.0000   1.0000   1.0000
     1.0000   1.0000   1.0000   1.0000   1.0000   1.0000   1.0000   1.0000
     1.0000   1.0000   1.0000   1.0000   1.0000   1.0000   1.0000   1.0000
     1.0000   1.0000   1.0000   1.0000   1.0000   1.0000   1.0000   1.0000
     1.0000   1.0000   1.0000   1.0000   1.0000   1.0000   1.0000   1.0000
     1.0000   1.0000   1.0000   1.0000   1.0000   1.0000   1.0000   1.0000
     1.0000   1.0000   1.0000   1.0000   1.0000   1.0000   1.0000   1.0000
     1.0000   1.0000   1.0000   1.0000   1.0340   1.0340   1.0263   1.0263
     0.6507   0.6507   0.5418   0.5418  -0.0097  -0.0097  -0.0074  -0.0074
    -0.0000  -0.0000  -0.0000  -0.0000  -0.0000  -0.0000

          k =-0.1667-0.5000 0.3333 ( 13040 PWs)   bands (ev):

   -56.4968 -56.4968 -56.4968 -56.4968 -56.4796 -56.4796 -56.4796 -56.4796
   -28.5775 -28.5775 -28.5734 -28.5734 -28.5349 -28.5349 -28.5315 -28.5315
   -27.6183 -27.6183 -27.5816 -27.5816 -27.5583 -27.5583 -27.5336 -27.5336
   -27.5202 -27.5202 -27.4884 -27.4884 -27.4523 -27.4523 -27.4340 -27.4340
     5.0997   5.0997   5.1008   5.1008   7.0751   7.0751   7.0790   7.0790
     9.6359   9.6359   9.6386   9.6386  11.1973  11.1973  11.2004  11.2004
    11.9962  11.9962  12.0028  12.0028  12.6303  12.6303  12.6406  12.6406
    13.1712  13.1712  13.1792  13.1792  13.6488  13.6488  13.6605  13.6605
    14.1688  14.1688  14.1780  14.1780  14.7148  14.7148  14.7400  14.7400
    14.9603  14.9603  14.9916  14.9916  15.4228  15.4228  15.4399  15.4399
    16.3543  16.3543  16.3652  16.3652  17.2139  17.2173

     occupation numbers 
     1.0000   1.0000   1.0000   1.0000   1.0000   1.0000   1.0000   1.0000
     1.0000   1.0000   1.0000   1.0000   1.0000   1.0000   1.0000   1.0000
     1.0000   1.0000   1.0000   1.0000   1.0000   1.0000   1.0000   1.0000
     1.0000   1.0000   1.0000   1.0000   1.0000   1.0000   1.0000   1.0000
     1.0000   1.0000   1.0000   1.0000   1.0000   1.0000   1.0000   1.0000
     1.0000   1.0000   1.0000   1.0000   1.0000   1.0000   1.0000   1.0000
     1.0000   1.0000   1.0000   1.0000   1.0000   1.0000   1.0000   1.0000
     1.0000   1.0000   1.0000   1.0000   1.0000   1.0000   1.0000   1.0000
     1.0002   1.0002   1.0002   1.0002   1.0052   1.0052   0.9831   0.9831
     0.4701   0.4701   0.3743   0.3743  -0.0171  -0.0171  -0.0145  -0.0145
    -0.0000  -0.0000  -0.0000  -0.0000  -0.0000  -0.0000

     the Fermi energy is    14.9507 ev

!    total energy              =   -1180.35149902 Ry

     total all-electron energy =    -10727.812335 Ry
     estimated scf accuracy    <       0.00000062 Ry
     smearing contrib. (-TS)   =      -0.00131181 Ry
     internal energy E=F+TS    =   -1180.35018720 Ry

     The total energy is F=E-TS. E is the sum of the following terms:
     one-electron contribution =    -336.80629368 Ry
     hartree contribution      =     207.05130114 Ry
     xc contribution           =    -114.36260112 Ry
     ewald contribution        =    -496.51183961 Ry
     one-center paw contrib.   =    -439.72075394 Ry
      -> PAW hartree energy AE =     126.73727833 Ry
      -> PAW hartree energy PS =    -125.76988778 Ry
      -> PAW xc energy AE      =     -96.24147434 Ry
      -> PAW xc energy PS      =      20.93408762 Ry
      -> total E_H with PAW    =     208.01869168 Ry
      -> total E_XC with PAW   =    -189.66998784 Ry

     convergence has been achieved in   8 iterations

     Writing output data file /zfs_data/vergnior/martin/Scratch/OAL/CrSi/convergence/cutoff/6x6x6/110/tmp/CrSi.save/
 
     init_run     :      5.11s CPU      5.33s WALL (       1 calls)
     electrons    :    136.64s CPU    140.57s WALL (       1 calls)

     Called by init_run:
     wfcinit      :      3.51s CPU      3.60s WALL (       1 calls)
     wfcinit:atom :      0.04s CPU      0.04s WALL (      24 calls)
     wfcinit:wfcr :      3.31s CPU      3.39s WALL (      24 calls)
     potinit      :      0.19s CPU      0.21s WALL (       1 calls)
     hinit0       :      0.22s CPU      0.23s WALL (       1 calls)

     Called by electrons:
     c_bands      :    107.34s CPU    109.20s WALL (       9 calls)
     sum_band     :     23.02s CPU     24.28s WALL (       9 calls)
     v_of_rho     :      0.26s CPU      0.27s WALL (       9 calls)
     v_h          :      0.02s CPU      0.02s WALL (       9 calls)
     v_xc         :      0.24s CPU      0.25s WALL (       9 calls)
     newd         :      5.37s CPU      6.18s WALL (       9 calls)
     PAW_pot      :      1.12s CPU      1.14s WALL (       9 calls)
     mix_rho      :      0.16s CPU      0.16s WALL (       9 calls)

     Called by c_bands:
     init_us_2    :      0.56s CPU      0.57s WALL (     456 calls)
     cegterg      :     96.16s CPU     97.95s WALL (     216 calls)

     Called by sum_band:
     sum_band:wei :      0.03s CPU      0.03s WALL (       9 calls)
     sum_band:loo :     18.44s CPU     18.69s WALL (       9 calls)
     sum_band:buf :      0.20s CPU      0.22s WALL (     216 calls)
     sum_band:ini :      0.26s CPU      0.27s WALL (     216 calls)
     sum_band:cal :      1.56s CPU      1.57s WALL (     216 calls)
     sum_band:bec :      2.76s CPU      2.77s WALL (     216 calls)
     addusdens    :      4.11s CPU      5.12s WALL (       9 calls)
     addusd:skk   :      0.01s CPU      0.01s WALL (      18 calls)
     addusd:dgemm :      1.46s CPU      2.44s WALL (      18 calls)
     addusd:qvan2 :      2.59s CPU      2.60s WALL (      18 calls)

     Called by *egterg:
     cdiaghg      :      8.55s CPU      8.62s WALL (    1223 calls)
     cegterg:over :      6.22s CPU      6.26s WALL (    1031 calls)
     cegterg:upda :      3.38s CPU      3.40s WALL (    1031 calls)
     cegterg:last :      6.69s CPU      6.72s WALL (     673 calls)
     h_psi        :     61.23s CPU     62.76s WALL (    1271 calls)
     s_psi        :     10.33s CPU     10.37s WALL (    1271 calls)
     g_psi        :      0.22s CPU      0.22s WALL (    1031 calls)

     Called by h_psi:
     h_psi:calbec :      5.85s CPU      5.89s WALL (    1271 calls)
     vloc_psi     :     45.27s CPU     46.66s WALL (    1271 calls)
     add_vuspsi   :      9.67s CPU      9.73s WALL (    1271 calls)

     General routines
     calbec       :      7.40s CPU      7.45s WALL (    1487 calls)
     fft          :      0.23s CPU      0.24s WALL (     188 calls)
     ffts         :      0.02s CPU      0.02s WALL (      72 calls)
     fftw         :     36.39s CPU     37.41s WALL (  308524 calls)
     interpolate  :      0.06s CPU      0.06s WALL (      36 calls)
 
     Parallel routines
     fft_scatt_xy :      4.78s CPU      4.93s WALL (  308784 calls)
     fft_scatt_yz :     18.97s CPU     19.52s WALL (  308784 calls)

     PAW routines
     PAW_pot      :      1.12s CPU      1.14s WALL (       9 calls)
     PAW_symme    :      0.02s CPU      0.02s WALL (      18 calls)
 
     PWSCF        :   2m24.83s CPU   2m30.26s WALL

 
   This run was terminated on:  18:30: 3  30Jul2021            

=------------------------------------------------------------------------------=
   JOB DONE.
=------------------------------------------------------------------------------=
