MPI startup(): Warning: I_MPI_PMI_LIBRARY will be ignored since the hydra process manager was found
MPI startup(): Warning: I_MPI_PMI_LIBRARY will be ignored since the hydra process manager was found
MPI startup(): Warning: I_MPI_PMI_LIBRARY will be ignored since the hydra process manager was found
MPI startup(): Warning: I_MPI_PMI_LIBRARY will be ignored since the hydra process manager was found
MPI startup(): Warning: I_MPI_PMI_LIBRARY will be ignored since the hydra process manager was found
MPI startup(): Warning: I_MPI_PMI_LIBRARY will be ignored since the hydra process manager was found
MPI startup(): Warning: I_MPI_PMI_LIBRARY will be ignored since the hydra process manager was found
MPI startup(): Warning: I_MPI_PMI_LIBRARY will be ignored since the hydra process manager was found
MPI startup(): Warning: I_MPI_PMI_LIBRARY will be ignored since the hydra process manager was found
MPI startup(): Warning: I_MPI_PMI_LIBRARY will be ignored since the hydra process manager was found
MPI startup(): Warning: I_MPI_PMI_LIBRARY will be ignored since the hydra process manager was found
MPI startup(): Warning: I_MPI_PMI_LIBRARY will be ignored since the hydra process manager was found
MPI startup(): Warning: I_MPI_PMI_LIBRARY will be ignored since the hydra process manager was found
MPI startup(): Warning: I_MPI_PMI_LIBRARY will be ignored since the hydra process manager was found
MPI startup(): Warning: I_MPI_PMI_LIBRARY will be ignored since the hydra process manager was found
MPI startup(): Warning: I_MPI_PMI_LIBRARY will be ignored since the hydra process manager was found
MPI startup(): Warning: I_MPI_PMI_LIBRARY will be ignored since the hydra process manager was found
MPI startup(): Warning: I_MPI_PMI_LIBRARY will be ignored since the hydra process manager was found
MPI startup(): Warning: I_MPI_PMI_LIBRARY will be ignored since the hydra process manager was found
MPI startup(): Warning: I_MPI_PMI_LIBRARY will be ignored since the hydra process manager was found
MPI startup(): Warning: I_MPI_PMI_LIBRARY will be ignored since the hydra process manager was found
MPI startup(): Warning: I_MPI_PMI_LIBRARY will be ignored since the hydra process manager was found
MPI startup(): Warning: I_MPI_PMI_LIBRARY will be ignored since the hydra process manager was found
MPI startup(): Warning: I_MPI_PMI_LIBRARY will be ignored since the hydra process manager was found

     Program PWSCF v.6.7MaX starts on  1Aug2021 at 12:41:48 

     This program is part of the open-source Quantum ESPRESSO suite
     for quantum simulation of materials; please cite
         "P. Giannozzi et al., J. Phys.:Condens. Matter 21 395502 (2009);
         "P. Giannozzi et al., J. Phys.:Condens. Matter 29 465901 (2017);
          URL http://www.quantum-espresso.org", 
     in publications or presentations arising from this work. More details at
     http://www.quantum-espresso.org/quote

     Parallel version (MPI), running on    24 processors

     MPI processes distributed on     1 nodes
     R & G space division:  proc/nbgrp/npool/nimage =      24
     Waiting for input...
     Reading input from standard input

     Current dimensions of program PWSCF are:
     Max number of different atomic species (ntypx) = 10
     Max number of k-points (npk) =  40000
     Max angular momentum in pseudopotentials (lmaxx) =  3
     file Cr.rel-pbe-spn-kjpaw_psl.1.0.0.UPF: wavefunction(s)  3S 3P 3P 3D 3D renormalized
     file Si.rel-pbe-n-kjpaw_psl.1.0.0.UPF: wavefunction(s)  3S 3P 3P renormalized

     Subspace diagonalization in iterative solution of the eigenvalue problem:
     a serial algorithm will be used

     Message from routine setup:
     using ibrav=0 with symmetry is DISCOURAGED, use correct ibrav instead
 
     Parallelization info
     --------------------
     sticks:   dense  smooth     PW     G-vecs:    dense   smooth      PW
     Min         228      91     25                12702     3210     487
     Max         229      93     26                12704     3214     492
     Sum        5473    2201    621               304867    77053   11753
 


     bravais-lattice index     =            0
     lattice parameter (alat)  =       8.7475  a.u.
     unit-cell volume          =     669.3575 (a.u.)^3
     number of atoms/cell      =            8
     number of atomic types    =            2
     number of electrons       =        72.00
     number of Kohn-Sham states=           86
     kinetic-energy cutoff     =      90.0000  Ry
     charge density cutoff     =     900.0000  Ry
     scf convergence threshold =      1.0E-06
     mixing beta               =       0.7000
     number of iterations used =            8  plain     mixing
     Exchange-correlation= SLA  PW   PBX  PBC
                           (   1   4   3   4   0   0   0)
     Non magnetic calculation with spin-orbit


     celldm(1)=   8.747542  celldm(2)=   0.000000  celldm(3)=   0.000000
     celldm(4)=   0.000000  celldm(5)=   0.000000  celldm(6)=   0.000000

     crystal axes: (cart. coord. in units of alat)
               a(1) = (   1.000000   0.000000   0.000000 )  
               a(2) = (   0.000000   1.000000   0.000000 )  
               a(3) = (   0.000000   0.000000   1.000000 )  

     reciprocal axes: (cart. coord. in units 2 pi/alat)
               b(1) = (  1.000000  0.000000  0.000000 )  
               b(2) = (  0.000000  1.000000  0.000000 )  
               b(3) = (  0.000000  0.000000  1.000000 )  


     PseudoPot. # 1 for Cr read from file:
     ../../../../pseudo/Cr.rel-pbe-spn-kjpaw_psl.1.0.0.UPF
     MD5 check sum: 1e24e2b5251376a8b945118fca0c7981
     Pseudo is Projector augmented-wave + core cor, Zval = 14.0
     Generated using &quot;atomic&quot; code by A. Dal Corso  v.6.3
     Shape of augmentation charge: PSQ
     Using radial grid of 1183 points, 10 beta functions with: 
                l(1) =   0
                l(2) =   0
                l(3) =   1
                l(4) =   1
                l(5) =   1
                l(6) =   1
                l(7) =   2
                l(8) =   2
                l(9) =   2
               l(10) =   2
     Q(r) pseudized with 0 coefficients 


     PseudoPot. # 2 for Si read from file:
     ../../../../pseudo/Si.rel-pbe-n-kjpaw_psl.1.0.0.UPF
     MD5 check sum: d74f6caf6830ea4c2076867160cab1b0
     Pseudo is Projector augmented-wave + core cor, Zval =  4.0
     Generated using &quot;atomic&quot; code by A. Dal Corso  v.6.3
     Shape of augmentation charge: PSQ
     Using radial grid of 1141 points, 10 beta functions with: 
                l(1) =   0
                l(2) =   0
                l(3) =   1
                l(4) =   1
                l(5) =   1
                l(6) =   1
                l(7) =   2
                l(8) =   2
                l(9) =   2
               l(10) =   2
     Q(r) pseudized with 0 coefficients 


     atomic species   valence    mass     pseudopotential
        Cr            14.00    51.99600     Cr( 1.00)
        Si             4.00    28.08500     Si( 1.00)

     12 Sym. Ops. (no inversion) found ( 9 have fractional translation)


                                    s                        frac. trans.

      isym =  1     identity                                     

 cryst.   s( 1) = (     1          0          0      )
                  (     0          1          0      )
                  (     0          0          1      )

 cart.    s( 1) = (  1.0000000  0.0000000  0.0000000 )
                  (  0.0000000  1.0000000  0.0000000 )
                  (  0.0000000  0.0000000  1.0000000 )


      isym =  2     180 deg rotation - cart. axis [0,0,1]        

 cryst.   s( 2) = (    -1          0          0      )    f =(  0.5000000 )
                  (     0         -1          0      )       (  0.0000000 )
                  (     0          0          1      )       ( -0.5000000 )

 cart.    s( 2) = ( -1.0000000  0.0000000  0.0000000 )    f =(  0.5000000 )
                  (  0.0000000 -1.0000000  0.0000000 )       (  0.0000000 )
                  (  0.0000000  0.0000000  1.0000000 )       ( -0.5000000 )


      isym =  3     180 deg rotation - cart. axis [0,1,0]        

 cryst.   s( 3) = (    -1          0          0      )    f =(  0.0000000 )
                  (     0          1          0      )       ( -0.5000000 )
                  (     0          0         -1      )       (  0.5000000 )

 cart.    s( 3) = ( -1.0000000  0.0000000  0.0000000 )    f =(  0.0000000 )
                  (  0.0000000  1.0000000  0.0000000 )       ( -0.5000000 )
                  (  0.0000000  0.0000000 -1.0000000 )       (  0.5000000 )


      isym =  4     180 deg rotation - cart. axis [1,0,0]        

 cryst.   s( 4) = (     1          0          0      )    f =(  0.5000000 )
                  (     0         -1          0      )       (  0.5000000 )
                  (     0          0         -1      )       (  0.0000000 )

 cart.    s( 4) = (  1.0000000  0.0000000  0.0000000 )    f =(  0.5000000 )
                  (  0.0000000 -1.0000000  0.0000000 )       (  0.5000000 )
                  (  0.0000000  0.0000000 -1.0000000 )       (  0.0000000 )


      isym =  5     120 deg rotation - cart. axis [-1,-1,-1]     

 cryst.   s( 5) = (     0          0          1      )
                  (     1          0          0      )
                  (     0          1          0      )

 cart.    s( 5) = (  0.0000000  1.0000000  0.0000000 )
                  (  0.0000000  0.0000000  1.0000000 )
                  (  1.0000000  0.0000000  0.0000000 )


      isym =  6     120 deg rotation - cart. axis [-1,1,1]       

 cryst.   s( 6) = (     0          0         -1      )    f =(  0.0000000 )
                  (    -1          0          0      )       ( -0.5000000 )
                  (     0          1          0      )       (  0.5000000 )

 cart.    s( 6) = (  0.0000000 -1.0000000  0.0000000 )    f =(  0.0000000 )
                  (  0.0000000  0.0000000  1.0000000 )       ( -0.5000000 )
                  ( -1.0000000  0.0000000  0.0000000 )       (  0.5000000 )


      isym =  7     120 deg rotation - cart. axis [1,1,-1]       

 cryst.   s( 7) = (     0          0         -1      )    f =(  0.5000000 )
                  (     1          0          0      )       (  0.5000000 )
                  (     0         -1          0      )       (  0.0000000 )

 cart.    s( 7) = (  0.0000000  1.0000000  0.0000000 )    f =(  0.5000000 )
                  (  0.0000000  0.0000000 -1.0000000 )       (  0.5000000 )
                  ( -1.0000000  0.0000000  0.0000000 )       (  0.0000000 )


      isym =  8     120 deg rotation - cart. axis [1,-1,1]       

 cryst.   s( 8) = (     0          0          1      )    f =(  0.5000000 )
                  (    -1          0          0      )       (  0.0000000 )
                  (     0         -1          0      )       ( -0.5000000 )

 cart.    s( 8) = (  0.0000000 -1.0000000  0.0000000 )    f =(  0.5000000 )
                  (  0.0000000  0.0000000 -1.0000000 )       (  0.0000000 )
                  (  1.0000000  0.0000000  0.0000000 )       ( -0.5000000 )


      isym =  9     120 deg rotation - cart. axis [1,1,1]        

 cryst.   s( 9) = (     0          1          0      )
                  (     0          0          1      )
                  (     1          0          0      )

 cart.    s( 9) = (  0.0000000  0.0000000  1.0000000 )
                  (  1.0000000  0.0000000  0.0000000 )
                  (  0.0000000  1.0000000  0.0000000 )


      isym = 10     120 deg rotation - cart. axis [-1,1,-1]      

 cryst.   s(10) = (     0         -1          0      )    f =(  0.5000000 )
                  (     0          0         -1      )       (  0.5000000 )
                  (     1          0          0      )       (  0.0000000 )

 cart.    s(10) = (  0.0000000  0.0000000  1.0000000 )    f =(  0.5000000 )
                  ( -1.0000000  0.0000000  0.0000000 )       (  0.5000000 )
                  (  0.0000000 -1.0000000  0.0000000 )       (  0.0000000 )


      isym = 11     120 deg rotation - cart. axis [1,-1,-1]      

 cryst.   s(11) = (     0         -1          0      )    f =(  0.5000000 )
                  (     0          0          1      )       (  0.0000000 )
                  (    -1          0          0      )       ( -0.5000000 )

 cart.    s(11) = (  0.0000000  0.0000000 -1.0000000 )    f =(  0.5000000 )
                  ( -1.0000000  0.0000000  0.0000000 )       (  0.0000000 )
                  (  0.0000000  1.0000000  0.0000000 )       ( -0.5000000 )


      isym = 12     120 deg rotation - cart. axis [-1,-1,1]      

 cryst.   s(12) = (     0          1          0      )    f =(  0.0000000 )
                  (     0          0         -1      )       ( -0.5000000 )
                  (    -1          0          0      )       (  0.5000000 )

 cart.    s(12) = (  0.0000000  0.0000000 -1.0000000 )    f =(  0.0000000 )
                  (  1.0000000  0.0000000  0.0000000 )       ( -0.5000000 )
                  (  0.0000000 -1.0000000  0.0000000 )       (  0.5000000 )


   Cartesian axes

     site n.     atom                  positions (alat units)
         1           Cr  tau(   1) = (   0.8640000   0.3640000   0.1360000  )
         2           Cr  tau(   2) = (   0.3640000   0.1360000   0.8640000  )
         3           Cr  tau(   3) = (   0.1360000   0.8640000   0.3640000  )
         4           Cr  tau(   4) = (   0.6360000   0.6360000   0.6360000  )
         5           Si  tau(   5) = (   0.1540000   0.6540000   0.8460000  )
         6           Si  tau(   6) = (   0.6540000   0.8460000   0.1540000  )
         7           Si  tau(   7) = (   0.8460000   0.1540000   0.6540000  )
         8           Si  tau(   8) = (   0.3460000   0.3460000   0.3460000  )

   Crystallographic axes

     site n.     atom                  positions (cryst. coord.)
         1           Cr  tau(   1) = (  0.8640000  0.3640000  0.1360000  )
         2           Cr  tau(   2) = (  0.3640000  0.1360000  0.8640000  )
         3           Cr  tau(   3) = (  0.1360000  0.8640000  0.3640000  )
         4           Cr  tau(   4) = (  0.6360000  0.6360000  0.6360000  )
         5           Si  tau(   5) = (  0.1540000  0.6540000  0.8460000  )
         6           Si  tau(   6) = (  0.6540000  0.8460000  0.1540000  )
         7           Si  tau(   7) = (  0.8460000  0.1540000  0.6540000  )
         8           Si  tau(   8) = (  0.3460000  0.3460000  0.3460000  )

     number of k points=    24  Methfessel-Paxton smearing, width (Ry)=  0.0040
                       cart. coord. in units 2pi/alat
        k(    1) = (   0.0000000   0.0000000   0.0000000), wk =   0.0046296
        k(    2) = (   0.0000000   0.0000000   0.1666667), wk =   0.0277778
        k(    3) = (   0.0000000   0.0000000   0.3333333), wk =   0.0277778
        k(    4) = (   0.0000000   0.0000000  -0.5000000), wk =   0.0138889
        k(    5) = (   0.0000000   0.1666667   0.1666667), wk =   0.0555556
        k(    6) = (   0.0000000   0.1666667   0.3333333), wk =   0.0555556
        k(    7) = (   0.0000000   0.1666667  -0.5000000), wk =   0.0277778
        k(    8) = (   0.0000000   0.3333333   0.3333333), wk =   0.0555556
        k(    9) = (   0.0000000   0.3333333  -0.5000000), wk =   0.0277778
        k(   10) = (   0.0000000  -0.5000000  -0.5000000), wk =   0.0138889
        k(   11) = (   0.1666667   0.1666667   0.1666667), wk =   0.0370370
        k(   12) = (   0.1666667   0.1666667   0.3333333), wk =   0.1111111
        k(   13) = (   0.1666667   0.1666667  -0.5000000), wk =   0.0555556
        k(   14) = (   0.1666667   0.3333333   0.3333333), wk =   0.1111111
        k(   15) = (   0.1666667   0.3333333  -0.5000000), wk =   0.0555556
        k(   16) = (   0.1666667  -0.5000000  -0.5000000), wk =   0.0277778
        k(   17) = (   0.3333333   0.3333333   0.3333333), wk =   0.0370370
        k(   18) = (   0.3333333   0.3333333  -0.5000000), wk =   0.0555556
        k(   19) = (   0.3333333  -0.5000000  -0.5000000), wk =   0.0277778
        k(   20) = (  -0.5000000  -0.5000000  -0.5000000), wk =   0.0046296
        k(   21) = (   0.0000000   0.3333333   0.1666667), wk =   0.0555556
        k(   22) = (   0.0000000  -0.5000000   0.1666667), wk =   0.0277778
        k(   23) = (   0.0000000  -0.5000000   0.3333333), wk =   0.0277778
        k(   24) = (  -0.1666667  -0.5000000   0.3333333), wk =   0.0555556

                       cryst. coord.
        k(    1) = (   0.0000000   0.0000000   0.0000000), wk =   0.0046296
        k(    2) = (   0.0000000   0.0000000   0.1666667), wk =   0.0277778
        k(    3) = (   0.0000000   0.0000000   0.3333333), wk =   0.0277778
        k(    4) = (   0.0000000   0.0000000  -0.5000000), wk =   0.0138889
        k(    5) = (   0.0000000   0.1666667   0.1666667), wk =   0.0555556
        k(    6) = (   0.0000000   0.1666667   0.3333333), wk =   0.0555556
        k(    7) = (   0.0000000   0.1666667  -0.5000000), wk =   0.0277778
        k(    8) = (   0.0000000   0.3333333   0.3333333), wk =   0.0555556
        k(    9) = (   0.0000000   0.3333333  -0.5000000), wk =   0.0277778
        k(   10) = (   0.0000000  -0.5000000  -0.5000000), wk =   0.0138889
        k(   11) = (   0.1666667   0.1666667   0.1666667), wk =   0.0370370
        k(   12) = (   0.1666667   0.1666667   0.3333333), wk =   0.1111111
        k(   13) = (   0.1666667   0.1666667  -0.5000000), wk =   0.0555556
        k(   14) = (   0.1666667   0.3333333   0.3333333), wk =   0.1111111
        k(   15) = (   0.1666667   0.3333333  -0.5000000), wk =   0.0555556
        k(   16) = (   0.1666667  -0.5000000  -0.5000000), wk =   0.0277778
        k(   17) = (   0.3333333   0.3333333   0.3333333), wk =   0.0370370
        k(   18) = (   0.3333333   0.3333333  -0.5000000), wk =   0.0555556
        k(   19) = (   0.3333333  -0.5000000  -0.5000000), wk =   0.0277778
        k(   20) = (  -0.5000000  -0.5000000  -0.5000000), wk =   0.0046296
        k(   21) = (   0.0000000   0.3333333   0.1666667), wk =   0.0555556
        k(   22) = (   0.0000000  -0.5000000   0.1666667), wk =   0.0277778
        k(   23) = (   0.0000000  -0.5000000   0.3333333), wk =   0.0277778
        k(   24) = (  -0.1666667  -0.5000000   0.3333333), wk =   0.0555556

     Dense  grid:   304867 G-vectors     FFT dimensions: (  90,  90,  90)

     Smooth grid:    77053 G-vectors     FFT dimensions: (  54,  54,  54)

     Dynamical RAM for                 wfc:       1.06 MB

     Dynamical RAM for     wfc (w. buffer):      26.38 MB

     Dynamical RAM for           str. fact:       0.39 MB

     Dynamical RAM for           local pot:       0.00 MB

     Dynamical RAM for          nlocal pot:       1.67 MB

     Dynamical RAM for                qrad:      12.61 MB

     Dynamical RAM for          rho,v,vnew:       5.29 MB

     Dynamical RAM for               rhoin:       1.76 MB

     Dynamical RAM for            rho*nmix:      12.41 MB

     Dynamical RAM for           G-vectors:       0.75 MB

     Dynamical RAM for          h,s,v(r/c):       1.35 MB

     Dynamical RAM for          <psi|beta>:       0.71 MB

     Dynamical RAM for                 psi:       2.11 MB

     Dynamical RAM for                hpsi:       2.11 MB

     Dynamical RAM for                spsi:       2.11 MB

     Dynamical RAM for      wfcinit/wfcrot:       2.35 MB

     Dynamical RAM for           addusdens:     119.02 MB

     Dynamical RAM for          addusforce:     120.34 MB

     Dynamical RAM for         addusstress:     121.74 MB

     Estimated static dynamical RAM per process >      63.81 MB

     Estimated max dynamical RAM per process >     185.55 MB

     Estimated total dynamical RAM >       4.35 GB

     Initial potential from superposition of free atoms

     starting charge   71.99469, renormalised to   72.00000
     Starting wfcs are  112 randomized atomic wfcs
     Checking if some PAW data can be deallocated... 
       PAW data deallocated on   12 nodes for type:  1
       PAW data deallocated on   12 nodes for type:  2

     total cpu time spent up to now is        8.0 secs

     Self-consistent Calculation

     iteration #  1     ecut=    90.00 Ry     beta= 0.70
     Davidson diagonalization with overlap
     ethr =  1.00E-02,  avg # of iterations =  2.0

     Threshold (ethr) on eigenvalues was too large:
     Diagonalizing with lowered threshold

     Davidson diagonalization with overlap
     ethr =  2.10E-04,  avg # of iterations =  4.5

     total cpu time spent up to now is       33.7 secs

     total energy              =   -1180.30807187 Ry
     estimated scf accuracy    <       0.18846458 Ry

     iteration #  2     ecut=    90.00 Ry     beta= 0.70
     Davidson diagonalization with overlap
     ethr =  2.62E-04,  avg # of iterations =  3.2

     total cpu time spent up to now is       46.9 secs

     total energy              =   -1180.31599250 Ry
     estimated scf accuracy    <       0.07383291 Ry

     iteration #  3     ecut=    90.00 Ry     beta= 0.70
     Davidson diagonalization with overlap
     ethr =  1.03E-04,  avg # of iterations =  5.0

     total cpu time spent up to now is       63.0 secs

     total energy              =   -1180.32520596 Ry
     estimated scf accuracy    <       0.15485495 Ry

     iteration #  4     ecut=    90.00 Ry     beta= 0.70
     Davidson diagonalization with overlap
     ethr =  1.03E-04,  avg # of iterations =  4.1

     total cpu time spent up to now is       76.2 secs

     total energy              =   -1180.34835567 Ry
     estimated scf accuracy    <       0.00058033 Ry

     iteration #  5     ecut=    90.00 Ry     beta= 0.70
     Davidson diagonalization with overlap
     ethr =  8.06E-07,  avg # of iterations =  7.2

     total cpu time spent up to now is       94.4 secs

     total energy              =   -1180.34891702 Ry
     estimated scf accuracy    <       0.00018695 Ry

     iteration #  6     ecut=    90.00 Ry     beta= 0.70
     Davidson diagonalization with overlap
     ethr =  2.60E-07,  avg # of iterations =  3.2

     total cpu time spent up to now is      106.2 secs

     total energy              =   -1180.34895685 Ry
     estimated scf accuracy    <       0.00000122 Ry

     iteration #  7     ecut=    90.00 Ry     beta= 0.70
     Davidson diagonalization with overlap
     ethr =  1.70E-09,  avg # of iterations =  9.3

     total cpu time spent up to now is      129.5 secs

     total energy              =   -1180.34895896 Ry
     estimated scf accuracy    <       0.00001299 Ry

     iteration #  8     ecut=    90.00 Ry     beta= 0.70
     Davidson diagonalization with overlap
     ethr =  1.70E-09,  avg # of iterations =  5.1

     total cpu time spent up to now is      146.3 secs

     End of self-consistent calculation

          k = 0.0000 0.0000 0.0000 (  9771 PWs)   bands (ev):

   -56.5149 -56.5149 -56.4802 -56.4802 -56.4802 -56.4802 -56.4802 -56.4802
   -28.5806 -28.5806 -28.5729 -28.5729 -28.5729 -28.5729 -28.4836 -28.4836
   -27.6155 -27.6155 -27.6155 -27.6155 -27.5386 -27.5386 -27.5386 -27.5386
   -27.5322 -27.5322 -27.4501 -27.4501 -27.4501 -27.4501 -27.4495 -27.4495
     2.6988   2.6988   7.4573   7.4573   7.4573   7.4573   7.4665   7.4665
    10.5373  10.5373  10.5452  10.5452  10.5452  10.5452  11.9115  11.9115
    11.9115  11.9115  11.9226  11.9226  12.6030  12.6030  12.7723  12.7723
    12.7723  12.7723  13.1434  13.1434  13.1434  13.1434  13.1446  13.1446
    13.6714  13.6714  13.6714  13.6714  13.6753  13.6753  15.5521  15.5521
    15.5834  15.5834  15.5834  15.5834  15.7657  15.7657  15.7657  15.7657
    16.6658  16.6658  16.6961  16.6961  16.6961  16.6961

     occupation numbers 
     1.0000   1.0000   1.0000   1.0000   1.0000   1.0000   1.0000   1.0000
     1.0000   1.0000   1.0000   1.0000   1.0000   1.0000   1.0000   1.0000
     1.0000   1.0000   1.0000   1.0000   1.0000   1.0000   1.0000   1.0000
     1.0000   1.0000   1.0000   1.0000   1.0000   1.0000   1.0000   1.0000
     1.0000   1.0000   1.0000   1.0000   1.0000   1.0000   1.0000   1.0000
     1.0000   1.0000   1.0000   1.0000   1.0000   1.0000   1.0000   1.0000
     1.0000   1.0000   1.0000   1.0000   1.0000   1.0000   1.0000   1.0000
     1.0000   1.0000   1.0000   1.0000   1.0000   1.0000   1.0000   1.0000
     1.0000   1.0000   1.0000   1.0000   1.0000   1.0000  -0.0000  -0.0000
    -0.0000  -0.0000  -0.0000  -0.0000  -0.0000  -0.0000  -0.0000  -0.0000
    -0.0000  -0.0000  -0.0000  -0.0000  -0.0000  -0.0000

          k = 0.0000 0.0000 0.1667 (  9663 PWs)   bands (ev):

   -56.5131 -56.5131 -56.4858 -56.4858 -56.4796 -56.4796 -56.4769 -56.4769
   -28.5883 -28.5811 -28.5772 -28.5765 -28.5624 -28.5591 -28.4886 -28.4885
   -27.6323 -27.6244 -27.6021 -27.5946 -27.5507 -27.5454 -27.5399 -27.5324
   -27.5300 -27.5151 -27.4606 -27.4585 -27.4553 -27.4486 -27.4474 -27.4420
     2.8909   2.8909   6.5404   6.5429   7.5635   7.5655   8.1202   8.1295
     9.9484   9.9525  10.6629  10.6655  11.0719  11.0748  11.2875  11.2882
    11.5004  11.5052  12.4495  12.4598  12.7395  12.7618  12.8030  12.8096
    13.0115  13.0149  13.1076  13.1101  13.1968  13.1988  13.2276  13.2279
    13.5315  13.5416  13.6321  13.6347  13.9632  13.9637  15.2941  15.3150
    15.4174  15.4250  15.6925  15.7020  15.7476  15.7661  15.7927  15.8183
    16.4074  16.4229  16.5957  16.6032  16.9910  17.0115

     occupation numbers 
     1.0000   1.0000   1.0000   1.0000   1.0000   1.0000   1.0000   1.0000
     1.0000   1.0000   1.0000   1.0000   1.0000   1.0000   1.0000   1.0000
     1.0000   1.0000   1.0000   1.0000   1.0000   1.0000   1.0000   1.0000
     1.0000   1.0000   1.0000   1.0000   1.0000   1.0000   1.0000   1.0000
     1.0000   1.0000   1.0000   1.0000   1.0000   1.0000   1.0000   1.0000
     1.0000   1.0000   1.0000   1.0000   1.0000   1.0000   1.0000   1.0000
     1.0000   1.0000   1.0000   1.0000   1.0000   1.0000   1.0000   1.0000
     1.0000   1.0000   1.0000   1.0000   1.0000   1.0000   1.0000   1.0000
     1.0000   1.0000   1.0000   1.0000   1.0000   1.0000  -0.0000  -0.0000
    -0.0000  -0.0000  -0.0000  -0.0000  -0.0000  -0.0000  -0.0000  -0.0000
    -0.0000  -0.0000  -0.0000  -0.0000  -0.0000  -0.0000

          k = 0.0000 0.0000 0.3333 (  9606 PWs)   bands (ev):

   -56.5082 -56.5082 -56.4932 -56.4932 -56.4782 -56.4782 -56.4759 -56.4759
   -28.5908 -28.5839 -28.5829 -28.5790 -28.5435 -28.5410 -28.5026 -28.5020
   -27.6401 -27.6323 -27.5836 -27.5790 -27.5630 -27.5441 -27.5388 -27.5288
   -27.5288 -27.4958 -27.4787 -27.4646 -27.4618 -27.4513 -27.4463 -27.4402
     3.4513   3.4514   5.4205   5.4212   7.8607   7.8647   8.5105   8.5201
     9.6516   9.6532  10.6589  10.6613  10.7714  10.7839  11.0450  11.0480
    11.8630  11.8650  12.1345  12.1502  12.8384  12.8545  12.9334  12.9428
    13.1142  13.1201  13.1695  13.1747  13.2584  13.2612  13.3940  13.3962
    13.4521  13.4543  13.9157  13.9196  14.1179  14.1247  14.8899  14.9240
    15.3580  15.3665  15.5355  15.5538  15.7438  15.7721  15.8549  15.8790
    16.1950  16.2109  16.3709  16.3845  17.3063  17.3223

     occupation numbers 
     1.0000   1.0000   1.0000   1.0000   1.0000   1.0000   1.0000   1.0000
     1.0000   1.0000   1.0000   1.0000   1.0000   1.0000   1.0000   1.0000
     1.0000   1.0000   1.0000   1.0000   1.0000   1.0000   1.0000   1.0000
     1.0000   1.0000   1.0000   1.0000   1.0000   1.0000   1.0000   1.0000
     1.0000   1.0000   1.0000   1.0000   1.0000   1.0000   1.0000   1.0000
     1.0000   1.0000   1.0000   1.0000   1.0000   1.0000   1.0000   1.0000
     1.0000   1.0000   1.0000   1.0000   1.0000   1.0000   1.0000   1.0000
     1.0000   1.0000   1.0000   1.0000   1.0000   1.0000   1.0000   1.0000
     1.0000   1.0000   1.0000   1.0000   1.0000   1.0000   1.0161   0.7429
    -0.0000  -0.0000  -0.0000  -0.0000  -0.0000  -0.0000  -0.0000  -0.0000
    -0.0000  -0.0000  -0.0000  -0.0000  -0.0000  -0.0000

          k = 0.0000 0.0000-0.5000 (  9658 PWs)   bands (ev):

   -56.5011 -56.5011 -56.5011 -56.5011 -56.4766 -56.4766 -56.4766 -56.4766
   -28.5884 -28.5884 -28.5825 -28.5825 -28.5222 -28.5222 -28.5208 -28.5208
   -27.6390 -27.6390 -27.5729 -27.5729 -27.5583 -27.5583 -27.5359 -27.5359
   -27.5039 -27.5039 -27.4783 -27.4783 -27.4569 -27.4569 -27.4430 -27.4430
     4.3289   4.3289   4.3290   4.3290   8.2832   8.2832   8.2897   8.2897
    10.0169  10.0169  10.0209  10.0209  10.8982  10.8982  10.9094  10.9094
    12.2476  12.2476  12.2542  12.2542  12.6855  12.6855  12.6979  12.6979
    13.1421  13.1421  13.1425  13.1425  13.2370  13.2370  13.2407  13.2407
    13.7827  13.7827  13.7858  13.7858  14.5657  14.5657  14.5942  14.5942
    15.4013  15.4013  15.4191  15.4191  15.8062  15.8062  15.8359  15.8359
    16.1661  16.1661  16.1798  16.1798  17.5441  17.5472

     occupation numbers 
     1.0000   1.0000   1.0000   1.0000   1.0000   1.0000   1.0000   1.0000
     1.0000   1.0000   1.0000   1.0000   1.0000   1.0000   1.0000   1.0000
     1.0000   1.0000   1.0000   1.0000   1.0000   1.0000   1.0000   1.0000
     1.0000   1.0000   1.0000   1.0000   1.0000   1.0000   1.0000   1.0000
     1.0000   1.0000   1.0000   1.0000   1.0000   1.0000   1.0000   1.0000
     1.0000   1.0000   1.0000   1.0000   1.0000   1.0000   1.0000   1.0000
     1.0000   1.0000   1.0000   1.0000   1.0000   1.0000   1.0000   1.0000
     1.0000   1.0000   1.0000   1.0000   1.0000   1.0000   1.0000   1.0000
     1.0000   1.0000   1.0000   1.0000   1.0000   1.0000   1.0000   1.0000
    -0.0000  -0.0000  -0.0000  -0.0000  -0.0000  -0.0000  -0.0000  -0.0000
    -0.0000  -0.0000  -0.0000  -0.0000  -0.0000  -0.0000

          k = 0.0000 0.1667 0.1667 (  9657 PWs)   bands (ev):

   -56.5115 -56.5115 -56.4877 -56.4877 -56.4802 -56.4802 -56.4761 -56.4761
   -28.5900 -28.5840 -28.5748 -28.5748 -28.5587 -28.5547 -28.4934 -28.4932
   -27.6331 -27.6290 -27.5929 -27.5891 -27.5521 -27.5489 -27.5431 -27.5380
   -27.5219 -27.5060 -27.4694 -27.4657 -27.4581 -27.4498 -27.4426 -27.4383
     3.0805   3.0806   6.3977   6.4021   7.2081   7.2125   8.4074   8.4128
     9.8328   9.8361  10.5100  10.5125  10.7873  10.7885  11.3573  11.3602
    11.7801  11.7805  12.4121  12.4178  12.5880  12.5957  12.9949  12.9963
    13.0907  13.0989  13.1715  13.1723  13.2434  13.2500  13.3354  13.3404
    13.4671  13.4750  13.7323  13.7464  14.0752  14.0826  15.2520  15.2737
    15.3014  15.3208  15.5352  15.5472  15.6949  15.7159  15.8143  15.8388
    16.2775  16.2945  16.6073  16.6170  17.0331  17.0676

     occupation numbers 
     1.0000   1.0000   1.0000   1.0000   1.0000   1.0000   1.0000   1.0000
     1.0000   1.0000   1.0000   1.0000   1.0000   1.0000   1.0000   1.0000
     1.0000   1.0000   1.0000   1.0000   1.0000   1.0000   1.0000   1.0000
     1.0000   1.0000   1.0000   1.0000   1.0000   1.0000   1.0000   1.0000
     1.0000   1.0000   1.0000   1.0000   1.0000   1.0000   1.0000   1.0000
     1.0000   1.0000   1.0000   1.0000   1.0000   1.0000   1.0000   1.0000
     1.0000   1.0000   1.0000   1.0000   1.0000   1.0000   1.0000   1.0000
     1.0000   1.0000   1.0000   1.0000   1.0000   1.0000   1.0000   1.0000
     1.0000   1.0000   1.0000   1.0000   1.0000   1.0000  -0.0000  -0.0000
    -0.0000  -0.0000  -0.0000  -0.0000  -0.0000  -0.0000  -0.0000  -0.0000
    -0.0000  -0.0000  -0.0000  -0.0000  -0.0000  -0.0000

          k = 0.0000 0.1667 0.3333 (  9647 PWs)   bands (ev):

   -56.5068 -56.5068 -56.4932 -56.4932 -56.4793 -56.4793 -56.4761 -56.4761
   -28.5899 -28.5846 -28.5786 -28.5764 -28.5441 -28.5415 -28.5065 -28.5061
   -27.6363 -27.6311 -27.5818 -27.5762 -27.5620 -27.5489 -27.5422 -27.5336
   -27.5231 -27.4923 -27.4869 -27.4713 -27.4636 -27.4526 -27.4390 -27.4353
     3.6330   3.6332   5.5381   5.5398   7.3634   7.3660   8.4333   8.4366
     9.7331   9.7363  10.1893  10.1936  10.9878  10.9908  11.3854  11.3950
    11.7522  11.7566  12.1891  12.1979  12.5944  12.6021  12.8760  12.8848
    13.1123  13.1217  13.2508  13.2566  13.3788  13.3801  13.5257  13.5357
    13.5894  13.6026  13.9885  13.9991  14.2439  14.2563  14.9096  14.9406
    15.2246  15.2433  15.3446  15.3546  15.6534  15.6785  15.8061  15.8365
    16.1517  16.1612  16.4395  16.4526  17.2364  17.2693

     occupation numbers 
     1.0000   1.0000   1.0000   1.0000   1.0000   1.0000   1.0000   1.0000
     1.0000   1.0000   1.0000   1.0000   1.0000   1.0000   1.0000   1.0000
     1.0000   1.0000   1.0000   1.0000   1.0000   1.0000   1.0000   1.0000
     1.0000   1.0000   1.0000   1.0000   1.0000   1.0000   1.0000   1.0000
     1.0000   1.0000   1.0000   1.0000   1.0000   1.0000   1.0000   1.0000
     1.0000   1.0000   1.0000   1.0000   1.0000   1.0000   1.0000   1.0000
     1.0000   1.0000   1.0000   1.0000   1.0000   1.0000   1.0000   1.0000
     1.0000   1.0000   1.0000   1.0000   1.0000   1.0000   1.0000   1.0000
     1.0000   1.0000   1.0000   1.0000   1.0000   1.0000   0.9047   0.4979
    -0.0000  -0.0000  -0.0000  -0.0000  -0.0000  -0.0000  -0.0000  -0.0000
    -0.0000  -0.0000  -0.0000  -0.0000  -0.0000  -0.0000

          k = 0.0000 0.1667-0.5000 (  9654 PWs)   bands (ev):

   -56.5003 -56.5003 -56.5003 -56.5003 -56.4774 -56.4774 -56.4774 -56.4774
   -28.5860 -28.5860 -28.5803 -28.5803 -28.5256 -28.5256 -28.5229 -28.5229
   -27.6347 -27.6347 -27.5733 -27.5733 -27.5588 -27.5588 -27.5350 -27.5350
   -27.5113 -27.5113 -27.4789 -27.4789 -27.4594 -27.4594 -27.4361 -27.4361
     4.4936   4.4936   4.4943   4.4943   7.8956   7.8956   7.9024   7.9024
    10.0150  10.0150  10.0189  10.0189  11.1034  11.1034  11.1175  11.1175
    12.0903  12.0903  12.0949  12.0949  12.5399  12.5399  12.5557  12.5557
    13.2754  13.2754  13.2764  13.2764  13.3907  13.3907  13.3919  13.3919
    13.8666  13.8666  13.8706  13.8706  14.6208  14.6208  14.6521  14.6521
    15.2373  15.2373  15.2519  15.2519  15.7141  15.7141  15.7439  15.7439
    16.2397  16.2397  16.2504  16.2504  17.4834  17.4864

     occupation numbers 
     1.0000   1.0000   1.0000   1.0000   1.0000   1.0000   1.0000   1.0000
     1.0000   1.0000   1.0000   1.0000   1.0000   1.0000   1.0000   1.0000
     1.0000   1.0000   1.0000   1.0000   1.0000   1.0000   1.0000   1.0000
     1.0000   1.0000   1.0000   1.0000   1.0000   1.0000   1.0000   1.0000
     1.0000   1.0000   1.0000   1.0000   1.0000   1.0000   1.0000   1.0000
     1.0000   1.0000   1.0000   1.0000   1.0000   1.0000   1.0000   1.0000
     1.0000   1.0000   1.0000   1.0000   1.0000   1.0000   1.0000   1.0000
     1.0000   1.0000   1.0000   1.0000   1.0000   1.0000   1.0000   1.0000
     1.0000   1.0000   1.0000   1.0000   1.0000   1.0000   1.0000   1.0000
    -0.0000  -0.0000  -0.0000  -0.0000  -0.0000  -0.0000  -0.0000  -0.0000
    -0.0000  -0.0000  -0.0000  -0.0000  -0.0000  -0.0000

          k = 0.0000 0.3333 0.3333 (  9619 PWs)   bands (ev):

   -56.5032 -56.5032 -56.4946 -56.4946 -56.4803 -56.4803 -56.4773 -56.4773
   -28.5859 -28.5819 -28.5748 -28.5739 -28.5418 -28.5395 -28.5173 -28.5165
   -27.6279 -27.6266 -27.5831 -27.5775 -27.5580 -27.5502 -27.5382 -27.5370
   -27.5219 -27.5004 -27.4982 -27.4869 -27.4579 -27.4443 -27.4347 -27.4316
     4.1586   4.1590   5.6403   5.6424   6.6788   6.6815   7.8203   7.8240
    10.0318  10.0345  10.3051  10.3081  10.9410  10.9427  11.2583  11.2605
    11.8948  11.9014  12.1583  12.1627  12.3094  12.3190  12.6282  12.6361
    13.1786  13.1869  13.3908  13.3958  13.5592  13.5620  13.7203  13.7256
    13.8833  13.8949  14.0942  14.1069  14.4879  14.5136  14.8482  14.8598
    14.9407  14.9609  15.0571  15.0738  15.5214  15.5445  15.6024  15.6323
    16.2324  16.2412  16.4900  16.4969  17.1466  17.1772

     occupation numbers 
     1.0000   1.0000   1.0000   1.0000   1.0000   1.0000   1.0000   1.0000
     1.0000   1.0000   1.0000   1.0000   1.0000   1.0000   1.0000   1.0000
     1.0000   1.0000   1.0000   1.0000   1.0000   1.0000   1.0000   1.0000
     1.0000   1.0000   1.0000   1.0000   1.0000   1.0000   1.0000   1.0000
     1.0000   1.0000   1.0000   1.0000   1.0000   1.0000   1.0000   1.0000
     1.0000   1.0000   1.0000   1.0000   1.0000   1.0000   1.0000   1.0000
     1.0000   1.0000   1.0000   1.0000   1.0000   1.0000   1.0000   1.0000
     1.0000   1.0000   1.0000   1.0000   1.0000   1.0000   1.0000   1.0000
     1.0000   1.0000   1.0000   1.0000   1.0000   1.0000   1.0188   1.0285
     0.4956   0.2055  -0.0049  -0.0014  -0.0000  -0.0000  -0.0000  -0.0000
    -0.0000  -0.0000  -0.0000  -0.0000  -0.0000  -0.0000

          k = 0.0000 0.3333-0.5000 (  9646 PWs)   bands (ev):

   -56.4985 -56.4985 -56.4985 -56.4985 -56.4792 -56.4792 -56.4792 -56.4792
   -28.5801 -28.5801 -28.5758 -28.5758 -28.5320 -28.5320 -28.5290 -28.5290
   -27.6226 -27.6226 -27.5855 -27.5855 -27.5501 -27.5501 -27.5329 -27.5329
   -27.5193 -27.5193 -27.4977 -27.4977 -27.4467 -27.4467 -27.4320 -27.4320
     4.9498   4.9498   4.9511   4.9511   7.0289   7.0289   7.0338   7.0338
    10.3307  10.3307  10.3327  10.3327  11.2379  11.2379  11.2463  11.2463
    11.7608  11.7608  11.7663  11.7663  12.3340  12.3340  12.3413  12.3413
    13.3661  13.3661  13.3732  13.3732  13.6747  13.6747  13.6834  13.6834
    14.1705  14.1705  14.1760  14.1760  14.6106  14.6106  14.6297  14.6297
    14.9434  14.9434  14.9583  14.9583  15.4974  15.4974  15.5217  15.5217
    16.4405  16.4405  16.4512  16.4512  17.1948  17.1952

     occupation numbers 
     1.0000   1.0000   1.0000   1.0000   1.0000   1.0000   1.0000   1.0000
     1.0000   1.0000   1.0000   1.0000   1.0000   1.0000   1.0000   1.0000
     1.0000   1.0000   1.0000   1.0000   1.0000   1.0000   1.0000   1.0000
     1.0000   1.0000   1.0000   1.0000   1.0000   1.0000   1.0000   1.0000
     1.0000   1.0000   1.0000   1.0000   1.0000   1.0000   1.0000   1.0000
     1.0000   1.0000   1.0000   1.0000   1.0000   1.0000   1.0000   1.0000
     1.0000   1.0000   1.0000   1.0000   1.0000   1.0000   1.0000   1.0000
     1.0000   1.0000   1.0000   1.0000   1.0000   1.0000   1.0000   1.0000
     1.0000   1.0000   1.0000   1.0000   1.0000   1.0000   1.0000   1.0000
     0.4545   0.4545   0.2380   0.2380  -0.0000  -0.0000  -0.0000  -0.0000
    -0.0000  -0.0000  -0.0000  -0.0000  -0.0000  -0.0000

          k = 0.0000-0.5000-0.5000 (  9580 PWs)   bands (ev):

   -56.4974 -56.4974 -56.4974 -56.4974 -56.4803 -56.4803 -56.4803 -56.4803
   -28.5748 -28.5748 -28.5748 -28.5748 -28.5341 -28.5341 -28.5341 -28.5341
   -27.6048 -27.6048 -27.6048 -27.6048 -27.5369 -27.5369 -27.5369 -27.5369
   -27.5156 -27.5156 -27.5156 -27.5156 -27.4358 -27.4358 -27.4358 -27.4358
     5.3717   5.3717   5.3717   5.3717   6.4280   6.4280   6.4280   6.4280
    10.7060  10.7060  10.7060  10.7060  11.2428  11.2428  11.2428  11.2428
    11.3853  11.3853  11.3853  11.3853  12.2845  12.2845  12.2845  12.2845
    13.3617  13.3617  13.3617  13.3617  14.0070  14.0070  14.0070  14.0070
    14.2934  14.2934  14.2934  14.2934  14.5253  14.5253  14.5253  14.5253
    14.7579  14.7579  14.7579  14.7579  15.4168  15.4168  15.4168  15.4168
    16.5876  16.5876  16.5876  16.5876  16.9840  16.9840

     occupation numbers 
     1.0000   1.0000   1.0000   1.0000   1.0000   1.0000   1.0000   1.0000
     1.0000   1.0000   1.0000   1.0000   1.0000   1.0000   1.0000   1.0000
     1.0000   1.0000   1.0000   1.0000   1.0000   1.0000   1.0000   1.0000
     1.0000   1.0000   1.0000   1.0000   1.0000   1.0000   1.0000   1.0000
     1.0000   1.0000   1.0000   1.0000   1.0000   1.0000   1.0000   1.0000
     1.0000   1.0000   1.0000   1.0000   1.0000   1.0000   1.0000   1.0000
     1.0000   1.0000   1.0000   1.0000   1.0000   1.0000   1.0000   1.0000
     1.0000   1.0000   1.0000   1.0000   1.0000   1.0000   1.0000   1.0000
     1.0000   1.0000   1.0000   1.0000   1.0000   1.0000   1.0000   1.0000
     1.0000   1.0000   1.0000   1.0000  -0.0000  -0.0000  -0.0000  -0.0000
    -0.0000  -0.0000  -0.0000  -0.0000  -0.0000  -0.0000

          k = 0.1667 0.1667 0.1667 (  9627 PWs)   bands (ev):

   -56.5099 -56.5099 -56.4888 -56.4888 -56.4809 -56.4809 -56.4759 -56.4759
   -28.5904 -28.5848 -28.5730 -28.5728 -28.5566 -28.5525 -28.4980 -28.4976
   -27.6325 -27.6302 -27.5903 -27.5818 -27.5525 -27.5488 -27.5463 -27.5447
   -27.5163 -27.5007 -27.4791 -27.4651 -27.4588 -27.4559 -27.4376 -27.4368
     3.2676   3.2677   6.3455   6.3522   7.0387   7.0474   8.3238   8.3261
     9.7325   9.7352  10.5174  10.5183  10.5474  10.5487  11.3854  11.3910
    11.9879  11.9884  12.3200  12.3282  12.8285  12.8343  12.8347  12.8410
    13.1016  13.1069  13.1333  13.1334  13.2091  13.2152  13.5207  13.5258
    13.6001  13.6096  13.7831  13.7885  14.1524  14.1610  15.2047  15.2193
    15.2720  15.2866  15.4701  15.4715  15.5217  15.5372  15.7918  15.8067
    16.2236  16.2404  16.6028  16.6143  17.0473  17.0874

     occupation numbers 
     1.0000   1.0000   1.0000   1.0000   1.0000   1.0000   1.0000   1.0000
     1.0000   1.0000   1.0000   1.0000   1.0000   1.0000   1.0000   1.0000
     1.0000   1.0000   1.0000   1.0000   1.0000   1.0000   1.0000   1.0000
     1.0000   1.0000   1.0000   1.0000   1.0000   1.0000   1.0000   1.0000
     1.0000   1.0000   1.0000   1.0000   1.0000   1.0000   1.0000   1.0000
     1.0000   1.0000   1.0000   1.0000   1.0000   1.0000   1.0000   1.0000
     1.0000   1.0000   1.0000   1.0000   1.0000   1.0000   1.0000   1.0000
     1.0000   1.0000   1.0000   1.0000   1.0000   1.0000   1.0000   1.0000
     1.0000   1.0000   1.0000   1.0000   1.0000   1.0000  -0.0000  -0.0000
    -0.0000  -0.0000  -0.0000  -0.0000  -0.0000  -0.0000  -0.0000  -0.0000
    -0.0000  -0.0000  -0.0000  -0.0000  -0.0000  -0.0000

          k = 0.1667 0.1667 0.3333 (  9629 PWs)   bands (ev):

   -56.5055 -56.5055 -56.4931 -56.4931 -56.4802 -56.4802 -56.4765 -56.4765
   -28.5885 -28.5838 -28.5756 -28.5740 -28.5452 -28.5424 -28.5105 -28.5098
   -27.6331 -27.6290 -27.5812 -27.5734 -27.5609 -27.5519 -27.5447 -27.5386
   -27.5175 -27.5026 -27.4800 -27.4696 -27.4677 -27.4562 -27.4352 -27.4337
     3.8120   3.8122   5.6526   5.6548   7.1831   7.1871   8.2394   8.2430
     9.3521   9.3545  10.2215  10.2239  10.9246  10.9283  11.4677  11.4709
    11.8290  11.8332  12.2174  12.2195  12.7505  12.7594  12.9435  12.9497
    13.0775  13.0862  13.1960  13.2045  13.2917  13.2952  13.5429  13.5497
    13.7612  13.7664  14.0119  14.0209  14.3519  14.3693  14.9061  14.9336
    15.1889  15.2040  15.2810  15.2910  15.5013  15.5159  15.7121  15.7330
    16.1650  16.1745  16.4524  16.4663  17.2162  17.2474

     occupation numbers 
     1.0000   1.0000   1.0000   1.0000   1.0000   1.0000   1.0000   1.0000
     1.0000   1.0000   1.0000   1.0000   1.0000   1.0000   1.0000   1.0000
     1.0000   1.0000   1.0000   1.0000   1.0000   1.0000   1.0000   1.0000
     1.0000   1.0000   1.0000   1.0000   1.0000   1.0000   1.0000   1.0000
     1.0000   1.0000   1.0000   1.0000   1.0000   1.0000   1.0000   1.0000
     1.0000   1.0000   1.0000   1.0000   1.0000   1.0000   1.0000   1.0000
     1.0000   1.0000   1.0000   1.0000   1.0000   1.0000   1.0000   1.0000
     1.0000   1.0000   1.0000   1.0000   1.0000   1.0000   1.0000   1.0000
     1.0000   1.0000   1.0000   1.0000   1.0000   1.0000   0.9331   0.6058
    -0.0000  -0.0000  -0.0000  -0.0000  -0.0000  -0.0000  -0.0000  -0.0000
    -0.0000  -0.0000  -0.0000  -0.0000  -0.0000  -0.0000

          k = 0.1667 0.1667-0.5000 (  9658 PWs)   bands (ev):

   -56.4994 -56.4994 -56.4994 -56.4994 -56.4783 -56.4783 -56.4783 -56.4783
   -28.5837 -28.5837 -28.5782 -28.5782 -28.5287 -28.5287 -28.5253 -28.5253
   -27.6308 -27.6308 -27.5716 -27.5716 -27.5630 -27.5630 -27.5331 -27.5331
   -27.5175 -27.5175 -27.4753 -27.4753 -27.4622 -27.4622 -27.4336 -27.4336
     4.6548   4.6548   4.6556   4.6556   7.7188   7.7188   7.7250   7.7250
     9.6725   9.6725   9.6738   9.6738  11.3991  11.3991  11.4073  11.4073
    11.8729  11.8729  11.8765  11.8765  12.7967  12.7967  12.8087  12.8087
    13.1808  13.1808  13.1913  13.1913  13.4165  13.4165  13.4207  13.4207
    13.9216  13.9216  13.9295  13.9295  14.6723  14.6723  14.7062  14.7062
    15.1610  15.1610  15.1810  15.1810  15.6024  15.6024  15.6250  15.6250
    16.2589  16.2589  16.2686  16.2686  17.5692  17.5698

     occupation numbers 
     1.0000   1.0000   1.0000   1.0000   1.0000   1.0000   1.0000   1.0000
     1.0000   1.0000   1.0000   1.0000   1.0000   1.0000   1.0000   1.0000
     1.0000   1.0000   1.0000   1.0000   1.0000   1.0000   1.0000   1.0000
     1.0000   1.0000   1.0000   1.0000   1.0000   1.0000   1.0000   1.0000
     1.0000   1.0000   1.0000   1.0000   1.0000   1.0000   1.0000   1.0000
     1.0000   1.0000   1.0000   1.0000   1.0000   1.0000   1.0000   1.0000
     1.0000   1.0000   1.0000   1.0000   1.0000   1.0000   1.0000   1.0000
     1.0000   1.0000   1.0000   1.0000   1.0000   1.0000   1.0000   1.0000
     1.0000   1.0000   1.0000   1.0000   1.0000   1.0000   1.0000   1.0000
    -0.0000  -0.0000  -0.0000  -0.0000  -0.0000  -0.0000  -0.0000  -0.0000
    -0.0000  -0.0000  -0.0000  -0.0000  -0.0000  -0.0000

          k = 0.1667 0.3333 0.3333 (  9651 PWs)   bands (ev):

   -56.5020 -56.5020 -56.4940 -56.4940 -56.4813 -56.4813 -56.4781 -56.4781
   -28.5840 -28.5801 -28.5723 -28.5714 -28.5439 -28.5415 -28.5209 -28.5198
   -27.6255 -27.6228 -27.5821 -27.5751 -27.5631 -27.5546 -27.5416 -27.5359
   -27.5191 -27.5116 -27.4858 -27.4781 -27.4618 -27.4505 -27.4344 -27.4313
     4.3286   4.3289   5.7585   5.7620   6.7217   6.7272   7.7773   7.7809
     9.2004   9.2038  10.0627  10.0663  10.9681  10.9703  11.5785  11.5827
    11.7445  11.7467  12.2587  12.2622  12.4929  12.4993  12.8105  12.8170
    13.1499  13.1542  13.2521  13.2643  13.3987  13.4060  13.6910  13.7062
    13.9158  13.9320  14.2276  14.2384  14.5636  14.5918  14.8629  14.8769
    14.9462  14.9573  15.1220  15.1488  15.4047  15.4074  15.5509  15.5665
    16.2273  16.2348  16.4568  16.4648  17.0958  17.1206

     occupation numbers 
     1.0000   1.0000   1.0000   1.0000   1.0000   1.0000   1.0000   1.0000
     1.0000   1.0000   1.0000   1.0000   1.0000   1.0000   1.0000   1.0000
     1.0000   1.0000   1.0000   1.0000   1.0000   1.0000   1.0000   1.0000
     1.0000   1.0000   1.0000   1.0000   1.0000   1.0000   1.0000   1.0000
     1.0000   1.0000   1.0000   1.0000   1.0000   1.0000   1.0000   1.0000
     1.0000   1.0000   1.0000   1.0000   1.0000   1.0000   1.0000   1.0000
     1.0000   1.0000   1.0000   1.0000   1.0000   1.0000   1.0000   1.0000
     1.0000   1.0000   1.0000   1.0000   1.0000   1.0000   1.0000   1.0000
     1.0000   1.0000   1.0000   1.0000   1.0000   1.0000   1.0308   1.0349
     0.4108   0.2513  -0.0000  -0.0000  -0.0000  -0.0000  -0.0000  -0.0000
    -0.0000  -0.0000  -0.0000  -0.0000  -0.0000  -0.0000

          k = 0.1667 0.3333-0.5000 (  9682 PWs)   bands (ev):

   -56.4975 -56.4975 -56.4975 -56.4975 -56.4803 -56.4803 -56.4803 -56.4802
   -28.5778 -28.5778 -28.5735 -28.5735 -28.5350 -28.5350 -28.5317 -28.5317
   -27.6194 -27.6194 -27.5832 -27.5832 -27.5585 -27.5585 -27.5331 -27.5331
   -27.5201 -27.5201 -27.4876 -27.4876 -27.4514 -27.4514 -27.4329 -27.4329
     5.1005   5.1005   5.1019   5.1019   7.0736   7.0736   7.0790   7.0790
     9.6226   9.6226   9.6263   9.6263  11.2867  11.2867  11.2885  11.2885
    11.9342  11.9342  11.9431  11.9431  12.5628  12.5628  12.5721  12.5721
    13.2641  13.2641  13.2701  13.2701  13.5477  13.5477  13.5626  13.5626
    14.2333  14.2333  14.2422  14.2422  14.7084  14.7084  14.7295  14.7295
    14.9610  14.9610  14.9788  14.9788  15.4415  15.4415  15.4584  15.4584
    16.3831  16.3831  16.3907  16.3907  17.1577  17.1604

     occupation numbers 
     1.0000   1.0000   1.0000   1.0000   1.0000   1.0000   1.0000   1.0000
     1.0000   1.0000   1.0000   1.0000   1.0000   1.0000   1.0000   1.0000
     1.0000   1.0000   1.0000   1.0000   1.0000   1.0000   1.0000   1.0000
     1.0000   1.0000   1.0000   1.0000   1.0000   1.0000   1.0000   1.0000
     1.0000   1.0000   1.0000   1.0000   1.0000   1.0000   1.0000   1.0000
     1.0000   1.0000   1.0000   1.0000   1.0000   1.0000   1.0000   1.0000
     1.0000   1.0000   1.0000   1.0000   1.0000   1.0000   1.0000   1.0000
     1.0000   1.0000   1.0000   1.0000   1.0000   1.0000   1.0000   1.0000
     1.0000   1.0000   1.0000   1.0000   1.0000   1.0000   1.0000   1.0000
     0.2039   0.2039   0.0382   0.0382  -0.0000  -0.0000  -0.0000  -0.0000
    -0.0000  -0.0000  -0.0000  -0.0000  -0.0000  -0.0000

          k = 0.1667-0.5000-0.5000 (  9628 PWs)   bands (ev):

   -56.4963 -56.4963 -56.4963 -56.4963 -56.4814 -56.4814 -56.4814 -56.4814
   -28.5725 -28.5725 -28.5723 -28.5723 -28.5373 -28.5373 -28.5369 -28.5369
   -27.6056 -27.6056 -27.5987 -27.5987 -27.5533 -27.5533 -27.5366 -27.5366
   -27.5151 -27.5151 -27.4979 -27.4979 -27.4423 -27.4423 -27.4363 -27.4363
     5.5083   5.5083   5.5097   5.5097   6.5309   6.5309   6.5335   6.5335
     9.8343   9.8343   9.8385   9.8385  10.8957  10.8957  10.8979  10.8979
    12.1889  12.1889  12.1915  12.1915  12.3739  12.3739  12.3770  12.3770
    13.2206  13.2206  13.2213  13.2213  13.7549  13.7549  13.7688  13.7688
    14.3891  14.3891  14.3962  14.3962  14.6951  14.6951  14.7124  14.7124
    14.8367  14.8367  14.8385  14.8385  15.3635  15.3635  15.3637  15.3637
    16.4841  16.4841  16.4857  16.4857  16.9499  16.9515

     occupation numbers 
     1.0000   1.0000   1.0000   1.0000   1.0000   1.0000   1.0000   1.0000
     1.0000   1.0000   1.0000   1.0000   1.0000   1.0000   1.0000   1.0000
     1.0000   1.0000   1.0000   1.0000   1.0000   1.0000   1.0000   1.0000
     1.0000   1.0000   1.0000   1.0000   1.0000   1.0000   1.0000   1.0000
     1.0000   1.0000   1.0000   1.0000   1.0000   1.0000   1.0000   1.0000
     1.0000   1.0000   1.0000   1.0000   1.0000   1.0000   1.0000   1.0000
     1.0000   1.0000   1.0000   1.0000   1.0000   1.0000   1.0000   1.0000
     1.0000   1.0000   1.0000   1.0000   1.0000   1.0000   1.0000   1.0000
     1.0000   1.0000   1.0000   1.0000   1.0000   1.0000   1.0000   1.0000
     1.0107   1.0107   1.0118   1.0118  -0.0000  -0.0000  -0.0000  -0.0000
    -0.0000  -0.0000  -0.0000  -0.0000  -0.0000  -0.0000

          k = 0.3333 0.3333 0.3333 (  9690 PWs)   bands (ev):

   -56.4988 -56.4988 -56.4931 -56.4931 -56.4833 -56.4833 -56.4802 -56.4802
   -28.5785 -28.5752 -28.5673 -28.5673 -28.5466 -28.5445 -28.5301 -28.5286
   -27.6179 -27.6144 -27.5805 -27.5711 -27.5709 -27.5697 -27.5451 -27.5322
   -27.5237 -27.5045 -27.4814 -27.4634 -27.4632 -27.4632 -27.4366 -27.4334
     4.8147   4.8151   5.9670   5.9735   6.6631   6.6735   7.5023   7.5050
     8.7481   8.7531   9.4977   9.5041  10.5489  10.5534  11.1927  11.1945
    12.0051  12.0069  12.4952  12.4983  12.7669  12.7711  12.8465  12.8482
    13.1360  13.1478  13.1941  13.2008  13.2632  13.2655  13.5421  13.5452
    14.1368  14.1414  14.4894  14.4977  14.7897  14.8266  14.8463  14.8581
    14.9932  15.0041  15.1338  15.1397  15.2603  15.2874  15.4096  15.4290
    16.2514  16.2584  16.3860  16.3887  16.9516  16.9599

     occupation numbers 
     1.0000   1.0000   1.0000   1.0000   1.0000   1.0000   1.0000   1.0000
     1.0000   1.0000   1.0000   1.0000   1.0000   1.0000   1.0000   1.0000
     1.0000   1.0000   1.0000   1.0000   1.0000   1.0000   1.0000   1.0000
     1.0000   1.0000   1.0000   1.0000   1.0000   1.0000   1.0000   1.0000
     1.0000   1.0000   1.0000   1.0000   1.0000   1.0000   1.0000   1.0000
     1.0000   1.0000   1.0000   1.0000   1.0000   1.0000   1.0000   1.0000
     1.0000   1.0000   1.0000   1.0000   1.0000   1.0000   1.0000   1.0000
     1.0000   1.0000   1.0000   1.0000   1.0000   1.0000   1.0000   1.0000
     1.0000   1.0000   1.0000   1.0000   1.0003   1.0059   1.0173   1.0271
    -0.0217  -0.0350  -0.0000  -0.0000  -0.0000  -0.0000  -0.0000  -0.0000
    -0.0000  -0.0000  -0.0000  -0.0000  -0.0000  -0.0000

          k = 0.3333 0.3333-0.5000 (  9648 PWs)   bands (ev):

   -56.4949 -56.4949 -56.4949 -56.4949 -56.4828 -56.4828 -56.4828 -56.4828
   -28.5716 -28.5716 -28.5679 -28.5679 -28.5419 -28.5419 -28.5387 -28.5387
   -27.6102 -27.6102 -27.5813 -27.5813 -27.5707 -27.5707 -27.5419 -27.5419
   -27.5095 -27.5095 -27.4761 -27.4761 -27.4576 -27.4576 -27.4376 -27.4376
     5.5140   5.5140   5.5159   5.5159   6.9765   6.9765   6.9824   6.9824
     9.0501   9.0501   9.0560   9.0560  10.5629  10.5629  10.5659  10.5659
    12.3833  12.3833  12.3917  12.3917  12.8165  12.8165  12.8241  12.8241
    13.1305  13.1305  13.1415  13.1415  13.3751  13.3751  13.3835  13.3835
    14.4625  14.4625  14.4708  14.4708  14.8585  14.8585  14.8742  14.8742
    15.0776  15.0776  15.0969  15.0969  15.2933  15.2933  15.3096  15.3096
    16.3279  16.3279  16.3373  16.3373  16.9261  16.9281

     occupation numbers 
     1.0000   1.0000   1.0000   1.0000   1.0000   1.0000   1.0000   1.0000
     1.0000   1.0000   1.0000   1.0000   1.0000   1.0000   1.0000   1.0000
     1.0000   1.0000   1.0000   1.0000   1.0000   1.0000   1.0000   1.0000
     1.0000   1.0000   1.0000   1.0000   1.0000   1.0000   1.0000   1.0000
     1.0000   1.0000   1.0000   1.0000   1.0000   1.0000   1.0000   1.0000
     1.0000   1.0000   1.0000   1.0000   1.0000   1.0000   1.0000   1.0000
     1.0000   1.0000   1.0000   1.0000   1.0000   1.0000   1.0000   1.0000
     1.0000   1.0000   1.0000   1.0000   1.0000   1.0000   1.0000   1.0000
     1.0000   1.0000   1.0000   1.0000   1.0274   1.0274   1.0354   1.0354
    -0.0011  -0.0011  -0.0002  -0.0002  -0.0000  -0.0000  -0.0000  -0.0000
    -0.0000  -0.0000  -0.0000  -0.0000  -0.0000  -0.0000

          k = 0.3333-0.5000-0.5000 (  9668 PWs)   bands (ev):

   -56.4931 -56.4931 -56.4931 -56.4931 -56.4846 -56.4846 -56.4846 -56.4846
   -28.5657 -28.5657 -28.5653 -28.5653 -28.5454 -28.5454 -28.5449 -28.5449
   -27.5995 -27.5995 -27.5910 -27.5910 -27.5711 -27.5711 -27.5460 -27.5460
   -27.5022 -27.5022 -27.4777 -27.4777 -27.4526 -27.4526 -27.4443 -27.4443
     5.8924   5.8924   5.8954   5.8954   6.6651   6.6651   6.6706   6.6706
     9.0934   9.0934   9.1001   9.1001  10.0569  10.0569  10.0611  10.0611
    12.6123  12.6123  12.6163  12.6163  12.7978  12.7978  12.7998  12.7998
    13.0402  13.0402  13.0403  13.0403  13.3499  13.3499  13.3605  13.3605
    14.6525  14.6525  14.6601  14.6601  14.9699  14.9699  14.9773  14.9773
    15.0625  15.0625  15.0680  15.0680  15.2520  15.2520  15.2639  15.2639
    16.3650  16.3650  16.3663  16.3663  16.7170  16.7176

     occupation numbers 
     1.0000   1.0000   1.0000   1.0000   1.0000   1.0000   1.0000   1.0000
     1.0000   1.0000   1.0000   1.0000   1.0000   1.0000   1.0000   1.0000
     1.0000   1.0000   1.0000   1.0000   1.0000   1.0000   1.0000   1.0000
     1.0000   1.0000   1.0000   1.0000   1.0000   1.0000   1.0000   1.0000
     1.0000   1.0000   1.0000   1.0000   1.0000   1.0000   1.0000   1.0000
     1.0000   1.0000   1.0000   1.0000   1.0000   1.0000   1.0000   1.0000
     1.0000   1.0000   1.0000   1.0000   1.0000   1.0000   1.0000   1.0000
     1.0000   1.0000   1.0000   1.0000   1.0000   1.0000   1.0000   1.0000
     1.0000   1.0000   1.0000   1.0000   0.1084   0.1084   0.0482   0.0482
    -0.0034  -0.0034  -0.0023  -0.0023  -0.0000  -0.0000  -0.0000  -0.0000
    -0.0000  -0.0000  -0.0000  -0.0000  -0.0000  -0.0000

          k =-0.5000-0.5000-0.5000 (  9568 PWs)   bands (ev):

   -56.4888 -56.4888 -56.4888 -56.4888 -56.4888 -56.4888 -56.4888 -56.4888
   -28.5563 -28.5563 -28.5553 -28.5553 -28.5553 -28.5553 -28.5553 -28.5553
   -27.5873 -27.5873 -27.5873 -27.5873 -27.5873 -27.5873 -27.5500 -27.5500
   -27.4954 -27.4954 -27.4588 -27.4588 -27.4588 -27.4588 -27.4588 -27.4588
     6.3994   6.3994   6.3994   6.3994   6.3994   6.3994   6.4097   6.4097
     9.2380   9.2380   9.2505   9.2505   9.2505   9.2505   9.2505   9.2505
    12.9156  12.9156  12.9221  12.9221  12.9221  12.9221  12.9221  12.9221
    12.9981  12.9981  13.0029  13.0029  13.0029  13.0029  13.0029  13.0029
    14.9302  14.9302  14.9321  14.9321  14.9321  14.9321  14.9321  14.9321
    15.2347  15.2347  15.2347  15.2347  15.2347  15.2347  15.2778  15.2778
    16.4071  16.4071  16.4195  16.4195  16.4195  16.4195

     occupation numbers 
     1.0000   1.0000   1.0000   1.0000   1.0000   1.0000   1.0000   1.0000
     1.0000   1.0000   1.0000   1.0000   1.0000   1.0000   1.0000   1.0000
     1.0000   1.0000   1.0000   1.0000   1.0000   1.0000   1.0000   1.0000
     1.0000   1.0000   1.0000   1.0000   1.0000   1.0000   1.0000   1.0000
     1.0000   1.0000   1.0000   1.0000   1.0000   1.0000   1.0000   1.0000
     1.0000   1.0000   1.0000   1.0000   1.0000   1.0000   1.0000   1.0000
     1.0000   1.0000   1.0000   1.0000   1.0000   1.0000   1.0000   1.0000
     1.0000   1.0000   1.0000   1.0000   1.0000   1.0000   1.0000   1.0000
     0.6555   0.6555   0.6275   0.6275   0.6275   0.6275   0.6275   0.6275
    -0.0000  -0.0000  -0.0000  -0.0000  -0.0000  -0.0000  -0.0000  -0.0000
    -0.0000  -0.0000  -0.0000  -0.0000  -0.0000  -0.0000

          k = 0.0000 0.3333 0.1667 (  9647 PWs)   bands (ev):

   -56.5068 -56.5068 -56.4932 -56.4932 -56.4793 -56.4793 -56.4761 -56.4761
   -28.5898 -28.5847 -28.5784 -28.5765 -28.5443 -28.5414 -28.5067 -28.5059
   -27.6364 -27.6312 -27.5795 -27.5786 -27.5608 -27.5491 -27.5431 -27.5339
   -27.5225 -27.4942 -27.4841 -27.4729 -27.4632 -27.4523 -27.4388 -27.4356
     3.6330   3.6331   5.5378   5.5387   7.3655   7.3667   8.4330   8.4396
     9.7432   9.7457  10.2563  10.2625  10.9713  10.9745  11.0972  11.0998
    11.8628  11.8651  12.2418  12.2458  12.7967  12.8018  12.9742  12.9794
    13.0649  13.0711  13.2433  13.2497  13.3392  13.3439  13.4873  13.4919
    13.5373  13.5398  13.9648  13.9748  14.2290  14.2411  14.8891  14.9211
    15.2760  15.2942  15.3356  15.3526  15.6430  15.6707  15.7830  15.8088
    16.1537  16.1661  16.4211  16.4353  17.2703  17.3001

     occupation numbers 
     1.0000   1.0000   1.0000   1.0000   1.0000   1.0000   1.0000   1.0000
     1.0000   1.0000   1.0000   1.0000   1.0000   1.0000   1.0000   1.0000
     1.0000   1.0000   1.0000   1.0000   1.0000   1.0000   1.0000   1.0000
     1.0000   1.0000   1.0000   1.0000   1.0000   1.0000   1.0000   1.0000
     1.0000   1.0000   1.0000   1.0000   1.0000   1.0000   1.0000   1.0000
     1.0000   1.0000   1.0000   1.0000   1.0000   1.0000   1.0000   1.0000
     1.0000   1.0000   1.0000   1.0000   1.0000   1.0000   1.0000   1.0000
     1.0000   1.0000   1.0000   1.0000   1.0000   1.0000   1.0000   1.0000
     1.0000   1.0000   1.0000   1.0000   1.0000   1.0000   1.0181   0.7806
    -0.0000  -0.0000  -0.0000  -0.0000  -0.0000  -0.0000  -0.0000  -0.0000
    -0.0000  -0.0000  -0.0000  -0.0000  -0.0000  -0.0000

          k = 0.0000-0.5000 0.1667 (  9654 PWs)   bands (ev):

   -56.5003 -56.5003 -56.5003 -56.5003 -56.4774 -56.4774 -56.4774 -56.4774
   -28.5860 -28.5860 -28.5803 -28.5803 -28.5257 -28.5257 -28.5228 -28.5228
   -27.6349 -27.6349 -27.5723 -27.5723 -27.5597 -27.5597 -27.5351 -27.5351
   -27.5115 -27.5115 -27.4789 -27.4789 -27.4591 -27.4591 -27.4363 -27.4363
     4.4933   4.4933   4.4938   4.4938   7.8975   7.8975   7.9022   7.9022
    10.1027  10.1027  10.1077  10.1077  10.8749  10.8749  10.8821  10.8821
    12.1413  12.1413  12.1462  12.1462  12.8615  12.8615  12.8706  12.8706
    13.1073  13.1073  13.1153  13.1153  13.3962  13.3962  13.4054  13.4054
    13.8066  13.8066  13.8120  13.8120  14.6071  14.6071  14.6381  14.6381
    15.2575  15.2575  15.2797  15.2797  15.6814  15.6814  15.7099  15.7099
    16.2146  16.2146  16.2263  16.2263  17.5914  17.5972

     occupation numbers 
     1.0000   1.0000   1.0000   1.0000   1.0000   1.0000   1.0000   1.0000
     1.0000   1.0000   1.0000   1.0000   1.0000   1.0000   1.0000   1.0000
     1.0000   1.0000   1.0000   1.0000   1.0000   1.0000   1.0000   1.0000
     1.0000   1.0000   1.0000   1.0000   1.0000   1.0000   1.0000   1.0000
     1.0000   1.0000   1.0000   1.0000   1.0000   1.0000   1.0000   1.0000
     1.0000   1.0000   1.0000   1.0000   1.0000   1.0000   1.0000   1.0000
     1.0000   1.0000   1.0000   1.0000   1.0000   1.0000   1.0000   1.0000
     1.0000   1.0000   1.0000   1.0000   1.0000   1.0000   1.0000   1.0000
     1.0000   1.0000   1.0000   1.0000   1.0000   1.0000   1.0000   1.0000
    -0.0000  -0.0000  -0.0000  -0.0000  -0.0000  -0.0000  -0.0000  -0.0000
    -0.0000  -0.0000  -0.0000  -0.0000  -0.0000  -0.0000

          k = 0.0000-0.5000 0.3333 (  9646 PWs)   bands (ev):

   -56.4985 -56.4985 -56.4985 -56.4985 -56.4792 -56.4792 -56.4792 -56.4792
   -28.5801 -28.5801 -28.5758 -28.5758 -28.5321 -28.5321 -28.5289 -28.5289
   -27.6229 -27.6229 -27.5848 -27.5848 -27.5508 -27.5508 -27.5321 -27.5321
   -27.5203 -27.5203 -27.4973 -27.4973 -27.4465 -27.4465 -27.4321 -27.4321
     4.9494   4.9494   4.9502   4.9502   7.0321   7.0321   7.0346   7.0346
    10.5071  10.5071  10.5105  10.5105  10.8272  10.8272  10.8294  10.8294
    11.9936  11.9936  11.9990  11.9990  12.4095  12.4095  12.4200  12.4200
    13.2662  13.2662  13.2726  13.2726  13.9133  13.9133  13.9198  13.9198
    13.9548  13.9548  13.9679  13.9679  14.6425  14.6425  14.6760  14.6760
    14.9010  14.9010  14.9369  14.9369  15.4772  15.4772  15.5003  15.5003
    16.3851  16.3851  16.3970  16.3970  17.2928  17.2941

     occupation numbers 
     1.0000   1.0000   1.0000   1.0000   1.0000   1.0000   1.0000   1.0000
     1.0000   1.0000   1.0000   1.0000   1.0000   1.0000   1.0000   1.0000
     1.0000   1.0000   1.0000   1.0000   1.0000   1.0000   1.0000   1.0000
     1.0000   1.0000   1.0000   1.0000   1.0000   1.0000   1.0000   1.0000
     1.0000   1.0000   1.0000   1.0000   1.0000   1.0000   1.0000   1.0000
     1.0000   1.0000   1.0000   1.0000   1.0000   1.0000   1.0000   1.0000
     1.0000   1.0000   1.0000   1.0000   1.0000   1.0000   1.0000   1.0000
     1.0000   1.0000   1.0000   1.0000   1.0000   1.0000   1.0000   1.0000
     1.0000   1.0000   1.0000   1.0000   1.0000   1.0000   1.0000   1.0000
     0.9679   0.9679   0.5543   0.5543  -0.0000  -0.0000  -0.0000  -0.0000
    -0.0000  -0.0000  -0.0000  -0.0000  -0.0000  -0.0000

          k =-0.1667-0.5000 0.3333 (  9682 PWs)   bands (ev):

   -56.4975 -56.4975 -56.4975 -56.4975 -56.4803 -56.4803 -56.4802 -56.4802
   -28.5778 -28.5778 -28.5735 -28.5735 -28.5350 -28.5350 -28.5316 -28.5316
   -27.6196 -27.6196 -27.5827 -27.5827 -27.5590 -27.5590 -27.5327 -27.5327
   -27.5206 -27.5206 -27.4874 -27.4874 -27.4513 -27.4513 -27.4329 -27.4329
     5.1002   5.1002   5.1013   5.1013   7.0756   7.0756   7.0795   7.0795
     9.6361   9.6361   9.6389   9.6389  11.1975  11.1975  11.2006  11.2006
    11.9963  11.9963  12.0030  12.0030  12.6303  12.6303  12.6406  12.6406
    13.1708  13.1708  13.1788  13.1788  13.6486  13.6486  13.6603  13.6603
    14.1684  14.1684  14.1777  14.1777  14.7153  14.7153  14.7405  14.7405
    14.9601  14.9601  14.9914  14.9914  15.4219  15.4219  15.4391  15.4391
    16.3545  16.3545  16.3653  16.3653  17.2136  17.2157

     occupation numbers 
     1.0000   1.0000   1.0000   1.0000   1.0000   1.0000   1.0000   1.0000
     1.0000   1.0000   1.0000   1.0000   1.0000   1.0000   1.0000   1.0000
     1.0000   1.0000   1.0000   1.0000   1.0000   1.0000   1.0000   1.0000
     1.0000   1.0000   1.0000   1.0000   1.0000   1.0000   1.0000   1.0000
     1.0000   1.0000   1.0000   1.0000   1.0000   1.0000   1.0000   1.0000
     1.0000   1.0000   1.0000   1.0000   1.0000   1.0000   1.0000   1.0000
     1.0000   1.0000   1.0000   1.0000   1.0000   1.0000   1.0000   1.0000
     1.0000   1.0000   1.0000   1.0000   1.0000   1.0000   1.0000   1.0000
     1.0000   1.0000   1.0000   1.0000   1.0000   1.0000   1.0000   1.0000
     0.2152   0.2152  -0.0172  -0.0172  -0.0000  -0.0000  -0.0000  -0.0000
    -0.0000  -0.0000  -0.0000  -0.0000  -0.0000  -0.0000

     the Fermi energy is    14.9404 ev

!    total energy              =   -1180.34896080 Ry

     total all-electron energy =    -10727.809797 Ry
     estimated scf accuracy    <       0.00000099 Ry
     smearing contrib. (-TS)   =      -0.00028216 Ry
     internal energy E=F+TS    =   -1180.34867863 Ry

     The total energy is F=E-TS. E is the sum of the following terms:
     one-electron contribution =    -336.80842059 Ry
     hartree contribution      =     207.05631635 Ry
     xc contribution           =    -114.36396797 Ry
     ewald contribution        =    -496.51183961 Ry
     one-center paw contrib.   =    -439.72076682 Ry
      -> PAW hartree energy AE =     126.72468089 Ry
      -> PAW hartree energy PS =    -125.75730494 Ry
      -> PAW xc energy AE      =     -96.24070399 Ry
      -> PAW xc energy PS      =      20.93331782 Ry
      -> total E_H with PAW    =     208.02369230 Ry
      -> total E_XC with PAW   =    -189.67135414 Ry

     convergence has been achieved in   8 iterations

     Forces acting on atoms (cartesian axes, Ry/au):

     atom    1 type  1   force =    -0.00267558   -0.00267558    0.00267558
     atom    2 type  1   force =    -0.00267558    0.00267558   -0.00267558
     atom    3 type  1   force =     0.00267558   -0.00267558   -0.00267558
     atom    4 type  1   force =     0.00267558    0.00267558    0.00267558
     atom    5 type  2   force =    -0.00402891   -0.00402891    0.00402891
     atom    6 type  2   force =    -0.00402891    0.00402891   -0.00402891
     atom    7 type  2   force =     0.00402891   -0.00402891   -0.00402891
     atom    8 type  2   force =     0.00402891    0.00402891    0.00402891
     The non-local contrib.  to forces
     atom    1 type  1   force =     0.05198767    0.05198767   -0.05198767
     atom    2 type  1   force =     0.05198767   -0.05198767    0.05198767
     atom    3 type  1   force =    -0.05198767    0.05198767    0.05198767
     atom    4 type  1   force =    -0.05198767   -0.05198767   -0.05198767
     atom    5 type  2   force =    -0.00841790   -0.00841790    0.00841790
     atom    6 type  2   force =    -0.00841790    0.00841790   -0.00841790
     atom    7 type  2   force =     0.00841790   -0.00841790   -0.00841790
     atom    8 type  2   force =     0.00841790    0.00841790    0.00841790
     The ionic contribution  to forces
     atom    1 type  1   force =    -0.85044630   -0.85044630    0.85044630
     atom    2 type  1   force =    -0.85044630    0.85044630   -0.85044630
     atom    3 type  1   force =     0.85044630   -0.85044630   -0.85044630
     atom    4 type  1   force =     0.85044630    0.85044630    0.85044630
     atom    5 type  2   force =    -0.24524978   -0.24524978    0.24524978
     atom    6 type  2   force =    -0.24524978    0.24524978   -0.24524978
     atom    7 type  2   force =     0.24524978   -0.24524978   -0.24524978
     atom    8 type  2   force =     0.24524978    0.24524978    0.24524978
     The local contribution  to forces
     atom    1 type  1   force =     0.79677144    0.79677144   -0.79677144
     atom    2 type  1   force =     0.79677144   -0.79677144    0.79677144
     atom    3 type  1   force =    -0.79677144    0.79677144    0.79677144
     atom    4 type  1   force =    -0.79677144   -0.79677144   -0.79677144
     atom    5 type  2   force =     0.24882507    0.24882507   -0.24882507
     atom    6 type  2   force =     0.24882507   -0.24882507    0.24882507
     atom    7 type  2   force =    -0.24882507    0.24882507    0.24882507
     atom    8 type  2   force =    -0.24882507   -0.24882507   -0.24882507
     The core correction contribution to forces
     atom    1 type  1   force =    -0.00105096   -0.00105096    0.00105096
     atom    2 type  1   force =    -0.00105096    0.00105096   -0.00105096
     atom    3 type  1   force =     0.00105096   -0.00105096   -0.00105096
     atom    4 type  1   force =     0.00105096    0.00105096    0.00105096
     atom    5 type  2   force =     0.00083447    0.00083447   -0.00083447
     atom    6 type  2   force =     0.00083447   -0.00083447    0.00083447
     atom    7 type  2   force =    -0.00083447    0.00083447    0.00083447
     atom    8 type  2   force =    -0.00083447   -0.00083447   -0.00083447
     The Hubbard contrib.    to forces
     atom    1 type  1   force =     0.00000000    0.00000000    0.00000000
     atom    2 type  1   force =     0.00000000    0.00000000    0.00000000
     atom    3 type  1   force =     0.00000000    0.00000000    0.00000000
     atom    4 type  1   force =     0.00000000    0.00000000    0.00000000
     atom    5 type  2   force =     0.00000000    0.00000000    0.00000000
     atom    6 type  2   force =     0.00000000    0.00000000    0.00000000
     atom    7 type  2   force =     0.00000000    0.00000000    0.00000000
     atom    8 type  2   force =     0.00000000    0.00000000    0.00000000
     The SCF correction term to forces
     atom    1 type  1   force =     0.00006257    0.00006257   -0.00006257
     atom    2 type  1   force =     0.00006257   -0.00006257    0.00006257
     atom    3 type  1   force =    -0.00006257    0.00006257    0.00006257
     atom    4 type  1   force =    -0.00006257   -0.00006257   -0.00006257
     atom    5 type  2   force =    -0.00002078   -0.00002078    0.00002078
     atom    6 type  2   force =    -0.00002078    0.00002078   -0.00002078
     atom    7 type  2   force =     0.00002078   -0.00002078   -0.00002078
     atom    8 type  2   force =     0.00002078    0.00002078    0.00002078

     Total force =     0.016754     Total SCF correction =     0.000228


     Computing stress (Cartesian axis) and pressure

          total   stress  (Ry/bohr**3)                   (kbar)     P=      -39.43
  -0.00026807   0.00000000   0.00000000          -39.43        0.00        0.00
   0.00000000  -0.00026807   0.00000000            0.00      -39.43        0.00
   0.00000000   0.00000000  -0.00026807            0.00        0.00      -39.43

     kinetic stress (kbar)  35760.82      0.00      0.00
                                0.00  35760.82      0.00
                                0.00      0.00  35760.82

     local   stress (kbar) -10013.06     -0.00     -0.00
                               -0.00 -10013.06     -0.00
                               -0.00     -0.00 -10013.06

     nonloc. stress (kbar)   2428.52      0.00      0.00
                                0.00   2428.52      0.00
                                0.00      0.00   2428.52

     hartree stress (kbar)  15168.29      0.00      0.00
                                0.00  15168.29     -0.00
                                0.00     -0.00  15168.29

     exc-cor stress (kbar)  -1706.72     -0.00     -0.00
                               -0.00  -1706.72     -0.00
                               -0.00     -0.00  -1706.72

     corecor stress (kbar)  -5304.40      0.00     -0.00
                                0.00  -5304.40     -0.00
                               -0.00     -0.00  -5304.40

     ewald   stress (kbar) -36372.90      0.00      0.00
                                0.00 -36372.90      0.00
                                0.00      0.00 -36372.90

     hubbard stress (kbar)      0.00      0.00      0.00
                                0.00      0.00      0.00
                                0.00      0.00      0.00

     DFT-D   stress (kbar)      0.00      0.00      0.00
                                0.00      0.00      0.00
                                0.00      0.00      0.00

     XDM     stress (kbar)      0.00      0.00      0.00
                                0.00      0.00      0.00
                                0.00      0.00      0.00

     dft-nl  stress (kbar)      0.00      0.00      0.00
                                0.00      0.00      0.00
                                0.00      0.00      0.00

     TS-vdW  stress (kbar)      0.00      0.00      0.00
                                0.00      0.00      0.00
                                0.00      0.00      0.00



     Writing output data file /zfs_data/vergnior/martin/Scratch/OAL/CrSi/convergence/smearing/6x6x6/0.004/tmp/CrSi.save/
 
     init_run     :      4.91s CPU      5.18s WALL (       1 calls)
     electrons    :    134.64s CPU    138.33s WALL (       1 calls)
     forces       :      4.33s CPU      4.41s WALL (       1 calls)
     stress       :     11.17s CPU     11.40s WALL (       1 calls)

     Called by init_run:
     wfcinit      :      3.67s CPU      3.79s WALL (       1 calls)
     wfcinit:atom :      0.03s CPU      0.03s WALL (      24 calls)
     wfcinit:wfcr :      3.51s CPU      3.62s WALL (      24 calls)
     potinit      :      0.20s CPU      0.27s WALL (       1 calls)
     hinit0       :      0.18s CPU      0.19s WALL (       1 calls)

     Called by electrons:
     c_bands      :    108.61s CPU    110.60s WALL (       9 calls)
     sum_band     :     20.47s CPU     21.57s WALL (       9 calls)
     v_of_rho     :      0.21s CPU      0.22s WALL (       9 calls)
     v_h          :      0.02s CPU      0.02s WALL (       9 calls)
     v_xc         :      0.24s CPU      0.25s WALL (      11 calls)
     newd         :      4.44s CPU      5.06s WALL (       9 calls)
     PAW_pot      :      1.26s CPU      1.28s WALL (       9 calls)
     mix_rho      :      0.13s CPU      0.13s WALL (       9 calls)

     Called by c_bands:
     init_us_2    :      0.48s CPU      0.49s WALL (     504 calls)
     cegterg      :    100.07s CPU    101.87s WALL (     216 calls)

     Called by sum_band:
     sum_band:wei :      0.03s CPU      0.03s WALL (       9 calls)
     sum_band:loo :     17.21s CPU     17.52s WALL (       9 calls)
     sum_band:buf :      0.15s CPU      0.16s WALL (     216 calls)
     sum_band:ini :      0.22s CPU      0.22s WALL (     216 calls)
     sum_band:cal :      1.24s CPU      1.25s WALL (     216 calls)
     sum_band:bec :      2.96s CPU      2.97s WALL (     216 calls)
     addusdens    :      3.02s CPU      3.80s WALL (       9 calls)
     addusd:skk   :      0.01s CPU      0.01s WALL (      18 calls)
     addusd:dgemm :      1.14s CPU      1.90s WALL (      18 calls)
     addusd:qvan2 :      1.82s CPU      1.83s WALL (      18 calls)

     Called by *egterg:
     cdiaghg      :      9.56s CPU      9.60s WALL (    1239 calls)
     cegterg:over :      5.20s CPU      5.22s WALL (    1047 calls)
     cegterg:upda :      2.64s CPU      2.67s WALL (    1047 calls)
     cegterg:last :      5.44s CPU      5.47s WALL (     673 calls)
     h_psi        :     68.83s CPU     70.49s WALL (    1287 calls)
     s_psi        :      9.44s CPU      9.48s WALL (    1287 calls)
     g_psi        :      0.17s CPU      0.17s WALL (    1047 calls)

     Called by h_psi:
     h_psi:calbec :      4.68s CPU      4.72s WALL (    1287 calls)
     vloc_psi     :     54.92s CPU     56.45s WALL (    1287 calls)
     add_vuspsi   :      8.92s CPU      8.98s WALL (    1287 calls)

     General routines
     calbec       :      6.53s CPU      6.59s WALL (    1623 calls)
     fft          :      0.22s CPU      0.23s WALL (     216 calls)
     ffts         :      0.03s CPU      0.08s WALL (      72 calls)
     fftw         :     50.87s CPU     52.28s WALL (  306300 calls)
     interpolate  :      0.05s CPU      0.11s WALL (      36 calls)
 
     Parallel routines
     fft_scatt_xy :      4.99s CPU      5.12s WALL (  306588 calls)
     fft_scatt_yz :     18.20s CPU     18.70s WALL (  306588 calls)

     PAW routines
     PAW_pot      :      1.26s CPU      1.28s WALL (       9 calls)
     PAW_symme    :      0.02s CPU      0.02s WALL (      18 calls)
 
     PWSCF        :   2m38.09s CPU   2m43.70s WALL

 
   This run was terminated on:  12:44:32   1Aug2021            

=------------------------------------------------------------------------------=
   JOB DONE.
=------------------------------------------------------------------------------=
