MPI startup(): Warning: I_MPI_PMI_LIBRARY will be ignored since the hydra process manager was found
MPI startup(): Warning: I_MPI_PMI_LIBRARY will be ignored since the hydra process manager was found
MPI startup(): Warning: I_MPI_PMI_LIBRARY will be ignored since the hydra process manager was found
MPI startup(): Warning: I_MPI_PMI_LIBRARY will be ignored since the hydra process manager was found
MPI startup(): Warning: I_MPI_PMI_LIBRARY will be ignored since the hydra process manager was found
MPI startup(): Warning: I_MPI_PMI_LIBRARY will be ignored since the hydra process manager was found
MPI startup(): Warning: I_MPI_PMI_LIBRARY will be ignored since the hydra process manager was found
MPI startup(): Warning: I_MPI_PMI_LIBRARY will be ignored since the hydra process manager was found
MPI startup(): Warning: I_MPI_PMI_LIBRARY will be ignored since the hydra process manager was found
MPI startup(): Warning: I_MPI_PMI_LIBRARY will be ignored since the hydra process manager was found
MPI startup(): Warning: I_MPI_PMI_LIBRARY will be ignored since the hydra process manager was found
MPI startup(): Warning: I_MPI_PMI_LIBRARY will be ignored since the hydra process manager was found
MPI startup(): Warning: I_MPI_PMI_LIBRARY will be ignored since the hydra process manager was found
MPI startup(): Warning: I_MPI_PMI_LIBRARY will be ignored since the hydra process manager was found
MPI startup(): Warning: I_MPI_PMI_LIBRARY will be ignored since the hydra process manager was found
MPI startup(): Warning: I_MPI_PMI_LIBRARY will be ignored since the hydra process manager was found
MPI startup(): Warning: I_MPI_PMI_LIBRARY will be ignored since the hydra process manager was found
MPI startup(): Warning: I_MPI_PMI_LIBRARY will be ignored since the hydra process manager was found
MPI startup(): Warning: I_MPI_PMI_LIBRARY will be ignored since the hydra process manager was found
MPI startup(): Warning: I_MPI_PMI_LIBRARY will be ignored since the hydra process manager was found
MPI startup(): Warning: I_MPI_PMI_LIBRARY will be ignored since the hydra process manager was found
MPI startup(): Warning: I_MPI_PMI_LIBRARY will be ignored since the hydra process manager was found
MPI startup(): Warning: I_MPI_PMI_LIBRARY will be ignored since the hydra process manager was found
MPI startup(): Warning: I_MPI_PMI_LIBRARY will be ignored since the hydra process manager was found

     Program PWSCF v.6.7MaX starts on  1Aug2021 at 12:42:19 

     This program is part of the open-source Quantum ESPRESSO suite
     for quantum simulation of materials; please cite
         "P. Giannozzi et al., J. Phys.:Condens. Matter 21 395502 (2009);
         "P. Giannozzi et al., J. Phys.:Condens. Matter 29 465901 (2017);
          URL http://www.quantum-espresso.org", 
     in publications or presentations arising from this work. More details at
     http://www.quantum-espresso.org/quote

     Parallel version (MPI), running on    24 processors

     MPI processes distributed on     1 nodes
     R & G space division:  proc/nbgrp/npool/nimage =      24
     Waiting for input...
     Reading input from standard input

     Current dimensions of program PWSCF are:
     Max number of different atomic species (ntypx) = 10
     Max number of k-points (npk) =  40000
     Max angular momentum in pseudopotentials (lmaxx) =  3
     file Cr.rel-pbe-spn-kjpaw_psl.1.0.0.UPF: wavefunction(s)  3S 3P 3P 3D 3D renormalized
     file Si.rel-pbe-n-kjpaw_psl.1.0.0.UPF: wavefunction(s)  3S 3P 3P renormalized

     Subspace diagonalization in iterative solution of the eigenvalue problem:
     a serial algorithm will be used

     Message from routine setup:
     using ibrav=0 with symmetry is DISCOURAGED, use correct ibrav instead
 
     Parallelization info
     --------------------
     sticks:   dense  smooth     PW     G-vecs:    dense   smooth      PW
     Min         228      91     25                12702     3210     487
     Max         229      93     26                12704     3214     492
     Sum        5473    2201    621               304867    77053   11753
 


     bravais-lattice index     =            0
     lattice parameter (alat)  =       8.7475  a.u.
     unit-cell volume          =     669.3575 (a.u.)^3
     number of atoms/cell      =            8
     number of atomic types    =            2
     number of electrons       =        72.00
     number of Kohn-Sham states=           86
     kinetic-energy cutoff     =      90.0000  Ry
     charge density cutoff     =     900.0000  Ry
     scf convergence threshold =      1.0E-06
     mixing beta               =       0.7000
     number of iterations used =            8  plain     mixing
     Exchange-correlation= SLA  PW   PBX  PBC
                           (   1   4   3   4   0   0   0)
     Non magnetic calculation with spin-orbit


     celldm(1)=   8.747542  celldm(2)=   0.000000  celldm(3)=   0.000000
     celldm(4)=   0.000000  celldm(5)=   0.000000  celldm(6)=   0.000000

     crystal axes: (cart. coord. in units of alat)
               a(1) = (   1.000000   0.000000   0.000000 )  
               a(2) = (   0.000000   1.000000   0.000000 )  
               a(3) = (   0.000000   0.000000   1.000000 )  

     reciprocal axes: (cart. coord. in units 2 pi/alat)
               b(1) = (  1.000000  0.000000  0.000000 )  
               b(2) = (  0.000000  1.000000  0.000000 )  
               b(3) = (  0.000000  0.000000  1.000000 )  


     PseudoPot. # 1 for Cr read from file:
     ../../../../pseudo/Cr.rel-pbe-spn-kjpaw_psl.1.0.0.UPF
     MD5 check sum: 1e24e2b5251376a8b945118fca0c7981
     Pseudo is Projector augmented-wave + core cor, Zval = 14.0
     Generated using &quot;atomic&quot; code by A. Dal Corso  v.6.3
     Shape of augmentation charge: PSQ
     Using radial grid of 1183 points, 10 beta functions with: 
                l(1) =   0
                l(2) =   0
                l(3) =   1
                l(4) =   1
                l(5) =   1
                l(6) =   1
                l(7) =   2
                l(8) =   2
                l(9) =   2
               l(10) =   2
     Q(r) pseudized with 0 coefficients 


     PseudoPot. # 2 for Si read from file:
     ../../../../pseudo/Si.rel-pbe-n-kjpaw_psl.1.0.0.UPF
     MD5 check sum: d74f6caf6830ea4c2076867160cab1b0
     Pseudo is Projector augmented-wave + core cor, Zval =  4.0
     Generated using &quot;atomic&quot; code by A. Dal Corso  v.6.3
     Shape of augmentation charge: PSQ
     Using radial grid of 1141 points, 10 beta functions with: 
                l(1) =   0
                l(2) =   0
                l(3) =   1
                l(4) =   1
                l(5) =   1
                l(6) =   1
                l(7) =   2
                l(8) =   2
                l(9) =   2
               l(10) =   2
     Q(r) pseudized with 0 coefficients 


     atomic species   valence    mass     pseudopotential
        Cr            14.00    51.99600     Cr( 1.00)
        Si             4.00    28.08500     Si( 1.00)

     12 Sym. Ops. (no inversion) found ( 9 have fractional translation)


                                    s                        frac. trans.

      isym =  1     identity                                     

 cryst.   s( 1) = (     1          0          0      )
                  (     0          1          0      )
                  (     0          0          1      )

 cart.    s( 1) = (  1.0000000  0.0000000  0.0000000 )
                  (  0.0000000  1.0000000  0.0000000 )
                  (  0.0000000  0.0000000  1.0000000 )


      isym =  2     180 deg rotation - cart. axis [0,0,1]        

 cryst.   s( 2) = (    -1          0          0      )    f =(  0.5000000 )
                  (     0         -1          0      )       (  0.0000000 )
                  (     0          0          1      )       ( -0.5000000 )

 cart.    s( 2) = ( -1.0000000  0.0000000  0.0000000 )    f =(  0.5000000 )
                  (  0.0000000 -1.0000000  0.0000000 )       (  0.0000000 )
                  (  0.0000000  0.0000000  1.0000000 )       ( -0.5000000 )


      isym =  3     180 deg rotation - cart. axis [0,1,0]        

 cryst.   s( 3) = (    -1          0          0      )    f =(  0.0000000 )
                  (     0          1          0      )       ( -0.5000000 )
                  (     0          0         -1      )       (  0.5000000 )

 cart.    s( 3) = ( -1.0000000  0.0000000  0.0000000 )    f =(  0.0000000 )
                  (  0.0000000  1.0000000  0.0000000 )       ( -0.5000000 )
                  (  0.0000000  0.0000000 -1.0000000 )       (  0.5000000 )


      isym =  4     180 deg rotation - cart. axis [1,0,0]        

 cryst.   s( 4) = (     1          0          0      )    f =(  0.5000000 )
                  (     0         -1          0      )       (  0.5000000 )
                  (     0          0         -1      )       (  0.0000000 )

 cart.    s( 4) = (  1.0000000  0.0000000  0.0000000 )    f =(  0.5000000 )
                  (  0.0000000 -1.0000000  0.0000000 )       (  0.5000000 )
                  (  0.0000000  0.0000000 -1.0000000 )       (  0.0000000 )


      isym =  5     120 deg rotation - cart. axis [-1,-1,-1]     

 cryst.   s( 5) = (     0          0          1      )
                  (     1          0          0      )
                  (     0          1          0      )

 cart.    s( 5) = (  0.0000000  1.0000000  0.0000000 )
                  (  0.0000000  0.0000000  1.0000000 )
                  (  1.0000000  0.0000000  0.0000000 )


      isym =  6     120 deg rotation - cart. axis [-1,1,1]       

 cryst.   s( 6) = (     0          0         -1      )    f =(  0.0000000 )
                  (    -1          0          0      )       ( -0.5000000 )
                  (     0          1          0      )       (  0.5000000 )

 cart.    s( 6) = (  0.0000000 -1.0000000  0.0000000 )    f =(  0.0000000 )
                  (  0.0000000  0.0000000  1.0000000 )       ( -0.5000000 )
                  ( -1.0000000  0.0000000  0.0000000 )       (  0.5000000 )


      isym =  7     120 deg rotation - cart. axis [1,1,-1]       

 cryst.   s( 7) = (     0          0         -1      )    f =(  0.5000000 )
                  (     1          0          0      )       (  0.5000000 )
                  (     0         -1          0      )       (  0.0000000 )

 cart.    s( 7) = (  0.0000000  1.0000000  0.0000000 )    f =(  0.5000000 )
                  (  0.0000000  0.0000000 -1.0000000 )       (  0.5000000 )
                  ( -1.0000000  0.0000000  0.0000000 )       (  0.0000000 )


      isym =  8     120 deg rotation - cart. axis [1,-1,1]       

 cryst.   s( 8) = (     0          0          1      )    f =(  0.5000000 )
                  (    -1          0          0      )       (  0.0000000 )
                  (     0         -1          0      )       ( -0.5000000 )

 cart.    s( 8) = (  0.0000000 -1.0000000  0.0000000 )    f =(  0.5000000 )
                  (  0.0000000  0.0000000 -1.0000000 )       (  0.0000000 )
                  (  1.0000000  0.0000000  0.0000000 )       ( -0.5000000 )


      isym =  9     120 deg rotation - cart. axis [1,1,1]        

 cryst.   s( 9) = (     0          1          0      )
                  (     0          0          1      )
                  (     1          0          0      )

 cart.    s( 9) = (  0.0000000  0.0000000  1.0000000 )
                  (  1.0000000  0.0000000  0.0000000 )
                  (  0.0000000  1.0000000  0.0000000 )


      isym = 10     120 deg rotation - cart. axis [-1,1,-1]      

 cryst.   s(10) = (     0         -1          0      )    f =(  0.5000000 )
                  (     0          0         -1      )       (  0.5000000 )
                  (     1          0          0      )       (  0.0000000 )

 cart.    s(10) = (  0.0000000  0.0000000  1.0000000 )    f =(  0.5000000 )
                  ( -1.0000000  0.0000000  0.0000000 )       (  0.5000000 )
                  (  0.0000000 -1.0000000  0.0000000 )       (  0.0000000 )


      isym = 11     120 deg rotation - cart. axis [1,-1,-1]      

 cryst.   s(11) = (     0         -1          0      )    f =(  0.5000000 )
                  (     0          0          1      )       (  0.0000000 )
                  (    -1          0          0      )       ( -0.5000000 )

 cart.    s(11) = (  0.0000000  0.0000000 -1.0000000 )    f =(  0.5000000 )
                  ( -1.0000000  0.0000000  0.0000000 )       (  0.0000000 )
                  (  0.0000000  1.0000000  0.0000000 )       ( -0.5000000 )


      isym = 12     120 deg rotation - cart. axis [-1,-1,1]      

 cryst.   s(12) = (     0          1          0      )    f =(  0.0000000 )
                  (     0          0         -1      )       ( -0.5000000 )
                  (    -1          0          0      )       (  0.5000000 )

 cart.    s(12) = (  0.0000000  0.0000000 -1.0000000 )    f =(  0.0000000 )
                  (  1.0000000  0.0000000  0.0000000 )       ( -0.5000000 )
                  (  0.0000000 -1.0000000  0.0000000 )       (  0.5000000 )


   Cartesian axes

     site n.     atom                  positions (alat units)
         1           Cr  tau(   1) = (   0.8640000   0.3640000   0.1360000  )
         2           Cr  tau(   2) = (   0.3640000   0.1360000   0.8640000  )
         3           Cr  tau(   3) = (   0.1360000   0.8640000   0.3640000  )
         4           Cr  tau(   4) = (   0.6360000   0.6360000   0.6360000  )
         5           Si  tau(   5) = (   0.1540000   0.6540000   0.8460000  )
         6           Si  tau(   6) = (   0.6540000   0.8460000   0.1540000  )
         7           Si  tau(   7) = (   0.8460000   0.1540000   0.6540000  )
         8           Si  tau(   8) = (   0.3460000   0.3460000   0.3460000  )

   Crystallographic axes

     site n.     atom                  positions (cryst. coord.)
         1           Cr  tau(   1) = (  0.8640000  0.3640000  0.1360000  )
         2           Cr  tau(   2) = (  0.3640000  0.1360000  0.8640000  )
         3           Cr  tau(   3) = (  0.1360000  0.8640000  0.3640000  )
         4           Cr  tau(   4) = (  0.6360000  0.6360000  0.6360000  )
         5           Si  tau(   5) = (  0.1540000  0.6540000  0.8460000  )
         6           Si  tau(   6) = (  0.6540000  0.8460000  0.1540000  )
         7           Si  tau(   7) = (  0.8460000  0.1540000  0.6540000  )
         8           Si  tau(   8) = (  0.3460000  0.3460000  0.3460000  )

     number of k points=    24  Methfessel-Paxton smearing, width (Ry)=  0.0160
                       cart. coord. in units 2pi/alat
        k(    1) = (   0.0000000   0.0000000   0.0000000), wk =   0.0046296
        k(    2) = (   0.0000000   0.0000000   0.1666667), wk =   0.0277778
        k(    3) = (   0.0000000   0.0000000   0.3333333), wk =   0.0277778
        k(    4) = (   0.0000000   0.0000000  -0.5000000), wk =   0.0138889
        k(    5) = (   0.0000000   0.1666667   0.1666667), wk =   0.0555556
        k(    6) = (   0.0000000   0.1666667   0.3333333), wk =   0.0555556
        k(    7) = (   0.0000000   0.1666667  -0.5000000), wk =   0.0277778
        k(    8) = (   0.0000000   0.3333333   0.3333333), wk =   0.0555556
        k(    9) = (   0.0000000   0.3333333  -0.5000000), wk =   0.0277778
        k(   10) = (   0.0000000  -0.5000000  -0.5000000), wk =   0.0138889
        k(   11) = (   0.1666667   0.1666667   0.1666667), wk =   0.0370370
        k(   12) = (   0.1666667   0.1666667   0.3333333), wk =   0.1111111
        k(   13) = (   0.1666667   0.1666667  -0.5000000), wk =   0.0555556
        k(   14) = (   0.1666667   0.3333333   0.3333333), wk =   0.1111111
        k(   15) = (   0.1666667   0.3333333  -0.5000000), wk =   0.0555556
        k(   16) = (   0.1666667  -0.5000000  -0.5000000), wk =   0.0277778
        k(   17) = (   0.3333333   0.3333333   0.3333333), wk =   0.0370370
        k(   18) = (   0.3333333   0.3333333  -0.5000000), wk =   0.0555556
        k(   19) = (   0.3333333  -0.5000000  -0.5000000), wk =   0.0277778
        k(   20) = (  -0.5000000  -0.5000000  -0.5000000), wk =   0.0046296
        k(   21) = (   0.0000000   0.3333333   0.1666667), wk =   0.0555556
        k(   22) = (   0.0000000  -0.5000000   0.1666667), wk =   0.0277778
        k(   23) = (   0.0000000  -0.5000000   0.3333333), wk =   0.0277778
        k(   24) = (  -0.1666667  -0.5000000   0.3333333), wk =   0.0555556

                       cryst. coord.
        k(    1) = (   0.0000000   0.0000000   0.0000000), wk =   0.0046296
        k(    2) = (   0.0000000   0.0000000   0.1666667), wk =   0.0277778
        k(    3) = (   0.0000000   0.0000000   0.3333333), wk =   0.0277778
        k(    4) = (   0.0000000   0.0000000  -0.5000000), wk =   0.0138889
        k(    5) = (   0.0000000   0.1666667   0.1666667), wk =   0.0555556
        k(    6) = (   0.0000000   0.1666667   0.3333333), wk =   0.0555556
        k(    7) = (   0.0000000   0.1666667  -0.5000000), wk =   0.0277778
        k(    8) = (   0.0000000   0.3333333   0.3333333), wk =   0.0555556
        k(    9) = (   0.0000000   0.3333333  -0.5000000), wk =   0.0277778
        k(   10) = (   0.0000000  -0.5000000  -0.5000000), wk =   0.0138889
        k(   11) = (   0.1666667   0.1666667   0.1666667), wk =   0.0370370
        k(   12) = (   0.1666667   0.1666667   0.3333333), wk =   0.1111111
        k(   13) = (   0.1666667   0.1666667  -0.5000000), wk =   0.0555556
        k(   14) = (   0.1666667   0.3333333   0.3333333), wk =   0.1111111
        k(   15) = (   0.1666667   0.3333333  -0.5000000), wk =   0.0555556
        k(   16) = (   0.1666667  -0.5000000  -0.5000000), wk =   0.0277778
        k(   17) = (   0.3333333   0.3333333   0.3333333), wk =   0.0370370
        k(   18) = (   0.3333333   0.3333333  -0.5000000), wk =   0.0555556
        k(   19) = (   0.3333333  -0.5000000  -0.5000000), wk =   0.0277778
        k(   20) = (  -0.5000000  -0.5000000  -0.5000000), wk =   0.0046296
        k(   21) = (   0.0000000   0.3333333   0.1666667), wk =   0.0555556
        k(   22) = (   0.0000000  -0.5000000   0.1666667), wk =   0.0277778
        k(   23) = (   0.0000000  -0.5000000   0.3333333), wk =   0.0277778
        k(   24) = (  -0.1666667  -0.5000000   0.3333333), wk =   0.0555556

     Dense  grid:   304867 G-vectors     FFT dimensions: (  90,  90,  90)

     Smooth grid:    77053 G-vectors     FFT dimensions: (  54,  54,  54)

     Dynamical RAM for                 wfc:       1.06 MB

     Dynamical RAM for     wfc (w. buffer):      26.38 MB

     Dynamical RAM for           str. fact:       0.39 MB

     Dynamical RAM for           local pot:       0.00 MB

     Dynamical RAM for          nlocal pot:       1.67 MB

     Dynamical RAM for                qrad:      12.61 MB

     Dynamical RAM for          rho,v,vnew:       5.29 MB

     Dynamical RAM for               rhoin:       1.76 MB

     Dynamical RAM for            rho*nmix:      12.41 MB

     Dynamical RAM for           G-vectors:       0.75 MB

     Dynamical RAM for          h,s,v(r/c):       1.35 MB

     Dynamical RAM for          <psi|beta>:       0.71 MB

     Dynamical RAM for                 psi:       2.11 MB

     Dynamical RAM for                hpsi:       2.11 MB

     Dynamical RAM for                spsi:       2.11 MB

     Dynamical RAM for      wfcinit/wfcrot:       2.35 MB

     Dynamical RAM for           addusdens:     119.02 MB

     Dynamical RAM for          addusforce:     120.34 MB

     Dynamical RAM for         addusstress:     121.74 MB

     Estimated static dynamical RAM per process >      63.81 MB

     Estimated max dynamical RAM per process >     185.55 MB

     Estimated total dynamical RAM >       4.35 GB

     Initial potential from superposition of free atoms

     starting charge   71.99469, renormalised to   72.00000
     Starting wfcs are  112 randomized atomic wfcs
     Checking if some PAW data can be deallocated... 
       PAW data deallocated on   12 nodes for type:  1
       PAW data deallocated on   12 nodes for type:  2

     total cpu time spent up to now is        7.3 secs

     Self-consistent Calculation

     iteration #  1     ecut=    90.00 Ry     beta= 0.70
     Davidson diagonalization with overlap
     ethr =  1.00E-02,  avg # of iterations =  2.0

     Threshold (ethr) on eigenvalues was too large:
     Diagonalizing with lowered threshold

     Davidson diagonalization with overlap
     ethr =  2.09E-04,  avg # of iterations =  4.5

     total cpu time spent up to now is       30.2 secs

     total energy              =   -1180.30956217 Ry
     estimated scf accuracy    <       0.18815757 Ry

     iteration #  2     ecut=    90.00 Ry     beta= 0.70
     Davidson diagonalization with overlap
     ethr =  2.61E-04,  avg # of iterations =  3.1

     total cpu time spent up to now is       41.9 secs

     total energy              =   -1180.31748568 Ry
     estimated scf accuracy    <       0.07345816 Ry

     iteration #  3     ecut=    90.00 Ry     beta= 0.70
     Davidson diagonalization with overlap
     ethr =  1.02E-04,  avg # of iterations =  5.0

     total cpu time spent up to now is       56.2 secs

     total energy              =   -1180.32636251 Ry
     estimated scf accuracy    <       0.15501693 Ry

     iteration #  4     ecut=    90.00 Ry     beta= 0.70
     Davidson diagonalization with overlap
     ethr =  1.02E-04,  avg # of iterations =  4.1

     total cpu time spent up to now is       68.0 secs

     total energy              =   -1180.34968478 Ry
     estimated scf accuracy    <       0.00069219 Ry

     iteration #  5     ecut=    90.00 Ry     beta= 0.70
     Davidson diagonalization with overlap
     ethr =  9.61E-07,  avg # of iterations =  7.2

     total cpu time spent up to now is       83.4 secs

     total energy              =   -1180.35022227 Ry
     estimated scf accuracy    <       0.00011766 Ry

     iteration #  6     ecut=    90.00 Ry     beta= 0.70
     Davidson diagonalization with overlap
     ethr =  1.63E-07,  avg # of iterations =  4.4

     total cpu time spent up to now is       94.9 secs

     total energy              =   -1180.35026218 Ry
     estimated scf accuracy    <       0.00000524 Ry

     iteration #  7     ecut=    90.00 Ry     beta= 0.70
     Davidson diagonalization with overlap
     ethr =  7.28E-09,  avg # of iterations =  5.6

     total cpu time spent up to now is      107.7 secs

     total energy              =   -1180.35026300 Ry
     estimated scf accuracy    <       0.00000467 Ry

     iteration #  8     ecut=    90.00 Ry     beta= 0.70
     Davidson diagonalization with overlap
     ethr =  6.48E-09,  avg # of iterations =  2.9

     total cpu time spent up to now is      118.0 secs

     End of self-consistent calculation

          k = 0.0000 0.0000 0.0000 (  9771 PWs)   bands (ev):

   -56.5142 -56.5142 -56.4796 -56.4796 -56.4796 -56.4796 -56.4796 -56.4796
   -28.5796 -28.5796 -28.5721 -28.5721 -28.5721 -28.5721 -28.4828 -28.4828
   -27.6139 -27.6139 -27.6139 -27.6139 -27.5373 -27.5373 -27.5373 -27.5373
   -27.5327 -27.5327 -27.4503 -27.4503 -27.4500 -27.4500 -27.4500 -27.4500
     2.6985   2.6985   7.4569   7.4569   7.4569   7.4569   7.4661   7.4661
    10.5371  10.5371  10.5450  10.5450  10.5450  10.5450  11.9113  11.9113
    11.9113  11.9113  11.9224  11.9224  12.6025  12.6025  12.7722  12.7722
    12.7722  12.7722  13.1444  13.1444  13.1444  13.1444  13.1455  13.1455
    13.6723  13.6723  13.6723  13.6723  13.6762  13.6762  15.5525  15.5525
    15.5837  15.5837  15.5837  15.5837  15.7673  15.7673  15.7673  15.7673
    16.6657  16.6657  16.6961  16.6961  16.6961  16.6961

     occupation numbers 
     1.0000   1.0000   1.0000   1.0000   1.0000   1.0000   1.0000   1.0000
     1.0000   1.0000   1.0000   1.0000   1.0000   1.0000   1.0000   1.0000
     1.0000   1.0000   1.0000   1.0000   1.0000   1.0000   1.0000   1.0000
     1.0000   1.0000   1.0000   1.0000   1.0000   1.0000   1.0000   1.0000
     1.0000   1.0000   1.0000   1.0000   1.0000   1.0000   1.0000   1.0000
     1.0000   1.0000   1.0000   1.0000   1.0000   1.0000   1.0000   1.0000
     1.0000   1.0000   1.0000   1.0000   1.0000   1.0000   1.0000   1.0000
     1.0000   1.0000   1.0000   1.0000   1.0000   1.0000   1.0000   1.0000
     1.0000   1.0000   1.0000   1.0000   1.0000   1.0000  -0.0003  -0.0003
    -0.0001  -0.0001  -0.0001  -0.0001  -0.0000  -0.0000  -0.0000  -0.0000
    -0.0000  -0.0000  -0.0000  -0.0000  -0.0000  -0.0000

          k = 0.0000 0.0000 0.1667 (  9663 PWs)   bands (ev):

   -56.5125 -56.5125 -56.4852 -56.4852 -56.4790 -56.4790 -56.4763 -56.4763
   -28.5873 -28.5804 -28.5764 -28.5757 -28.5616 -28.5584 -28.4878 -28.4878
   -27.6307 -27.6226 -27.6008 -27.5931 -27.5499 -27.5441 -27.5402 -27.5310
   -27.5284 -27.5157 -27.4607 -27.4586 -27.4555 -27.4487 -27.4476 -27.4424
     2.8906   2.8906   6.5400   6.5425   7.5631   7.5650   8.1197   8.1291
     9.9482   9.9523  10.6628  10.6653  11.0718  11.0747  11.2873  11.2881
    11.5002  11.5050  12.4493  12.4596  12.7394  12.7617  12.8028  12.8095
    13.0115  13.0148  13.1086  13.1111  13.1978  13.1998  13.2285  13.2288
    13.5321  13.5422  13.6327  13.6353  13.9640  13.9645  15.2944  15.3153
    15.4180  15.4255  15.6941  15.7036  15.7493  15.7677  15.7929  15.8185
    16.4074  16.4229  16.5956  16.6031  16.9909  17.0115

     occupation numbers 
     1.0000   1.0000   1.0000   1.0000   1.0000   1.0000   1.0000   1.0000
     1.0000   1.0000   1.0000   1.0000   1.0000   1.0000   1.0000   1.0000
     1.0000   1.0000   1.0000   1.0000   1.0000   1.0000   1.0000   1.0000
     1.0000   1.0000   1.0000   1.0000   1.0000   1.0000   1.0000   1.0000
     1.0000   1.0000   1.0000   1.0000   1.0000   1.0000   1.0000   1.0000
     1.0000   1.0000   1.0000   1.0000   1.0000   1.0000   1.0000   1.0000
     1.0000   1.0000   1.0000   1.0000   1.0000   1.0000   1.0000   1.0000
     1.0000   1.0000   1.0000   1.0000   1.0000   1.0000   1.0000   1.0000
     1.0000   1.0000   1.0000   1.0000   1.0000   1.0000  -0.0234  -0.0190
    -0.0046  -0.0040  -0.0000  -0.0000  -0.0000  -0.0000  -0.0000  -0.0000
    -0.0000  -0.0000  -0.0000  -0.0000  -0.0000  -0.0000

          k = 0.0000 0.0000 0.3333 (  9606 PWs)   bands (ev):

   -56.5075 -56.5075 -56.4925 -56.4925 -56.4776 -56.4776 -56.4753 -56.4753
   -28.5899 -28.5832 -28.5820 -28.5783 -28.5427 -28.5402 -28.5018 -28.5013
   -27.6384 -27.6306 -27.5825 -27.5779 -27.5624 -27.5427 -27.5375 -27.5286
   -27.5271 -27.4964 -27.4782 -27.4651 -27.4622 -27.4513 -27.4467 -27.4406
     3.4510   3.4511   5.4201   5.4208   7.8602   7.8643   8.5100   8.5196
     9.6514   9.6530  10.6589  10.6613  10.7714  10.7838  11.0447  11.0476
    11.8630  11.8650  12.1345  12.1502  12.8386  12.8547  12.9332  12.9427
    13.1151  13.1210  13.1706  13.1757  13.2589  13.2617  13.3945  13.3968
    13.4522  13.4543  13.9163  13.9201  14.1179  14.1246  14.8898  14.9240
    15.3589  15.3673  15.5370  15.5553  15.7452  15.7735  15.8552  15.8793
    16.1951  16.2110  16.3710  16.3846  17.3064  17.3224

     occupation numbers 
     1.0000   1.0000   1.0000   1.0000   1.0000   1.0000   1.0000   1.0000
     1.0000   1.0000   1.0000   1.0000   1.0000   1.0000   1.0000   1.0000
     1.0000   1.0000   1.0000   1.0000   1.0000   1.0000   1.0000   1.0000
     1.0000   1.0000   1.0000   1.0000   1.0000   1.0000   1.0000   1.0000
     1.0000   1.0000   1.0000   1.0000   1.0000   1.0000   1.0000   1.0000
     1.0000   1.0000   1.0000   1.0000   1.0000   1.0000   1.0000   1.0000
     1.0000   1.0000   1.0000   1.0000   1.0000   1.0000   1.0000   1.0000
     1.0000   1.0000   1.0000   1.0000   1.0000   1.0000   1.0000   1.0000
     1.0000   1.0000   1.0000   1.0000   1.0000   1.0000   0.7156   0.5907
    -0.0112  -0.0100  -0.0004  -0.0003  -0.0000  -0.0000  -0.0000  -0.0000
    -0.0000  -0.0000  -0.0000  -0.0000  -0.0000  -0.0000

          k = 0.0000 0.0000-0.5000 (  9658 PWs)   bands (ev):

   -56.5004 -56.5004 -56.5004 -56.5004 -56.4760 -56.4760 -56.4760 -56.4760
   -28.5875 -28.5875 -28.5818 -28.5818 -28.5215 -28.5215 -28.5200 -28.5200
   -27.6373 -27.6373 -27.5722 -27.5722 -27.5572 -27.5572 -27.5342 -27.5342
   -27.5033 -27.5033 -27.4788 -27.4788 -27.4571 -27.4571 -27.4435 -27.4435
     4.3285   4.3285   4.3287   4.3287   8.2827   8.2827   8.2892   8.2892
    10.0168  10.0168  10.0208  10.0208  10.8981  10.8981  10.9093  10.9093
    12.2475  12.2475  12.2540  12.2540  12.6858  12.6858  12.6982  12.6982
    13.1424  13.1424  13.1429  13.1429  13.2379  13.2379  13.2415  13.2415
    13.7830  13.7830  13.7861  13.7861  14.5655  14.5655  14.5941  14.5941
    15.4025  15.4025  15.4203  15.4203  15.8070  15.8070  15.8368  15.8368
    16.1663  16.1663  16.1800  16.1801  17.5451  17.5482

     occupation numbers 
     1.0000   1.0000   1.0000   1.0000   1.0000   1.0000   1.0000   1.0000
     1.0000   1.0000   1.0000   1.0000   1.0000   1.0000   1.0000   1.0000
     1.0000   1.0000   1.0000   1.0000   1.0000   1.0000   1.0000   1.0000
     1.0000   1.0000   1.0000   1.0000   1.0000   1.0000   1.0000   1.0000
     1.0000   1.0000   1.0000   1.0000   1.0000   1.0000   1.0000   1.0000
     1.0000   1.0000   1.0000   1.0000   1.0000   1.0000   1.0000   1.0000
     1.0000   1.0000   1.0000   1.0000   1.0000   1.0000   1.0000   1.0000
     1.0000   1.0000   1.0000   1.0000   1.0000   1.0000   1.0000   1.0000
     1.0000   1.0000   1.0000   1.0000   1.0162   1.0162   1.0220   1.0220
    -0.0059  -0.0059  -0.0044  -0.0044  -0.0000  -0.0000  -0.0000  -0.0000
    -0.0000  -0.0000  -0.0000  -0.0000  -0.0000  -0.0000

          k = 0.0000 0.1667 0.1667 (  9657 PWs)   bands (ev):

   -56.5108 -56.5108 -56.4871 -56.4871 -56.4796 -56.4796 -56.4755 -56.4755
   -28.5891 -28.5833 -28.5741 -28.5740 -28.5579 -28.5540 -28.4926 -28.4925
   -27.6315 -27.6273 -27.5916 -27.5877 -27.5512 -27.5478 -27.5435 -27.5366
   -27.5203 -27.5065 -27.4695 -27.4658 -27.4585 -27.4498 -27.4429 -27.4387
     3.0802   3.0803   6.3973   6.4017   7.2077   7.2121   8.4070   8.4123
     9.8326   9.8359  10.5100  10.5124  10.7871  10.7883  11.3572  11.3602
    11.7799  11.7803  12.4121  12.4177  12.5878  12.5955  12.9951  12.9963
    13.0909  13.0991  13.1724  13.1732  13.2440  13.2506  13.3362  13.3412
    13.4676  13.4754  13.7328  13.7469  14.0757  14.0831  15.2523  15.2741
    15.3018  15.3212  15.5364  15.5485  15.6964  15.7174  15.8148  15.8393
    16.2776  16.2945  16.6073  16.6170  17.0331  17.0676

     occupation numbers 
     1.0000   1.0000   1.0000   1.0000   1.0000   1.0000   1.0000   1.0000
     1.0000   1.0000   1.0000   1.0000   1.0000   1.0000   1.0000   1.0000
     1.0000   1.0000   1.0000   1.0000   1.0000   1.0000   1.0000   1.0000
     1.0000   1.0000   1.0000   1.0000   1.0000   1.0000   1.0000   1.0000
     1.0000   1.0000   1.0000   1.0000   1.0000   1.0000   1.0000   1.0000
     1.0000   1.0000   1.0000   1.0000   1.0000   1.0000   1.0000   1.0000
     1.0000   1.0000   1.0000   1.0000   1.0000   1.0000   1.0000   1.0000
     1.0000   1.0000   1.0000   1.0000   1.0000   1.0000   1.0000   1.0000
     1.0000   1.0000   1.0000   1.0000   1.0000   1.0000  -0.0318  -0.0276
    -0.0218  -0.0178  -0.0004  -0.0003  -0.0000  -0.0000  -0.0000  -0.0000
    -0.0000  -0.0000  -0.0000  -0.0000  -0.0000  -0.0000

          k = 0.0000 0.1667 0.3333 (  9647 PWs)   bands (ev):

   -56.5062 -56.5062 -56.4926 -56.4926 -56.4786 -56.4786 -56.4755 -56.4755
   -28.5890 -28.5838 -28.5778 -28.5757 -28.5433 -28.5408 -28.5057 -28.5054
   -27.6347 -27.6294 -27.5806 -27.5750 -27.5611 -27.5478 -27.5411 -27.5332
   -27.5216 -27.4927 -27.4869 -27.4713 -27.4642 -27.4528 -27.4393 -27.4356
     3.6327   3.6329   5.5377   5.5394   7.3630   7.3656   8.4328   8.4361
     9.7329   9.7361  10.1893  10.1936  10.9876  10.9907  11.3852  11.3949
    11.7522  11.7565  12.1891  12.1979  12.5944  12.6021  12.8764  12.8852
    13.1128  13.1222  13.2518  13.2575  13.3795  13.3808  13.5262  13.5362
    13.5894  13.6026  13.9890  13.9996  14.2437  14.2562  14.9096  14.9406
    15.2254  15.2441  15.3458  15.3559  15.6548  15.6798  15.8067  15.8370
    16.1520  16.1614  16.4396  16.4527  17.2368  17.2697

     occupation numbers 
     1.0000   1.0000   1.0000   1.0000   1.0000   1.0000   1.0000   1.0000
     1.0000   1.0000   1.0000   1.0000   1.0000   1.0000   1.0000   1.0000
     1.0000   1.0000   1.0000   1.0000   1.0000   1.0000   1.0000   1.0000
     1.0000   1.0000   1.0000   1.0000   1.0000   1.0000   1.0000   1.0000
     1.0000   1.0000   1.0000   1.0000   1.0000   1.0000   1.0000   1.0000
     1.0000   1.0000   1.0000   1.0000   1.0000   1.0000   1.0000   1.0000
     1.0000   1.0000   1.0000   1.0000   1.0000   1.0000   1.0000   1.0000
     1.0000   1.0000   1.0000   1.0000   1.0000   1.0000   1.0000   1.0000
     1.0000   1.0000   1.0000   1.0000   1.0000   1.0000   0.6448   0.5267
    -0.0351  -0.0331  -0.0133  -0.0117  -0.0000  -0.0000  -0.0000  -0.0000
    -0.0000  -0.0000  -0.0000  -0.0000  -0.0000  -0.0000

          k = 0.0000 0.1667-0.5000 (  9654 PWs)   bands (ev):

   -56.4996 -56.4996 -56.4996 -56.4996 -56.4768 -56.4768 -56.4768 -56.4768
   -28.5851 -28.5851 -28.5796 -28.5796 -28.5248 -28.5248 -28.5222 -28.5222
   -27.6330 -27.6330 -27.5724 -27.5724 -27.5578 -27.5578 -27.5336 -27.5336
   -27.5111 -27.5111 -27.4791 -27.4791 -27.4597 -27.4597 -27.4365 -27.4365
     4.4932   4.4932   4.4939   4.4939   7.8951   7.8951   7.9020   7.9020
    10.0148  10.0148  10.0188  10.0188  11.1033  11.1033  11.1174  11.1174
    12.0902  12.0902  12.0948  12.0948  12.5401  12.5401  12.5559  12.5559
    13.2762  13.2762  13.2771  13.2771  13.3913  13.3913  13.3925  13.3925
    13.8667  13.8667  13.8707  13.8707  14.6207  14.6207  14.6520  14.6520
    15.2383  15.2383  15.2531  15.2531  15.7151  15.7151  15.7448  15.7448
    16.2399  16.2399  16.2506  16.2506  17.4838  17.4870

     occupation numbers 
     1.0000   1.0000   1.0000   1.0000   1.0000   1.0000   1.0000   1.0000
     1.0000   1.0000   1.0000   1.0000   1.0000   1.0000   1.0000   1.0000
     1.0000   1.0000   1.0000   1.0000   1.0000   1.0000   1.0000   1.0000
     1.0000   1.0000   1.0000   1.0000   1.0000   1.0000   1.0000   1.0000
     1.0000   1.0000   1.0000   1.0000   1.0000   1.0000   1.0000   1.0000
     1.0000   1.0000   1.0000   1.0000   1.0000   1.0000   1.0000   1.0000
     1.0000   1.0000   1.0000   1.0000   1.0000   1.0000   1.0000   1.0000
     1.0000   1.0000   1.0000   1.0000   1.0000   1.0000   1.0000   1.0000
     1.0000   1.0000   1.0000   1.0000   1.0276   1.0276   1.0332   1.0332
    -0.0338  -0.0338  -0.0316  -0.0316  -0.0000  -0.0000  -0.0000  -0.0000
    -0.0000  -0.0000  -0.0000  -0.0000  -0.0000  -0.0000

          k = 0.0000 0.3333 0.3333 (  9619 PWs)   bands (ev):

   -56.5026 -56.5026 -56.4940 -56.4940 -56.4796 -56.4796 -56.4767 -56.4767
   -28.5850 -28.5811 -28.5741 -28.5731 -28.5410 -28.5387 -28.5165 -28.5158
   -27.6262 -27.6250 -27.5817 -27.5760 -27.5570 -27.5493 -27.5375 -27.5367
   -27.5204 -27.5007 -27.4984 -27.4870 -27.4582 -27.4444 -27.4350 -27.4318
     4.1583   4.1587   5.6399   5.6420   6.6784   6.6812   7.8198   7.8236
    10.0316  10.0343  10.3051  10.3081  10.9408  10.9426  11.2583  11.2604
    11.8947  11.9013  12.1582  12.1627  12.3095  12.3191  12.6284  12.6363
    13.1794  13.1877  13.3913  13.3963  13.5601  13.5629  13.7205  13.7259
    13.8834  13.8951  14.0944  14.1072  14.4878  14.5135  14.8484  14.8600
    14.9412  14.9615  15.0579  15.0746  15.5228  15.5459  15.6032  15.6331
    16.2327  16.2415  16.4901  16.4970  17.1474  17.1780

     occupation numbers 
     1.0000   1.0000   1.0000   1.0000   1.0000   1.0000   1.0000   1.0000
     1.0000   1.0000   1.0000   1.0000   1.0000   1.0000   1.0000   1.0000
     1.0000   1.0000   1.0000   1.0000   1.0000   1.0000   1.0000   1.0000
     1.0000   1.0000   1.0000   1.0000   1.0000   1.0000   1.0000   1.0000
     1.0000   1.0000   1.0000   1.0000   1.0000   1.0000   1.0000   1.0000
     1.0000   1.0000   1.0000   1.0000   1.0000   1.0000   1.0000   1.0000
     1.0000   1.0000   1.0000   1.0000   1.0000   1.0000   1.0000   1.0000
     1.0000   1.0000   1.0000   1.0000   1.0000   1.0000   1.0000   1.0000
     1.0000   1.0000   1.0000   1.0000   1.0055   1.0082   0.8444   0.8114
     0.5242   0.4455   0.1259   0.0873  -0.0006  -0.0004  -0.0001  -0.0000
    -0.0000  -0.0000  -0.0000  -0.0000  -0.0000  -0.0000

          k = 0.0000 0.3333-0.5000 (  9646 PWs)   bands (ev):

   -56.4978 -56.4978 -56.4978 -56.4978 -56.4786 -56.4786 -56.4786 -56.4786
   -28.5793 -28.5793 -28.5750 -28.5750 -28.5312 -28.5312 -28.5283 -28.5283
   -27.6209 -27.6209 -27.5840 -27.5840 -27.5493 -27.5493 -27.5315 -27.5315
   -27.5193 -27.5193 -27.4979 -27.4979 -27.4469 -27.4469 -27.4323 -27.4323
     4.9494   4.9494   4.9508   4.9508   7.0286   7.0286   7.0335   7.0335
    10.3306  10.3306  10.3326  10.3326  11.2379  11.2379  11.2463  11.2463
    11.7608  11.7608  11.7663  11.7663  12.3340  12.3340  12.3414  12.3414
    13.3670  13.3670  13.3741  13.3741  13.6751  13.6751  13.6838  13.6838
    14.1706  14.1706  14.1761  14.1761  14.6109  14.6109  14.6301  14.6301
    14.9437  14.9437  14.9586  14.9586  15.4985  15.4985  15.5228  15.5228
    16.4406  16.4406  16.4514  16.4514  17.1955  17.1960

     occupation numbers 
     1.0000   1.0000   1.0000   1.0000   1.0000   1.0000   1.0000   1.0000
     1.0000   1.0000   1.0000   1.0000   1.0000   1.0000   1.0000   1.0000
     1.0000   1.0000   1.0000   1.0000   1.0000   1.0000   1.0000   1.0000
     1.0000   1.0000   1.0000   1.0000   1.0000   1.0000   1.0000   1.0000
     1.0000   1.0000   1.0000   1.0000   1.0000   1.0000   1.0000   1.0000
     1.0000   1.0000   1.0000   1.0000   1.0000   1.0000   1.0000   1.0000
     1.0000   1.0000   1.0000   1.0000   1.0000   1.0000   1.0000   1.0000
     1.0000   1.0000   1.0000   1.0000   1.0000   1.0000   1.0000   1.0000
     1.0000   1.0000   1.0000   1.0000   1.0256   1.0256   1.0295   1.0295
     0.5145   0.5145   0.4566   0.4566  -0.0010  -0.0010  -0.0006  -0.0006
    -0.0000  -0.0000  -0.0000  -0.0000  -0.0000  -0.0000

          k = 0.0000-0.5000-0.5000 (  9580 PWs)   bands (ev):

   -56.4968 -56.4968 -56.4968 -56.4968 -56.4796 -56.4796 -56.4796 -56.4796
   -28.5740 -28.5740 -28.5740 -28.5740 -28.5333 -28.5333 -28.5333 -28.5333
   -27.6031 -27.6031 -27.6031 -27.6031 -27.5358 -27.5358 -27.5358 -27.5358
   -27.5158 -27.5158 -27.5158 -27.5158 -27.4361 -27.4361 -27.4361 -27.4361
     5.3713   5.3713   5.3713   5.3713   6.4277   6.4277   6.4277   6.4277
    10.7058  10.7058  10.7058  10.7058  11.2428  11.2428  11.2428  11.2428
    11.3852  11.3852  11.3852  11.3852  12.2844  12.2844  12.2844  12.2844
    13.3624  13.3624  13.3624  13.3624  14.0073  14.0073  14.0073  14.0073
    14.2944  14.2944  14.2944  14.2944  14.5254  14.5254  14.5254  14.5254
    14.7578  14.7578  14.7578  14.7578  15.4180  15.4180  15.4180  15.4180
    16.5876  16.5876  16.5876  16.5876  16.9850  16.9850

     occupation numbers 
     1.0000   1.0000   1.0000   1.0000   1.0000   1.0000   1.0000   1.0000
     1.0000   1.0000   1.0000   1.0000   1.0000   1.0000   1.0000   1.0000
     1.0000   1.0000   1.0000   1.0000   1.0000   1.0000   1.0000   1.0000
     1.0000   1.0000   1.0000   1.0000   1.0000   1.0000   1.0000   1.0000
     1.0000   1.0000   1.0000   1.0000   1.0000   1.0000   1.0000   1.0000
     1.0000   1.0000   1.0000   1.0000   1.0000   1.0000   1.0000   1.0000
     1.0000   1.0000   1.0000   1.0000   1.0000   1.0000   1.0000   1.0000
     1.0000   1.0000   1.0000   1.0000   1.0000   1.0000   1.0000   1.0000
     1.0001   1.0001   1.0001   1.0001   1.0097   1.0097   1.0097   1.0097
     1.0061   1.0061   1.0061   1.0061  -0.0046  -0.0046  -0.0046  -0.0046
    -0.0000  -0.0000  -0.0000  -0.0000  -0.0000  -0.0000

          k = 0.1667 0.1667 0.1667 (  9627 PWs)   bands (ev):

   -56.5092 -56.5092 -56.4882 -56.4882 -56.4802 -56.4802 -56.4753 -56.4753
   -28.5894 -28.5840 -28.5722 -28.5721 -28.5558 -28.5518 -28.4973 -28.4969
   -27.6308 -27.6285 -27.5890 -27.5802 -27.5515 -27.5475 -27.5462 -27.5437
   -27.5146 -27.5013 -27.4791 -27.4659 -27.4591 -27.4555 -27.4379 -27.4373
     3.2673   3.2674   6.3450   6.3517   7.0383   7.0470   8.3233   8.3256
     9.7322   9.7349  10.5173  10.5182  10.5473  10.5486  11.3854  11.3909
    11.9877  11.9882  12.3200  12.3282  12.8285  12.8340  12.8345  12.8408
    13.1023  13.1076  13.1341  13.1342  13.2099  13.2159  13.5214  13.5264
    13.6006  13.6101  13.7835  13.7889  14.1526  14.1612  15.2049  15.2196
    15.2725  15.2872  15.4711  15.4723  15.5231  15.5387  15.7926  15.8074
    16.2238  16.2406  16.6028  16.6144  17.0474  17.0876

     occupation numbers 
     1.0000   1.0000   1.0000   1.0000   1.0000   1.0000   1.0000   1.0000
     1.0000   1.0000   1.0000   1.0000   1.0000   1.0000   1.0000   1.0000
     1.0000   1.0000   1.0000   1.0000   1.0000   1.0000   1.0000   1.0000
     1.0000   1.0000   1.0000   1.0000   1.0000   1.0000   1.0000   1.0000
     1.0000   1.0000   1.0000   1.0000   1.0000   1.0000   1.0000   1.0000
     1.0000   1.0000   1.0000   1.0000   1.0000   1.0000   1.0000   1.0000
     1.0000   1.0000   1.0000   1.0000   1.0000   1.0000   1.0000   1.0000
     1.0000   1.0000   1.0000   1.0000   1.0000   1.0000   1.0000   1.0000
     1.0000   1.0000   1.0000   1.0000   1.0000   1.0000  -0.0352  -0.0354
    -0.0280  -0.0249  -0.0018  -0.0017  -0.0006  -0.0004  -0.0000  -0.0000
    -0.0000  -0.0000  -0.0000  -0.0000  -0.0000  -0.0000

          k = 0.1667 0.1667 0.3333 (  9629 PWs)   bands (ev):

   -56.5049 -56.5049 -56.4925 -56.4925 -56.4796 -56.4796 -56.4759 -56.4759
   -28.5876 -28.5830 -28.5748 -28.5733 -28.5444 -28.5416 -28.5098 -28.5090
   -27.6315 -27.6272 -27.5801 -27.5720 -27.5598 -27.5507 -27.5435 -27.5386
   -27.5161 -27.5027 -27.4802 -27.4700 -27.4678 -27.4563 -27.4356 -27.4340
     3.8116   3.8118   5.6522   5.6544   7.1827   7.1867   8.2390   8.2425
     9.3520   9.3544  10.2214  10.2238  10.9245  10.9282  11.4676  11.4709
    11.8289  11.8331  12.2174  12.2195  12.7506  12.7595  12.9440  12.9502
    13.0780  13.0867  13.1962  13.2047  13.2923  13.2958  13.5435  13.5503
    13.7618  13.7670  14.0123  14.0212  14.3517  14.3691  14.9062  14.9336
    15.1897  15.2048  15.2820  15.2920  15.5024  15.5169  15.7129  15.7337
    16.1653  16.1748  16.4526  16.4665  17.2167  17.2477

     occupation numbers 
     1.0000   1.0000   1.0000   1.0000   1.0000   1.0000   1.0000   1.0000
     1.0000   1.0000   1.0000   1.0000   1.0000   1.0000   1.0000   1.0000
     1.0000   1.0000   1.0000   1.0000   1.0000   1.0000   1.0000   1.0000
     1.0000   1.0000   1.0000   1.0000   1.0000   1.0000   1.0000   1.0000
     1.0000   1.0000   1.0000   1.0000   1.0000   1.0000   1.0000   1.0000
     1.0000   1.0000   1.0000   1.0000   1.0000   1.0000   1.0000   1.0000
     1.0000   1.0000   1.0000   1.0000   1.0000   1.0000   1.0000   1.0000
     1.0000   1.0000   1.0000   1.0000   1.0000   1.0000   1.0000   1.0000
     1.0000   1.0000   1.0000   1.0000   1.0004   1.0006   0.6573   0.5536
    -0.0332  -0.0352  -0.0260  -0.0239  -0.0009  -0.0007  -0.0000  -0.0000
    -0.0000  -0.0000  -0.0000  -0.0000  -0.0000  -0.0000

          k = 0.1667 0.1667-0.5000 (  9658 PWs)   bands (ev):

   -56.4988 -56.4988 -56.4988 -56.4988 -56.4777 -56.4777 -56.4777 -56.4777
   -28.5828 -28.5828 -28.5774 -28.5774 -28.5279 -28.5279 -28.5246 -28.5246
   -27.6291 -27.6291 -27.5705 -27.5705 -27.5617 -27.5617 -27.5322 -27.5322
   -27.5173 -27.5173 -27.4754 -27.4754 -27.4625 -27.4625 -27.4339 -27.4339
     4.6545   4.6545   4.6553   4.6553   7.7184   7.7184   7.7246   7.7246
     9.6724   9.6724   9.6737   9.6737  11.3989  11.3989  11.4071  11.4071
    11.8729  11.8729  11.8765  11.8765  12.7970  12.7970  12.8090  12.8090
    13.1812  13.1812  13.1917  13.1917  13.4172  13.4172  13.4213  13.4213
    13.9219  13.9219  13.9298  13.9298  14.6722  14.6722  14.7060  14.7060
    15.1620  15.1620  15.1820  15.1820  15.6033  15.6033  15.6259  15.6259
    16.2592  16.2592  16.2689  16.2689  17.5694  17.5700

     occupation numbers 
     1.0000   1.0000   1.0000   1.0000   1.0000   1.0000   1.0000   1.0000
     1.0000   1.0000   1.0000   1.0000   1.0000   1.0000   1.0000   1.0000
     1.0000   1.0000   1.0000   1.0000   1.0000   1.0000   1.0000   1.0000
     1.0000   1.0000   1.0000   1.0000   1.0000   1.0000   1.0000   1.0000
     1.0000   1.0000   1.0000   1.0000   1.0000   1.0000   1.0000   1.0000
     1.0000   1.0000   1.0000   1.0000   1.0000   1.0000   1.0000   1.0000
     1.0000   1.0000   1.0000   1.0000   1.0000   1.0000   1.0000   1.0000
     1.0000   1.0000   1.0000   1.0000   1.0000   1.0000   1.0000   1.0000
     1.0000   1.0000   1.0000   1.0000   1.0352   1.0352   1.0331   1.0331
    -0.0236  -0.0236  -0.0314  -0.0314  -0.0001  -0.0001  -0.0000  -0.0000
    -0.0000  -0.0000  -0.0000  -0.0000  -0.0000  -0.0000

          k = 0.1667 0.3333 0.3333 (  9651 PWs)   bands (ev):

   -56.5014 -56.5014 -56.4934 -56.4934 -56.4807 -56.4807 -56.4775 -56.4775
   -28.5831 -28.5793 -28.5715 -28.5706 -28.5430 -28.5408 -28.5201 -28.5191
   -27.6239 -27.6211 -27.5808 -27.5735 -27.5618 -27.5532 -27.5419 -27.5351
   -27.5191 -27.5103 -27.4863 -27.4782 -27.4621 -27.4506 -27.4348 -27.4315
     4.3282   4.3286   5.7581   5.7615   6.7214   6.7269   7.7768   7.7804
     9.2003   9.2036  10.0626  10.0662  10.9680  10.9703  11.5784  11.5826
    11.7444  11.7466  12.2588  12.2623  12.4930  12.4993  12.8108  12.8173
    13.1507  13.1549  13.2523  13.2645  13.3992  13.4066  13.6915  13.7067
    13.9164  13.9326  14.2278  14.2385  14.5636  14.5918  14.8631  14.8772
    14.9470  14.9581  15.1226  15.1493  15.4057  15.4084  15.5519  15.5674
    16.2277  16.2352  16.4569  16.4650  17.0965  17.1213

     occupation numbers 
     1.0000   1.0000   1.0000   1.0000   1.0000   1.0000   1.0000   1.0000
     1.0000   1.0000   1.0000   1.0000   1.0000   1.0000   1.0000   1.0000
     1.0000   1.0000   1.0000   1.0000   1.0000   1.0000   1.0000   1.0000
     1.0000   1.0000   1.0000   1.0000   1.0000   1.0000   1.0000   1.0000
     1.0000   1.0000   1.0000   1.0000   1.0000   1.0000   1.0000   1.0000
     1.0000   1.0000   1.0000   1.0000   1.0000   1.0000   1.0000   1.0000
     1.0000   1.0000   1.0000   1.0000   1.0000   1.0000   1.0000   1.0000
     1.0000   1.0000   1.0000   1.0000   1.0000   1.0000   1.0000   1.0000
     1.0000   1.0000   1.0000   1.0000   1.0159   1.0215   0.8023   0.7581
     0.5018   0.4587   0.0088  -0.0159  -0.0056  -0.0054  -0.0003  -0.0002
    -0.0000  -0.0000  -0.0000  -0.0000  -0.0000  -0.0000

          k = 0.1667 0.3333-0.5000 (  9682 PWs)   bands (ev):

   -56.4968 -56.4968 -56.4968 -56.4968 -56.4796 -56.4796 -56.4796 -56.4796
   -28.5769 -28.5769 -28.5727 -28.5727 -28.5342 -28.5342 -28.5310 -28.5310
   -27.6177 -27.6177 -27.5817 -27.5817 -27.5573 -27.5573 -27.5331 -27.5331
   -27.5192 -27.5192 -27.4878 -27.4878 -27.4516 -27.4516 -27.4332 -27.4332
     5.1001   5.1001   5.1015   5.1015   7.0732   7.0732   7.0786   7.0786
     9.6225   9.6225   9.6262   9.6262  11.2867  11.2867  11.2885  11.2885
    11.9342  11.9342  11.9431  11.9431  12.5630  12.5630  12.5723  12.5723
    13.2647  13.2647  13.2708  13.2708  13.5481  13.5481  13.5630  13.5630
    14.2337  14.2337  14.2426  14.2426  14.7086  14.7086  14.7298  14.7298
    14.9614  14.9614  14.9793  14.9793  15.4425  15.4425  15.4594  15.4594
    16.3834  16.3834  16.3909  16.3909  17.1584  17.1613

     occupation numbers 
     1.0000   1.0000   1.0000   1.0000   1.0000   1.0000   1.0000   1.0000
     1.0000   1.0000   1.0000   1.0000   1.0000   1.0000   1.0000   1.0000
     1.0000   1.0000   1.0000   1.0000   1.0000   1.0000   1.0000   1.0000
     1.0000   1.0000   1.0000   1.0000   1.0000   1.0000   1.0000   1.0000
     1.0000   1.0000   1.0000   1.0000   1.0000   1.0000   1.0000   1.0000
     1.0000   1.0000   1.0000   1.0000   1.0000   1.0000   1.0000   1.0000
     1.0000   1.0000   1.0000   1.0000   1.0000   1.0000   1.0000   1.0000
     1.0000   1.0000   1.0000   1.0000   1.0000   1.0000   1.0000   1.0000
     1.0000   1.0000   1.0000   1.0000   1.0325   1.0325   1.0251   1.0251
     0.4459   0.4459   0.3778   0.3778  -0.0030  -0.0030  -0.0022  -0.0022
    -0.0000  -0.0000  -0.0000  -0.0000  -0.0000  -0.0000

          k = 0.1667-0.5000-0.5000 (  9628 PWs)   bands (ev):

   -56.4956 -56.4956 -56.4956 -56.4956 -56.4808 -56.4808 -56.4808 -56.4808
   -28.5716 -28.5716 -28.5715 -28.5715 -28.5365 -28.5365 -28.5362 -28.5362
   -27.6039 -27.6039 -27.5971 -27.5971 -27.5518 -27.5518 -27.5371 -27.5371
   -27.5138 -27.5138 -27.4985 -27.4985 -27.4425 -27.4425 -27.4366 -27.4366
     5.5078   5.5078   5.5092   5.5092   6.5306   6.5306   6.5332   6.5332
     9.8341   9.8341   9.8383   9.8383  10.8956  10.8956  10.8978  10.8978
    12.1890  12.1890  12.1916  12.1916  12.3740  12.3740  12.3771  12.3771
    13.2212  13.2212  13.2219  13.2219  13.7552  13.7552  13.7691  13.7691
    14.3903  14.3903  14.3973  14.3973  14.6951  14.6951  14.7125  14.7125
    14.8366  14.8366  14.8384  14.8384  15.3647  15.3647  15.3648  15.3648
    16.4842  16.4843  16.4858  16.4858  16.9508  16.9523

     occupation numbers 
     1.0000   1.0000   1.0000   1.0000   1.0000   1.0000   1.0000   1.0000
     1.0000   1.0000   1.0000   1.0000   1.0000   1.0000   1.0000   1.0000
     1.0000   1.0000   1.0000   1.0000   1.0000   1.0000   1.0000   1.0000
     1.0000   1.0000   1.0000   1.0000   1.0000   1.0000   1.0000   1.0000
     1.0000   1.0000   1.0000   1.0000   1.0000   1.0000   1.0000   1.0000
     1.0000   1.0000   1.0000   1.0000   1.0000   1.0000   1.0000   1.0000
     1.0000   1.0000   1.0000   1.0000   1.0000   1.0000   1.0000   1.0000
     1.0000   1.0000   1.0000   1.0000   1.0000   1.0000   1.0000   1.0000
     1.0009   1.0009   1.0010   1.0010   1.0347   1.0347   1.0315   1.0315
     0.8752   0.8752   0.8706   0.8706  -0.0104  -0.0104  -0.0104  -0.0104
    -0.0000  -0.0000  -0.0000  -0.0000  -0.0000  -0.0000

          k = 0.3333 0.3333 0.3333 (  9690 PWs)   bands (ev):

   -56.4981 -56.4981 -56.4925 -56.4925 -56.4826 -56.4826 -56.4796 -56.4796
   -28.5776 -28.5744 -28.5665 -28.5665 -28.5458 -28.5438 -28.5293 -28.5279
   -27.6163 -27.6127 -27.5794 -27.5695 -27.5693 -27.5679 -27.5458 -27.5327
   -27.5227 -27.5028 -27.4820 -27.4638 -27.4635 -27.4630 -27.4370 -27.4337
     4.8143   4.8148   5.9666   5.9731   6.6627   6.6731   7.5019   7.5045
     8.7480   8.7530   9.4975   9.5039  10.5488  10.5533  11.1926  11.1944
    12.0051  12.0068  12.4955  12.4986  12.7670  12.7711  12.8470  12.8487
    13.1364  13.1482  13.1942  13.2010  13.2637  13.2660  13.5426  13.5458
    14.1376  14.1422  14.4895  14.4978  14.7898  14.8266  14.8477  14.8594
    14.9933  15.0042  15.1345  15.1404  15.2606  15.2877  15.4106  15.4299
    16.2519  16.2588  16.3861  16.3889  16.9523  16.9606

     occupation numbers 
     1.0000   1.0000   1.0000   1.0000   1.0000   1.0000   1.0000   1.0000
     1.0000   1.0000   1.0000   1.0000   1.0000   1.0000   1.0000   1.0000
     1.0000   1.0000   1.0000   1.0000   1.0000   1.0000   1.0000   1.0000
     1.0000   1.0000   1.0000   1.0000   1.0000   1.0000   1.0000   1.0000
     1.0000   1.0000   1.0000   1.0000   1.0000   1.0000   1.0000   1.0000
     1.0000   1.0000   1.0000   1.0000   1.0000   1.0000   1.0000   1.0000
     1.0000   1.0000   1.0000   1.0000   1.0000   1.0000   1.0000   1.0000
     1.0000   1.0000   1.0000   1.0000   1.0000   1.0000   1.0000   1.0000
     1.0000   1.0000   1.0056   1.0064   0.9680   0.8988   0.8463   0.8132
     0.3261   0.2875  -0.0036  -0.0089  -0.0303  -0.0248  -0.0052  -0.0037
    -0.0000  -0.0000  -0.0000  -0.0000  -0.0000  -0.0000

          k = 0.3333 0.3333-0.5000 (  9648 PWs)   bands (ev):

   -56.4943 -56.4943 -56.4943 -56.4943 -56.4821 -56.4821 -56.4821 -56.4821
   -28.5707 -28.5707 -28.5671 -28.5671 -28.5411 -28.5411 -28.5379 -28.5379
   -27.6085 -27.6085 -27.5797 -27.5797 -27.5693 -27.5693 -27.5425 -27.5425
   -27.5083 -27.5083 -27.4763 -27.4763 -27.4579 -27.4579 -27.4380 -27.4380
     5.5136   5.5136   5.5155   5.5155   6.9761   6.9761   6.9820   6.9820
     9.0499   9.0499   9.0558   9.0558  10.5628  10.5628  10.5657  10.5657
    12.3834  12.3834  12.3918  12.3918  12.8169  12.8169  12.8245  12.8245
    13.1309  13.1309  13.1418  13.1418  13.3756  13.3756  13.3840  13.3840
    14.4634  14.4634  14.4717  14.4717  14.8586  14.8586  14.8743  14.8743
    15.0782  15.0782  15.0975  15.0975  15.2940  15.2940  15.3103  15.3103
    16.3281  16.3282  16.3376  16.3376  16.9267  16.9288

     occupation numbers 
     1.0000   1.0000   1.0000   1.0000   1.0000   1.0000   1.0000   1.0000
     1.0000   1.0000   1.0000   1.0000   1.0000   1.0000   1.0000   1.0000
     1.0000   1.0000   1.0000   1.0000   1.0000   1.0000   1.0000   1.0000
     1.0000   1.0000   1.0000   1.0000   1.0000   1.0000   1.0000   1.0000
     1.0000   1.0000   1.0000   1.0000   1.0000   1.0000   1.0000   1.0000
     1.0000   1.0000   1.0000   1.0000   1.0000   1.0000   1.0000   1.0000
     1.0000   1.0000   1.0000   1.0000   1.0000   1.0000   1.0000   1.0000
     1.0000   1.0000   1.0000   1.0000   1.0000   1.0000   1.0000   1.0000
     1.0036   1.0036   1.0042   1.0042   0.8155   0.8155   0.7674   0.7674
     0.0798   0.0798   0.0440   0.0440  -0.0234  -0.0234  -0.0200  -0.0200
    -0.0000  -0.0000  -0.0000  -0.0000  -0.0000  -0.0000

          k = 0.3333-0.5000-0.5000 (  9668 PWs)   bands (ev):

   -56.4925 -56.4925 -56.4925 -56.4925 -56.4839 -56.4839 -56.4839 -56.4839
   -28.5648 -28.5648 -28.5645 -28.5645 -28.5445 -28.5445 -28.5441 -28.5441
   -27.5978 -27.5978 -27.5894 -27.5894 -27.5695 -27.5695 -27.5468 -27.5468
   -27.5007 -27.5007 -27.4782 -27.4782 -27.4528 -27.4528 -27.4446 -27.4446
     5.8919   5.8919   5.8950   5.8950   6.6647   6.6647   6.6702   6.6702
     9.0933   9.0933   9.1000   9.1000  10.0568  10.0568  10.0609  10.0609
    12.6125  12.6125  12.6165  12.6165  12.7980  12.7980  12.8001  12.8001
    13.0407  13.0407  13.0408  13.0408  13.3502  13.3502  13.3609  13.3609
    14.6538  14.6538  14.6614  14.6614  14.9703  14.9703  14.9777  14.9777
    15.0624  15.0624  15.0679  15.0679  15.2527  15.2527  15.2646  15.2646
    16.3652  16.3652  16.3665  16.3665  16.7176  16.7182

     occupation numbers 
     1.0000   1.0000   1.0000   1.0000   1.0000   1.0000   1.0000   1.0000
     1.0000   1.0000   1.0000   1.0000   1.0000   1.0000   1.0000   1.0000
     1.0000   1.0000   1.0000   1.0000   1.0000   1.0000   1.0000   1.0000
     1.0000   1.0000   1.0000   1.0000   1.0000   1.0000   1.0000   1.0000
     1.0000   1.0000   1.0000   1.0000   1.0000   1.0000   1.0000   1.0000
     1.0000   1.0000   1.0000   1.0000   1.0000   1.0000   1.0000   1.0000
     1.0000   1.0000   1.0000   1.0000   1.0000   1.0000   1.0000   1.0000
     1.0000   1.0000   1.0000   1.0000   1.0000   1.0000   1.0000   1.0000
     1.0335   1.0335   1.0344   1.0344   0.4119   0.4119   0.3835   0.3835
     0.1150   0.1150   0.1020   0.1020  -0.0317  -0.0317  -0.0295  -0.0295
    -0.0000  -0.0000  -0.0000  -0.0000  -0.0000  -0.0000

          k =-0.5000-0.5000-0.5000 (  9568 PWs)   bands (ev):

   -56.4882 -56.4882 -56.4882 -56.4882 -56.4882 -56.4882 -56.4882 -56.4882
   -28.5554 -28.5554 -28.5546 -28.5546 -28.5546 -28.5546 -28.5546 -28.5546
   -27.5857 -27.5857 -27.5857 -27.5857 -27.5857 -27.5857 -27.5508 -27.5508
   -27.4936 -27.4936 -27.4593 -27.4593 -27.4593 -27.4593 -27.4593 -27.4593
     6.3989   6.3989   6.3989   6.3989   6.3989   6.3989   6.4093   6.4093
     9.2379   9.2379   9.2503   9.2503   9.2503   9.2503   9.2503   9.2503
    12.9157  12.9157  12.9222  12.9222  12.9222  12.9222  12.9222  12.9222
    12.9987  12.9987  13.0034  13.0034  13.0034  13.0034  13.0034  13.0034
    14.9316  14.9316  14.9335  14.9335  14.9335  14.9335  14.9335  14.9335
    15.2345  15.2345  15.2345  15.2345  15.2345  15.2345  15.2776  15.2776
    16.4076  16.4076  16.4199  16.4199  16.4199  16.4199

     occupation numbers 
     1.0000   1.0000   1.0000   1.0000   1.0000   1.0000   1.0000   1.0000
     1.0000   1.0000   1.0000   1.0000   1.0000   1.0000   1.0000   1.0000
     1.0000   1.0000   1.0000   1.0000   1.0000   1.0000   1.0000   1.0000
     1.0000   1.0000   1.0000   1.0000   1.0000   1.0000   1.0000   1.0000
     1.0000   1.0000   1.0000   1.0000   1.0000   1.0000   1.0000   1.0000
     1.0000   1.0000   1.0000   1.0000   1.0000   1.0000   1.0000   1.0000
     1.0000   1.0000   1.0000   1.0000   1.0000   1.0000   1.0000   1.0000
     1.0000   1.0000   1.0000   1.0000   1.0000   1.0000   1.0000   1.0000
     0.5616   0.5616   0.5543   0.5543   0.5543   0.5543   0.5543   0.5543
    -0.0343  -0.0343  -0.0343  -0.0343  -0.0343  -0.0343  -0.0269  -0.0269
    -0.0000  -0.0000  -0.0000  -0.0000  -0.0000  -0.0000

          k = 0.0000 0.3333 0.1667 (  9647 PWs)   bands (ev):

   -56.5062 -56.5062 -56.4926 -56.4926 -56.4786 -56.4786 -56.4755 -56.4755
   -28.5889 -28.5840 -28.5776 -28.5758 -28.5435 -28.5406 -28.5059 -28.5052
   -27.6348 -27.6294 -27.5784 -27.5774 -27.5599 -27.5478 -27.5422 -27.5334
   -27.5210 -27.4946 -27.4842 -27.4729 -27.4637 -27.4525 -27.4392 -27.4359
     3.6327   3.6328   5.5374   5.5383   7.3650   7.3662   8.4325   8.4391
     9.7431   9.7455  10.2563  10.2625  10.9710  10.9742  11.0972  11.0998
    11.8627  11.8651  12.2418  12.2457  12.7969  12.8019  12.9747  12.9799
    13.0654  13.0716  13.2437  13.2500  13.3397  13.3444  13.4878  13.4924
    13.5377  13.5402  13.9654  13.9754  14.2289  14.2409  14.8891  14.9211
    15.2768  15.2950  15.3367  15.3537  15.6444  15.6721  15.7837  15.8095
    16.1539  16.1663  16.4212  16.4354  17.2705  17.3003

     occupation numbers 
     1.0000   1.0000   1.0000   1.0000   1.0000   1.0000   1.0000   1.0000
     1.0000   1.0000   1.0000   1.0000   1.0000   1.0000   1.0000   1.0000
     1.0000   1.0000   1.0000   1.0000   1.0000   1.0000   1.0000   1.0000
     1.0000   1.0000   1.0000   1.0000   1.0000   1.0000   1.0000   1.0000
     1.0000   1.0000   1.0000   1.0000   1.0000   1.0000   1.0000   1.0000
     1.0000   1.0000   1.0000   1.0000   1.0000   1.0000   1.0000   1.0000
     1.0000   1.0000   1.0000   1.0000   1.0000   1.0000   1.0000   1.0000
     1.0000   1.0000   1.0000   1.0000   1.0000   1.0000   1.0000   1.0000
     1.0000   1.0000   1.0000   1.0000   1.0000   1.0000   0.7181   0.6018
    -0.0271  -0.0232  -0.0149  -0.0120  -0.0000  -0.0000  -0.0000  -0.0000
    -0.0000  -0.0000  -0.0000  -0.0000  -0.0000  -0.0000

          k = 0.0000-0.5000 0.1667 (  9654 PWs)   bands (ev):

   -56.4996 -56.4996 -56.4996 -56.4996 -56.4768 -56.4768 -56.4768 -56.4768
   -28.5851 -28.5851 -28.5796 -28.5796 -28.5249 -28.5249 -28.5221 -28.5221
   -27.6332 -27.6332 -27.5714 -27.5714 -27.5586 -27.5586 -27.5337 -27.5337
   -27.5113 -27.5113 -27.4791 -27.4791 -27.4594 -27.4594 -27.4366 -27.4366
     4.4930   4.4930   4.4935   4.4935   7.8970   7.8970   7.9017   7.9017
    10.1026  10.1026  10.1076  10.1076  10.8747  10.8747  10.8820  10.8820
    12.1413  12.1413  12.1462  12.1462  12.8617  12.8617  12.8708  12.8708
    13.1079  13.1079  13.1159  13.1159  13.3966  13.3966  13.4058  13.4058
    13.8070  13.8070  13.8124  13.8124  14.6069  14.6069  14.6379  14.6379
    15.2585  15.2585  15.2808  15.2808  15.6824  15.6824  15.7109  15.7109
    16.2148  16.2148  16.2265  16.2265  17.5916  17.5977

     occupation numbers 
     1.0000   1.0000   1.0000   1.0000   1.0000   1.0000   1.0000   1.0000
     1.0000   1.0000   1.0000   1.0000   1.0000   1.0000   1.0000   1.0000
     1.0000   1.0000   1.0000   1.0000   1.0000   1.0000   1.0000   1.0000
     1.0000   1.0000   1.0000   1.0000   1.0000   1.0000   1.0000   1.0000
     1.0000   1.0000   1.0000   1.0000   1.0000   1.0000   1.0000   1.0000
     1.0000   1.0000   1.0000   1.0000   1.0000   1.0000   1.0000   1.0000
     1.0000   1.0000   1.0000   1.0000   1.0000   1.0000   1.0000   1.0000
     1.0000   1.0000   1.0000   1.0000   1.0000   1.0000   1.0000   1.0000
     1.0000   1.0000   1.0000   1.0000   1.0247   1.0247   1.0309   1.0309
    -0.0307  -0.0307  -0.0262  -0.0262  -0.0000  -0.0000  -0.0000  -0.0000
    -0.0000  -0.0000  -0.0000  -0.0000  -0.0000  -0.0000

          k = 0.0000-0.5000 0.3333 (  9646 PWs)   bands (ev):

   -56.4978 -56.4978 -56.4978 -56.4978 -56.4786 -56.4786 -56.4786 -56.4786
   -28.5793 -28.5793 -28.5750 -28.5750 -28.5313 -28.5313 -28.5281 -28.5281
   -27.6212 -27.6212 -27.5832 -27.5832 -27.5500 -27.5500 -27.5308 -27.5308
   -27.5204 -27.5204 -27.4975 -27.4975 -27.4467 -27.4467 -27.4324 -27.4324
     4.9490   4.9490   4.9498   4.9498   7.0317   7.0317   7.0342   7.0342
    10.5070  10.5070  10.5104  10.5104  10.8271  10.8271  10.8293  10.8293
    11.9937  11.9937  11.9991  11.9991  12.4095  12.4095  12.4200  12.4200
    13.2668  13.2668  13.2732  13.2732  13.9137  13.9137  13.9201  13.9201
    13.9553  13.9553  13.9685  13.9685  14.6424  14.6424  14.6759  14.6759
    14.9016  14.9016  14.9375  14.9375  15.4784  15.4784  15.5015  15.5015
    16.3854  16.3854  16.3973  16.3973  17.2933  17.2948

     occupation numbers 
     1.0000   1.0000   1.0000   1.0000   1.0000   1.0000   1.0000   1.0000
     1.0000   1.0000   1.0000   1.0000   1.0000   1.0000   1.0000   1.0000
     1.0000   1.0000   1.0000   1.0000   1.0000   1.0000   1.0000   1.0000
     1.0000   1.0000   1.0000   1.0000   1.0000   1.0000   1.0000   1.0000
     1.0000   1.0000   1.0000   1.0000   1.0000   1.0000   1.0000   1.0000
     1.0000   1.0000   1.0000   1.0000   1.0000   1.0000   1.0000   1.0000
     1.0000   1.0000   1.0000   1.0000   1.0000   1.0000   1.0000   1.0000
     1.0000   1.0000   1.0000   1.0000   1.0000   1.0000   1.0000   1.0000
     1.0000   1.0000   1.0000   1.0000   1.0317   1.0317   1.0354   1.0354
     0.6738   0.6738   0.5386   0.5386  -0.0015  -0.0015  -0.0009  -0.0009
    -0.0000  -0.0000  -0.0000  -0.0000  -0.0000  -0.0000

          k =-0.1667-0.5000 0.3333 (  9682 PWs)   bands (ev):

   -56.4968 -56.4968 -56.4968 -56.4968 -56.4796 -56.4796 -56.4796 -56.4796
   -28.5769 -28.5769 -28.5727 -28.5727 -28.5342 -28.5342 -28.5309 -28.5309
   -27.6179 -27.6179 -27.5812 -27.5812 -27.5578 -27.5578 -27.5328 -27.5328
   -27.5196 -27.5196 -27.4876 -27.4876 -27.4515 -27.4515 -27.4332 -27.4332
     5.0998   5.0998   5.1009   5.1009   7.0752   7.0752   7.0791   7.0791
     9.6359   9.6359   9.6387   9.6387  11.1974  11.1974  11.2005  11.2005
    11.9964  11.9964  12.0030  12.0030  12.6305  12.6305  12.6408  12.6408
    13.1713  13.1713  13.1793  13.1793  13.6490  13.6490  13.6607  13.6607
    14.1690  14.1690  14.1783  14.1783  14.7152  14.7152  14.7405  14.7405
    14.9606  14.9606  14.9919  14.9919  15.4230  15.4230  15.4402  15.4402
    16.3548  16.3548  16.3656  16.3656  17.2143  17.2163

     occupation numbers 
     1.0000   1.0000   1.0000   1.0000   1.0000   1.0000   1.0000   1.0000
     1.0000   1.0000   1.0000   1.0000   1.0000   1.0000   1.0000   1.0000
     1.0000   1.0000   1.0000   1.0000   1.0000   1.0000   1.0000   1.0000
     1.0000   1.0000   1.0000   1.0000   1.0000   1.0000   1.0000   1.0000
     1.0000   1.0000   1.0000   1.0000   1.0000   1.0000   1.0000   1.0000
     1.0000   1.0000   1.0000   1.0000   1.0000   1.0000   1.0000   1.0000
     1.0000   1.0000   1.0000   1.0000   1.0000   1.0000   1.0000   1.0000
     1.0000   1.0000   1.0000   1.0000   1.0000   1.0000   1.0000   1.0000
     1.0000   1.0000   1.0000   1.0000   1.0307   1.0307   1.0193   1.0193
     0.4489   0.4489   0.3311   0.3311  -0.0042  -0.0042  -0.0031  -0.0031
    -0.0000  -0.0000  -0.0000  -0.0000  -0.0000  -0.0000

     the Fermi energy is    14.9475 ev

!    total energy              =   -1180.35026387 Ry

     total all-electron energy =    -10727.811100 Ry
     estimated scf accuracy    <          5.2E-09 Ry
     smearing contrib. (-TS)   =      -0.00120547 Ry
     internal energy E=F+TS    =   -1180.34905840 Ry

     The total energy is F=E-TS. E is the sum of the following terms:
     one-electron contribution =    -336.78426654 Ry
     hartree contribution      =     207.02858105 Ry
     xc contribution           =    -114.36057537 Ry
     ewald contribution        =    -496.51183961 Ry
     one-center paw contrib.   =    -439.72095793 Ry
      -> PAW hartree energy AE =     126.71028533 Ry
      -> PAW hartree energy PS =    -125.74297296 Ry
      -> PAW xc energy AE      =     -96.23921580 Ry
      -> PAW xc energy PS      =      20.93189805 Ry
      -> total E_H with PAW    =     207.99589342 Ry
      -> total E_XC with PAW   =    -189.66789312 Ry

     convergence has been achieved in   8 iterations

     Forces acting on atoms (cartesian axes, Ry/au):

     atom    1 type  1   force =    -0.00283080   -0.00283080    0.00283080
     atom    2 type  1   force =    -0.00283080    0.00283080   -0.00283080
     atom    3 type  1   force =     0.00283080   -0.00283080   -0.00283080
     atom    4 type  1   force =     0.00283080    0.00283080    0.00283080
     atom    5 type  2   force =    -0.00412074   -0.00412074    0.00412074
     atom    6 type  2   force =    -0.00412074    0.00412074   -0.00412074
     atom    7 type  2   force =     0.00412074   -0.00412074   -0.00412074
     atom    8 type  2   force =     0.00412074    0.00412074    0.00412074
     The non-local contrib.  to forces
     atom    1 type  1   force =     0.05139727    0.05139727   -0.05139727
     atom    2 type  1   force =     0.05139727   -0.05139727    0.05139727
     atom    3 type  1   force =    -0.05139727    0.05139727    0.05139727
     atom    4 type  1   force =    -0.05139727   -0.05139727   -0.05139727
     atom    5 type  2   force =    -0.00812592   -0.00812592    0.00812592
     atom    6 type  2   force =    -0.00812592    0.00812592   -0.00812592
     atom    7 type  2   force =     0.00812592   -0.00812592   -0.00812592
     atom    8 type  2   force =     0.00812592    0.00812592    0.00812592
     The ionic contribution  to forces
     atom    1 type  1   force =    -0.85044630   -0.85044630    0.85044630
     atom    2 type  1   force =    -0.85044630    0.85044630   -0.85044630
     atom    3 type  1   force =     0.85044630   -0.85044630   -0.85044630
     atom    4 type  1   force =     0.85044630    0.85044630    0.85044630
     atom    5 type  2   force =    -0.24524978   -0.24524978    0.24524978
     atom    6 type  2   force =    -0.24524978    0.24524978   -0.24524978
     atom    7 type  2   force =     0.24524978   -0.24524978   -0.24524978
     atom    8 type  2   force =     0.24524978    0.24524978    0.24524978
     The local contribution  to forces
     atom    1 type  1   force =     0.79725164    0.79725164   -0.79725164
     atom    2 type  1   force =     0.79725164   -0.79725164    0.79725164
     atom    3 type  1   force =    -0.79725164    0.79725164    0.79725164
     atom    4 type  1   force =    -0.79725164   -0.79725164   -0.79725164
     atom    5 type  2   force =     0.24845244    0.24845244   -0.24845244
     atom    6 type  2   force =     0.24845244   -0.24845244    0.24845244
     atom    7 type  2   force =    -0.24845244    0.24845244    0.24845244
     atom    8 type  2   force =    -0.24845244   -0.24845244   -0.24845244
     The core correction contribution to forces
     atom    1 type  1   force =    -0.00103586   -0.00103586    0.00103586
     atom    2 type  1   force =    -0.00103586    0.00103586   -0.00103586
     atom    3 type  1   force =     0.00103586   -0.00103586   -0.00103586
     atom    4 type  1   force =     0.00103586    0.00103586    0.00103586
     atom    5 type  2   force =     0.00080295    0.00080295   -0.00080295
     atom    6 type  2   force =     0.00080295   -0.00080295    0.00080295
     atom    7 type  2   force =    -0.00080295    0.00080295    0.00080295
     atom    8 type  2   force =    -0.00080295   -0.00080295   -0.00080295
     The Hubbard contrib.    to forces
     atom    1 type  1   force =     0.00000000    0.00000000    0.00000000
     atom    2 type  1   force =     0.00000000    0.00000000    0.00000000
     atom    3 type  1   force =     0.00000000    0.00000000    0.00000000
     atom    4 type  1   force =     0.00000000    0.00000000    0.00000000
     atom    5 type  2   force =     0.00000000    0.00000000    0.00000000
     atom    6 type  2   force =     0.00000000    0.00000000    0.00000000
     atom    7 type  2   force =     0.00000000    0.00000000    0.00000000
     atom    8 type  2   force =     0.00000000    0.00000000    0.00000000
     The SCF correction term to forces
     atom    1 type  1   force =     0.00000245    0.00000245   -0.00000245
     atom    2 type  1   force =     0.00000245   -0.00000245    0.00000245
     atom    3 type  1   force =    -0.00000245    0.00000245    0.00000245
     atom    4 type  1   force =    -0.00000245   -0.00000245   -0.00000245
     atom    5 type  2   force =    -0.00000043   -0.00000043    0.00000043
     atom    6 type  2   force =    -0.00000043    0.00000043   -0.00000043
     atom    7 type  2   force =     0.00000043   -0.00000043   -0.00000043
     atom    8 type  2   force =     0.00000043    0.00000043    0.00000043

     Total force =     0.017318     Total SCF correction =     0.000009


     Computing stress (Cartesian axis) and pressure

          total   stress  (Ry/bohr**3)                   (kbar)     P=      -43.87
  -0.00029822   0.00000000   0.00000000          -43.87        0.00        0.00
   0.00000000  -0.00029822   0.00000000            0.00      -43.87        0.00
   0.00000000   0.00000000  -0.00029822            0.00        0.00      -43.87

     kinetic stress (kbar)  35759.60      0.00      0.00
                                0.00  35759.60      0.00
                                0.00      0.00  35759.60

     local   stress (kbar) -10012.03      0.00     -0.00
                                0.00 -10012.03     -0.00
                               -0.00     -0.00 -10012.03

     nonloc. stress (kbar)   2426.08      0.00      0.00
                                0.00   2426.08      0.00
                                0.00      0.00   2426.08

     hartree stress (kbar)  15166.26     -0.00     -0.00
                               -0.00  15166.26      0.00
                               -0.00      0.00  15166.26

     exc-cor stress (kbar)  -1706.49     -0.00     -0.00
                               -0.00  -1706.49     -0.00
                               -0.00     -0.00  -1706.49

     corecor stress (kbar)  -5304.39     -0.00     -0.00
                               -0.00  -5304.39     -0.00
                               -0.00     -0.00  -5304.39

     ewald   stress (kbar) -36372.90      0.00      0.00
                                0.00 -36372.90      0.00
                                0.00      0.00 -36372.90

     hubbard stress (kbar)      0.00      0.00      0.00
                                0.00      0.00      0.00
                                0.00      0.00      0.00

     DFT-D   stress (kbar)      0.00      0.00      0.00
                                0.00      0.00      0.00
                                0.00      0.00      0.00

     XDM     stress (kbar)      0.00      0.00      0.00
                                0.00      0.00      0.00
                                0.00      0.00      0.00

     dft-nl  stress (kbar)      0.00      0.00      0.00
                                0.00      0.00      0.00
                                0.00      0.00      0.00

     TS-vdW  stress (kbar)      0.00      0.00      0.00
                                0.00      0.00      0.00
                                0.00      0.00      0.00



     Writing output data file /zfs_data/vergnior/martin/Scratch/OAL/CrSi/convergence/smearing/6x6x6/0.016/tmp/CrSi.save/
 
     init_run     :      4.39s CPU      4.62s WALL (       1 calls)
     electrons    :    107.60s CPU    110.82s WALL (       1 calls)
     forces       :      3.93s CPU      4.01s WALL (       1 calls)
     stress       :     10.03s CPU     10.24s WALL (       1 calls)

     Called by init_run:
     wfcinit      :      3.20s CPU      3.29s WALL (       1 calls)
     wfcinit:atom :      0.03s CPU      0.03s WALL (      24 calls)
     wfcinit:wfcr :      3.04s CPU      3.13s WALL (      24 calls)
     potinit      :      0.20s CPU      0.24s WALL (       1 calls)
     hinit0       :      0.18s CPU      0.18s WALL (       1 calls)

     Called by electrons:
     c_bands      :     83.65s CPU     85.19s WALL (       9 calls)
     sum_band     :     18.74s CPU     19.80s WALL (       9 calls)
     v_of_rho     :      0.21s CPU      0.21s WALL (       9 calls)
     v_h          :      0.02s CPU      0.02s WALL (       9 calls)
     v_xc         :      0.23s CPU      0.24s WALL (      11 calls)
     newd         :      4.28s CPU      4.90s WALL (       9 calls)
     PAW_pot      :      1.12s CPU      1.14s WALL (       9 calls)
     mix_rho      :      0.12s CPU      0.12s WALL (       9 calls)

     Called by c_bands:
     init_us_2    :      0.49s CPU      0.49s WALL (     504 calls)
     cegterg      :     75.32s CPU     76.67s WALL (     216 calls)

     Called by sum_band:
     sum_band:wei :      0.03s CPU      0.03s WALL (       9 calls)
     sum_band:loo :     15.59s CPU     15.86s WALL (       9 calls)
     sum_band:buf :      0.16s CPU      0.17s WALL (     216 calls)
     sum_band:ini :      0.22s CPU      0.23s WALL (     216 calls)
     sum_band:cal :      1.08s CPU      1.09s WALL (     216 calls)
     sum_band:bec :      2.68s CPU      2.68s WALL (     216 calls)
     addusdens    :      2.96s CPU      3.75s WALL (       9 calls)
     addusd:skk   :      0.00s CPU      0.01s WALL (      18 calls)
     addusd:dgemm :      1.14s CPU      1.90s WALL (      18 calls)
     addusd:qvan2 :      1.78s CPU      1.78s WALL (      18 calls)

     Called by *egterg:
     cdiaghg      :      7.57s CPU      7.61s WALL (    1125 calls)
     cegterg:over :      3.92s CPU      3.94s WALL (     933 calls)
     cegterg:upda :      2.06s CPU      2.09s WALL (     933 calls)
     cegterg:last :      3.54s CPU      3.56s WALL (     537 calls)
     h_psi        :     51.44s CPU     52.67s WALL (    1173 calls)
     s_psi        :      7.72s CPU      7.74s WALL (    1173 calls)
     g_psi        :      0.12s CPU      0.12s WALL (     933 calls)

     Called by h_psi:
     h_psi:calbec :      3.63s CPU      3.66s WALL (    1173 calls)
     vloc_psi     :     40.37s CPU     41.48s WALL (    1173 calls)
     add_vuspsi   :      7.17s CPU      7.23s WALL (    1173 calls)

     General routines
     calbec       :      5.31s CPU      5.35s WALL (    1509 calls)
     fft          :      0.21s CPU      0.21s WALL (     216 calls)
     ffts         :      0.04s CPU      0.07s WALL (      72 calls)
     fftw         :     37.91s CPU     38.94s WALL (  273804 calls)
     interpolate  :      0.07s CPU      0.10s WALL (      36 calls)
 
     Parallel routines
     fft_scatt_xy :      3.64s CPU      3.73s WALL (  274092 calls)
     fft_scatt_yz :     14.23s CPU     14.62s WALL (  274092 calls)

     PAW routines
     PAW_pot      :      1.12s CPU      1.14s WALL (       9 calls)
     PAW_symme    :      0.02s CPU      0.02s WALL (      18 calls)
 
     PWSCF        :   2m 8.88s CPU   2m13.82s WALL

 
   This run was terminated on:  12:44:33   1Aug2021            

=------------------------------------------------------------------------------=
   JOB DONE.
=------------------------------------------------------------------------------=
