MPI startup(): Warning: I_MPI_PMI_LIBRARY will be ignored since the hydra process manager was found
MPI startup(): Warning: I_MPI_PMI_LIBRARY will be ignored since the hydra process manager was found
MPI startup(): Warning: I_MPI_PMI_LIBRARY will be ignored since the hydra process manager was found
MPI startup(): Warning: I_MPI_PMI_LIBRARY will be ignored since the hydra process manager was found
MPI startup(): Warning: I_MPI_PMI_LIBRARY will be ignored since the hydra process manager was found
MPI startup(): Warning: I_MPI_PMI_LIBRARY will be ignored since the hydra process manager was found
MPI startup(): Warning: I_MPI_PMI_LIBRARY will be ignored since the hydra process manager was found
MPI startup(): Warning: I_MPI_PMI_LIBRARY will be ignored since the hydra process manager was found
MPI startup(): Warning: I_MPI_PMI_LIBRARY will be ignored since the hydra process manager was found
MPI startup(): Warning: I_MPI_PMI_LIBRARY will be ignored since the hydra process manager was found
MPI startup(): Warning: I_MPI_PMI_LIBRARY will be ignored since the hydra process manager was found
MPI startup(): Warning: I_MPI_PMI_LIBRARY will be ignored since the hydra process manager was found
MPI startup(): Warning: I_MPI_PMI_LIBRARY will be ignored since the hydra process manager was found
MPI startup(): Warning: I_MPI_PMI_LIBRARY will be ignored since the hydra process manager was found
MPI startup(): Warning: I_MPI_PMI_LIBRARY will be ignored since the hydra process manager was found
MPI startup(): Warning: I_MPI_PMI_LIBRARY will be ignored since the hydra process manager was found
MPI startup(): Warning: I_MPI_PMI_LIBRARY will be ignored since the hydra process manager was found
MPI startup(): Warning: I_MPI_PMI_LIBRARY will be ignored since the hydra process manager was found
MPI startup(): Warning: I_MPI_PMI_LIBRARY will be ignored since the hydra process manager was found
MPI startup(): Warning: I_MPI_PMI_LIBRARY will be ignored since the hydra process manager was found
MPI startup(): Warning: I_MPI_PMI_LIBRARY will be ignored since the hydra process manager was found
MPI startup(): Warning: I_MPI_PMI_LIBRARY will be ignored since the hydra process manager was found
MPI startup(): Warning: I_MPI_PMI_LIBRARY will be ignored since the hydra process manager was found
MPI startup(): Warning: I_MPI_PMI_LIBRARY will be ignored since the hydra process manager was found

     Program PWSCF v.6.7MaX starts on  1Aug2021 at 12:44:51 

     This program is part of the open-source Quantum ESPRESSO suite
     for quantum simulation of materials; please cite
         "P. Giannozzi et al., J. Phys.:Condens. Matter 21 395502 (2009);
         "P. Giannozzi et al., J. Phys.:Condens. Matter 29 465901 (2017);
          URL http://www.quantum-espresso.org", 
     in publications or presentations arising from this work. More details at
     http://www.quantum-espresso.org/quote

     Parallel version (MPI), running on    24 processors

     MPI processes distributed on     1 nodes
     R & G space division:  proc/nbgrp/npool/nimage =      24
     Waiting for input...
     Reading input from standard input

     Current dimensions of program PWSCF are:
     Max number of different atomic species (ntypx) = 10
     Max number of k-points (npk) =  40000
     Max angular momentum in pseudopotentials (lmaxx) =  3
     file Cr.rel-pbe-spn-kjpaw_psl.1.0.0.UPF: wavefunction(s)  3S 3P 3P 3D 3D renormalized
     file Si.rel-pbe-n-kjpaw_psl.1.0.0.UPF: wavefunction(s)  3S 3P 3P renormalized

     Subspace diagonalization in iterative solution of the eigenvalue problem:
     a serial algorithm will be used

     Message from routine setup:
     using ibrav=0 with symmetry is DISCOURAGED, use correct ibrav instead
 
     Parallelization info
     --------------------
     sticks:   dense  smooth     PW     G-vecs:    dense   smooth      PW
     Min         228      91     25                12702     3210     487
     Max         229      93     26                12704     3214     492
     Sum        5473    2201    621               304867    77053   11753
 


     bravais-lattice index     =            0
     lattice parameter (alat)  =       8.7475  a.u.
     unit-cell volume          =     669.3575 (a.u.)^3
     number of atoms/cell      =            8
     number of atomic types    =            2
     number of electrons       =        72.00
     number of Kohn-Sham states=           86
     kinetic-energy cutoff     =      90.0000  Ry
     charge density cutoff     =     900.0000  Ry
     scf convergence threshold =      1.0E-06
     mixing beta               =       0.7000
     number of iterations used =            8  plain     mixing
     Exchange-correlation= SLA  PW   PBX  PBC
                           (   1   4   3   4   0   0   0)
     Non magnetic calculation with spin-orbit


     celldm(1)=   8.747542  celldm(2)=   0.000000  celldm(3)=   0.000000
     celldm(4)=   0.000000  celldm(5)=   0.000000  celldm(6)=   0.000000

     crystal axes: (cart. coord. in units of alat)
               a(1) = (   1.000000   0.000000   0.000000 )  
               a(2) = (   0.000000   1.000000   0.000000 )  
               a(3) = (   0.000000   0.000000   1.000000 )  

     reciprocal axes: (cart. coord. in units 2 pi/alat)
               b(1) = (  1.000000  0.000000  0.000000 )  
               b(2) = (  0.000000  1.000000  0.000000 )  
               b(3) = (  0.000000  0.000000  1.000000 )  


     PseudoPot. # 1 for Cr read from file:
     ../../../../pseudo/Cr.rel-pbe-spn-kjpaw_psl.1.0.0.UPF
     MD5 check sum: 1e24e2b5251376a8b945118fca0c7981
     Pseudo is Projector augmented-wave + core cor, Zval = 14.0
     Generated using &quot;atomic&quot; code by A. Dal Corso  v.6.3
     Shape of augmentation charge: PSQ
     Using radial grid of 1183 points, 10 beta functions with: 
                l(1) =   0
                l(2) =   0
                l(3) =   1
                l(4) =   1
                l(5) =   1
                l(6) =   1
                l(7) =   2
                l(8) =   2
                l(9) =   2
               l(10) =   2
     Q(r) pseudized with 0 coefficients 


     PseudoPot. # 2 for Si read from file:
     ../../../../pseudo/Si.rel-pbe-n-kjpaw_psl.1.0.0.UPF
     MD5 check sum: d74f6caf6830ea4c2076867160cab1b0
     Pseudo is Projector augmented-wave + core cor, Zval =  4.0
     Generated using &quot;atomic&quot; code by A. Dal Corso  v.6.3
     Shape of augmentation charge: PSQ
     Using radial grid of 1141 points, 10 beta functions with: 
                l(1) =   0
                l(2) =   0
                l(3) =   1
                l(4) =   1
                l(5) =   1
                l(6) =   1
                l(7) =   2
                l(8) =   2
                l(9) =   2
               l(10) =   2
     Q(r) pseudized with 0 coefficients 


     atomic species   valence    mass     pseudopotential
        Cr            14.00    51.99600     Cr( 1.00)
        Si             4.00    28.08500     Si( 1.00)

     12 Sym. Ops. (no inversion) found ( 9 have fractional translation)


                                    s                        frac. trans.

      isym =  1     identity                                     

 cryst.   s( 1) = (     1          0          0      )
                  (     0          1          0      )
                  (     0          0          1      )

 cart.    s( 1) = (  1.0000000  0.0000000  0.0000000 )
                  (  0.0000000  1.0000000  0.0000000 )
                  (  0.0000000  0.0000000  1.0000000 )


      isym =  2     180 deg rotation - cart. axis [0,0,1]        

 cryst.   s( 2) = (    -1          0          0      )    f =(  0.5000000 )
                  (     0         -1          0      )       (  0.0000000 )
                  (     0          0          1      )       ( -0.5000000 )

 cart.    s( 2) = ( -1.0000000  0.0000000  0.0000000 )    f =(  0.5000000 )
                  (  0.0000000 -1.0000000  0.0000000 )       (  0.0000000 )
                  (  0.0000000  0.0000000  1.0000000 )       ( -0.5000000 )


      isym =  3     180 deg rotation - cart. axis [0,1,0]        

 cryst.   s( 3) = (    -1          0          0      )    f =(  0.0000000 )
                  (     0          1          0      )       ( -0.5000000 )
                  (     0          0         -1      )       (  0.5000000 )

 cart.    s( 3) = ( -1.0000000  0.0000000  0.0000000 )    f =(  0.0000000 )
                  (  0.0000000  1.0000000  0.0000000 )       ( -0.5000000 )
                  (  0.0000000  0.0000000 -1.0000000 )       (  0.5000000 )


      isym =  4     180 deg rotation - cart. axis [1,0,0]        

 cryst.   s( 4) = (     1          0          0      )    f =(  0.5000000 )
                  (     0         -1          0      )       (  0.5000000 )
                  (     0          0         -1      )       (  0.0000000 )

 cart.    s( 4) = (  1.0000000  0.0000000  0.0000000 )    f =(  0.5000000 )
                  (  0.0000000 -1.0000000  0.0000000 )       (  0.5000000 )
                  (  0.0000000  0.0000000 -1.0000000 )       (  0.0000000 )


      isym =  5     120 deg rotation - cart. axis [-1,-1,-1]     

 cryst.   s( 5) = (     0          0          1      )
                  (     1          0          0      )
                  (     0          1          0      )

 cart.    s( 5) = (  0.0000000  1.0000000  0.0000000 )
                  (  0.0000000  0.0000000  1.0000000 )
                  (  1.0000000  0.0000000  0.0000000 )


      isym =  6     120 deg rotation - cart. axis [-1,1,1]       

 cryst.   s( 6) = (     0          0         -1      )    f =(  0.0000000 )
                  (    -1          0          0      )       ( -0.5000000 )
                  (     0          1          0      )       (  0.5000000 )

 cart.    s( 6) = (  0.0000000 -1.0000000  0.0000000 )    f =(  0.0000000 )
                  (  0.0000000  0.0000000  1.0000000 )       ( -0.5000000 )
                  ( -1.0000000  0.0000000  0.0000000 )       (  0.5000000 )


      isym =  7     120 deg rotation - cart. axis [1,1,-1]       

 cryst.   s( 7) = (     0          0         -1      )    f =(  0.5000000 )
                  (     1          0          0      )       (  0.5000000 )
                  (     0         -1          0      )       (  0.0000000 )

 cart.    s( 7) = (  0.0000000  1.0000000  0.0000000 )    f =(  0.5000000 )
                  (  0.0000000  0.0000000 -1.0000000 )       (  0.5000000 )
                  ( -1.0000000  0.0000000  0.0000000 )       (  0.0000000 )


      isym =  8     120 deg rotation - cart. axis [1,-1,1]       

 cryst.   s( 8) = (     0          0          1      )    f =(  0.5000000 )
                  (    -1          0          0      )       (  0.0000000 )
                  (     0         -1          0      )       ( -0.5000000 )

 cart.    s( 8) = (  0.0000000 -1.0000000  0.0000000 )    f =(  0.5000000 )
                  (  0.0000000  0.0000000 -1.0000000 )       (  0.0000000 )
                  (  1.0000000  0.0000000  0.0000000 )       ( -0.5000000 )


      isym =  9     120 deg rotation - cart. axis [1,1,1]        

 cryst.   s( 9) = (     0          1          0      )
                  (     0          0          1      )
                  (     1          0          0      )

 cart.    s( 9) = (  0.0000000  0.0000000  1.0000000 )
                  (  1.0000000  0.0000000  0.0000000 )
                  (  0.0000000  1.0000000  0.0000000 )


      isym = 10     120 deg rotation - cart. axis [-1,1,-1]      

 cryst.   s(10) = (     0         -1          0      )    f =(  0.5000000 )
                  (     0          0         -1      )       (  0.5000000 )
                  (     1          0          0      )       (  0.0000000 )

 cart.    s(10) = (  0.0000000  0.0000000  1.0000000 )    f =(  0.5000000 )
                  ( -1.0000000  0.0000000  0.0000000 )       (  0.5000000 )
                  (  0.0000000 -1.0000000  0.0000000 )       (  0.0000000 )


      isym = 11     120 deg rotation - cart. axis [1,-1,-1]      

 cryst.   s(11) = (     0         -1          0      )    f =(  0.5000000 )
                  (     0          0          1      )       (  0.0000000 )
                  (    -1          0          0      )       ( -0.5000000 )

 cart.    s(11) = (  0.0000000  0.0000000 -1.0000000 )    f =(  0.5000000 )
                  ( -1.0000000  0.0000000  0.0000000 )       (  0.0000000 )
                  (  0.0000000  1.0000000  0.0000000 )       ( -0.5000000 )


      isym = 12     120 deg rotation - cart. axis [-1,-1,1]      

 cryst.   s(12) = (     0          1          0      )    f =(  0.0000000 )
                  (     0          0         -1      )       ( -0.5000000 )
                  (    -1          0          0      )       (  0.5000000 )

 cart.    s(12) = (  0.0000000  0.0000000 -1.0000000 )    f =(  0.0000000 )
                  (  1.0000000  0.0000000  0.0000000 )       ( -0.5000000 )
                  (  0.0000000 -1.0000000  0.0000000 )       (  0.5000000 )


   Cartesian axes

     site n.     atom                  positions (alat units)
         1           Cr  tau(   1) = (   0.8640000   0.3640000   0.1360000  )
         2           Cr  tau(   2) = (   0.3640000   0.1360000   0.8640000  )
         3           Cr  tau(   3) = (   0.1360000   0.8640000   0.3640000  )
         4           Cr  tau(   4) = (   0.6360000   0.6360000   0.6360000  )
         5           Si  tau(   5) = (   0.1540000   0.6540000   0.8460000  )
         6           Si  tau(   6) = (   0.6540000   0.8460000   0.1540000  )
         7           Si  tau(   7) = (   0.8460000   0.1540000   0.6540000  )
         8           Si  tau(   8) = (   0.3460000   0.3460000   0.3460000  )

   Crystallographic axes

     site n.     atom                  positions (cryst. coord.)
         1           Cr  tau(   1) = (  0.8640000  0.3640000  0.1360000  )
         2           Cr  tau(   2) = (  0.3640000  0.1360000  0.8640000  )
         3           Cr  tau(   3) = (  0.1360000  0.8640000  0.3640000  )
         4           Cr  tau(   4) = (  0.6360000  0.6360000  0.6360000  )
         5           Si  tau(   5) = (  0.1540000  0.6540000  0.8460000  )
         6           Si  tau(   6) = (  0.6540000  0.8460000  0.1540000  )
         7           Si  tau(   7) = (  0.8460000  0.1540000  0.6540000  )
         8           Si  tau(   8) = (  0.3460000  0.3460000  0.3460000  )

     number of k points=    45  Methfessel-Paxton smearing, width (Ry)=  0.0080
                       cart. coord. in units 2pi/alat
        k(    1) = (   0.0000000   0.0000000   0.0000000), wk =   0.0019531
        k(    2) = (   0.0000000   0.0000000   0.1250000), wk =   0.0117188
        k(    3) = (   0.0000000   0.0000000   0.2500000), wk =   0.0117188
        k(    4) = (   0.0000000   0.0000000   0.3750000), wk =   0.0117188
        k(    5) = (   0.0000000   0.0000000  -0.5000000), wk =   0.0058594
        k(    6) = (   0.0000000   0.1250000   0.1250000), wk =   0.0234375
        k(    7) = (   0.0000000   0.1250000   0.2500000), wk =   0.0234375
        k(    8) = (   0.0000000   0.1250000   0.3750000), wk =   0.0234375
        k(    9) = (   0.0000000   0.1250000  -0.5000000), wk =   0.0117188
        k(   10) = (   0.0000000   0.2500000   0.2500000), wk =   0.0234375
        k(   11) = (   0.0000000   0.2500000   0.3750000), wk =   0.0234375
        k(   12) = (   0.0000000   0.2500000  -0.5000000), wk =   0.0117188
        k(   13) = (   0.0000000   0.3750000   0.3750000), wk =   0.0234375
        k(   14) = (   0.0000000   0.3750000  -0.5000000), wk =   0.0117188
        k(   15) = (   0.0000000  -0.5000000  -0.5000000), wk =   0.0058594
        k(   16) = (   0.1250000   0.1250000   0.1250000), wk =   0.0156250
        k(   17) = (   0.1250000   0.1250000   0.2500000), wk =   0.0468750
        k(   18) = (   0.1250000   0.1250000   0.3750000), wk =   0.0468750
        k(   19) = (   0.1250000   0.1250000  -0.5000000), wk =   0.0234375
        k(   20) = (   0.1250000   0.2500000   0.2500000), wk =   0.0468750
        k(   21) = (   0.1250000   0.2500000   0.3750000), wk =   0.0468750
        k(   22) = (   0.1250000   0.2500000  -0.5000000), wk =   0.0234375
        k(   23) = (   0.1250000   0.3750000   0.3750000), wk =   0.0468750
        k(   24) = (   0.1250000   0.3750000  -0.5000000), wk =   0.0234375
        k(   25) = (   0.1250000  -0.5000000  -0.5000000), wk =   0.0117188
        k(   26) = (   0.2500000   0.2500000   0.2500000), wk =   0.0156250
        k(   27) = (   0.2500000   0.2500000   0.3750000), wk =   0.0468750
        k(   28) = (   0.2500000   0.2500000  -0.5000000), wk =   0.0234375
        k(   29) = (   0.2500000   0.3750000   0.3750000), wk =   0.0468750
        k(   30) = (   0.2500000   0.3750000  -0.5000000), wk =   0.0234375
        k(   31) = (   0.2500000  -0.5000000  -0.5000000), wk =   0.0117188
        k(   32) = (   0.3750000   0.3750000   0.3750000), wk =   0.0156250
        k(   33) = (   0.3750000   0.3750000  -0.5000000), wk =   0.0234375
        k(   34) = (   0.3750000  -0.5000000  -0.5000000), wk =   0.0117188
        k(   35) = (  -0.5000000  -0.5000000  -0.5000000), wk =   0.0019531
        k(   36) = (   0.0000000   0.2500000   0.1250000), wk =   0.0234375
        k(   37) = (   0.0000000   0.3750000   0.1250000), wk =   0.0234375
        k(   38) = (   0.0000000  -0.5000000   0.1250000), wk =   0.0117188
        k(   39) = (   0.0000000   0.3750000   0.2500000), wk =   0.0234375
        k(   40) = (   0.0000000  -0.5000000   0.2500000), wk =   0.0117188
        k(   41) = (   0.0000000  -0.5000000   0.3750000), wk =   0.0117188
        k(   42) = (  -0.1250000   0.3750000   0.2500000), wk =   0.0468750
        k(   43) = (  -0.1250000  -0.5000000   0.2500000), wk =   0.0234375
        k(   44) = (  -0.1250000  -0.5000000   0.3750000), wk =   0.0234375
        k(   45) = (  -0.2500000  -0.5000000   0.3750000), wk =   0.0234375

                       cryst. coord.
        k(    1) = (   0.0000000   0.0000000   0.0000000), wk =   0.0019531
        k(    2) = (   0.0000000   0.0000000   0.1250000), wk =   0.0117188
        k(    3) = (   0.0000000   0.0000000   0.2500000), wk =   0.0117188
        k(    4) = (   0.0000000   0.0000000   0.3750000), wk =   0.0117188
        k(    5) = (   0.0000000   0.0000000  -0.5000000), wk =   0.0058594
        k(    6) = (   0.0000000   0.1250000   0.1250000), wk =   0.0234375
        k(    7) = (   0.0000000   0.1250000   0.2500000), wk =   0.0234375
        k(    8) = (   0.0000000   0.1250000   0.3750000), wk =   0.0234375
        k(    9) = (   0.0000000   0.1250000  -0.5000000), wk =   0.0117188
        k(   10) = (   0.0000000   0.2500000   0.2500000), wk =   0.0234375
        k(   11) = (   0.0000000   0.2500000   0.3750000), wk =   0.0234375
        k(   12) = (   0.0000000   0.2500000  -0.5000000), wk =   0.0117188
        k(   13) = (   0.0000000   0.3750000   0.3750000), wk =   0.0234375
        k(   14) = (   0.0000000   0.3750000  -0.5000000), wk =   0.0117188
        k(   15) = (   0.0000000  -0.5000000  -0.5000000), wk =   0.0058594
        k(   16) = (   0.1250000   0.1250000   0.1250000), wk =   0.0156250
        k(   17) = (   0.1250000   0.1250000   0.2500000), wk =   0.0468750
        k(   18) = (   0.1250000   0.1250000   0.3750000), wk =   0.0468750
        k(   19) = (   0.1250000   0.1250000  -0.5000000), wk =   0.0234375
        k(   20) = (   0.1250000   0.2500000   0.2500000), wk =   0.0468750
        k(   21) = (   0.1250000   0.2500000   0.3750000), wk =   0.0468750
        k(   22) = (   0.1250000   0.2500000  -0.5000000), wk =   0.0234375
        k(   23) = (   0.1250000   0.3750000   0.3750000), wk =   0.0468750
        k(   24) = (   0.1250000   0.3750000  -0.5000000), wk =   0.0234375
        k(   25) = (   0.1250000  -0.5000000  -0.5000000), wk =   0.0117188
        k(   26) = (   0.2500000   0.2500000   0.2500000), wk =   0.0156250
        k(   27) = (   0.2500000   0.2500000   0.3750000), wk =   0.0468750
        k(   28) = (   0.2500000   0.2500000  -0.5000000), wk =   0.0234375
        k(   29) = (   0.2500000   0.3750000   0.3750000), wk =   0.0468750
        k(   30) = (   0.2500000   0.3750000  -0.5000000), wk =   0.0234375
        k(   31) = (   0.2500000  -0.5000000  -0.5000000), wk =   0.0117188
        k(   32) = (   0.3750000   0.3750000   0.3750000), wk =   0.0156250
        k(   33) = (   0.3750000   0.3750000  -0.5000000), wk =   0.0234375
        k(   34) = (   0.3750000  -0.5000000  -0.5000000), wk =   0.0117188
        k(   35) = (  -0.5000000  -0.5000000  -0.5000000), wk =   0.0019531
        k(   36) = (   0.0000000   0.2500000   0.1250000), wk =   0.0234375
        k(   37) = (   0.0000000   0.3750000   0.1250000), wk =   0.0234375
        k(   38) = (   0.0000000  -0.5000000   0.1250000), wk =   0.0117188
        k(   39) = (   0.0000000   0.3750000   0.2500000), wk =   0.0234375
        k(   40) = (   0.0000000  -0.5000000   0.2500000), wk =   0.0117188
        k(   41) = (   0.0000000  -0.5000000   0.3750000), wk =   0.0117188
        k(   42) = (  -0.1250000   0.3750000   0.2500000), wk =   0.0468750
        k(   43) = (  -0.1250000  -0.5000000   0.2500000), wk =   0.0234375
        k(   44) = (  -0.1250000  -0.5000000   0.3750000), wk =   0.0234375
        k(   45) = (  -0.2500000  -0.5000000   0.3750000), wk =   0.0234375

     Dense  grid:   304867 G-vectors     FFT dimensions: (  90,  90,  90)

     Smooth grid:    77053 G-vectors     FFT dimensions: (  54,  54,  54)

     Dynamical RAM for                 wfc:       1.06 MB

     Dynamical RAM for     wfc (w. buffer):      48.53 MB

     Dynamical RAM for           str. fact:       0.39 MB

     Dynamical RAM for           local pot:       0.00 MB

     Dynamical RAM for          nlocal pot:       1.67 MB

     Dynamical RAM for                qrad:      12.61 MB

     Dynamical RAM for          rho,v,vnew:       5.29 MB

     Dynamical RAM for               rhoin:       1.76 MB

     Dynamical RAM for            rho*nmix:      12.41 MB

     Dynamical RAM for           G-vectors:       0.75 MB

     Dynamical RAM for          h,s,v(r/c):       1.35 MB

     Dynamical RAM for          <psi|beta>:       0.71 MB

     Dynamical RAM for                 psi:       2.11 MB

     Dynamical RAM for                hpsi:       2.11 MB

     Dynamical RAM for                spsi:       2.11 MB

     Dynamical RAM for      wfcinit/wfcrot:       2.35 MB

     Dynamical RAM for           addusdens:     119.02 MB

     Dynamical RAM for          addusforce:     120.34 MB

     Dynamical RAM for         addusstress:     121.74 MB

     Estimated static dynamical RAM per process >      85.97 MB

     Estimated max dynamical RAM per process >     207.70 MB

     Estimated total dynamical RAM >       4.87 GB

     Initial potential from superposition of free atoms

     starting charge   71.99469, renormalised to   72.00000
     Starting wfcs are  112 randomized atomic wfcs
     Checking if some PAW data can be deallocated... 
       PAW data deallocated on   12 nodes for type:  1
       PAW data deallocated on   12 nodes for type:  2

     total cpu time spent up to now is       11.2 secs

     Self-consistent Calculation

     iteration #  1     ecut=    90.00 Ry     beta= 0.70
     Davidson diagonalization with overlap
     ethr =  1.00E-02,  avg # of iterations =  2.0

     Threshold (ethr) on eigenvalues was too large:
     Diagonalizing with lowered threshold

     Davidson diagonalization with overlap
     ethr =  2.09E-04,  avg # of iterations =  4.4

     total cpu time spent up to now is       58.1 secs

     total energy              =   -1180.30988830 Ry
     estimated scf accuracy    <       0.18975957 Ry

     iteration #  2     ecut=    90.00 Ry     beta= 0.70
     Davidson diagonalization with overlap
     ethr =  2.64E-04,  avg # of iterations =  3.2

     total cpu time spent up to now is       82.1 secs

     total energy              =   -1180.31348748 Ry
     estimated scf accuracy    <       0.08473880 Ry

     iteration #  3     ecut=    90.00 Ry     beta= 0.70
     Davidson diagonalization with overlap
     ethr =  1.18E-04,  avg # of iterations =  5.0

     total cpu time spent up to now is      111.2 secs

     total energy              =   -1180.32592885 Ry
     estimated scf accuracy    <       0.16602268 Ry

     iteration #  4     ecut=    90.00 Ry     beta= 0.70
     Davidson diagonalization with overlap
     ethr =  1.18E-04,  avg # of iterations =  4.1

     total cpu time spent up to now is      134.6 secs

     total energy              =   -1180.35004430 Ry
     estimated scf accuracy    <       0.00023212 Ry

     iteration #  5     ecut=    90.00 Ry     beta= 0.70
     Davidson diagonalization with overlap
     ethr =  3.22E-07,  avg # of iterations =  8.8

     total cpu time spent up to now is      172.9 secs

     total energy              =   -1180.35068984 Ry
     estimated scf accuracy    <       0.00041913 Ry

     iteration #  6     ecut=    90.00 Ry     beta= 0.70
     Davidson diagonalization with overlap
     ethr =  3.22E-07,  avg # of iterations =  4.3

     total cpu time spent up to now is      197.1 secs

     total energy              =   -1180.35076780 Ry
     estimated scf accuracy    <       0.00001424 Ry

     iteration #  7     ecut=    90.00 Ry     beta= 0.70
     Davidson diagonalization with overlap
     ethr =  1.98E-08,  avg # of iterations =  3.2

     total cpu time spent up to now is      218.0 secs

     total energy              =   -1180.35076864 Ry
     estimated scf accuracy    <       0.00000337 Ry

     iteration #  8     ecut=    90.00 Ry     beta= 0.70
     Davidson diagonalization with overlap
     ethr =  4.68E-09,  avg # of iterations =  4.2

     total cpu time spent up to now is      243.2 secs

     total energy              =   -1180.35076994 Ry
     estimated scf accuracy    <       0.00000130 Ry

     iteration #  9     ecut=    90.00 Ry     beta= 0.70
     Davidson diagonalization with overlap
     ethr =  1.81E-09,  avg # of iterations =  2.2

     total cpu time spent up to now is      261.8 secs

     End of self-consistent calculation

          k = 0.0000 0.0000 0.0000 (  9771 PWs)   bands (ev):

   -56.5167 -56.5167 -56.4820 -56.4820 -56.4820 -56.4820 -56.4820 -56.4820
   -28.5827 -28.5827 -28.5746 -28.5746 -28.5746 -28.5746 -28.4853 -28.4853
   -27.6185 -27.6185 -27.6185 -27.6185 -27.5412 -27.5412 -27.5412 -27.5412
   -27.5319 -27.5319 -27.4509 -27.4509 -27.4509 -27.4509 -27.4489 -27.4489
     2.6989   2.6989   7.4570   7.4570   7.4570   7.4570   7.4662   7.4662
    10.5367  10.5367  10.5446  10.5446  10.5446  10.5446  11.9123  11.9123
    11.9123  11.9123  11.9234  11.9234  12.6035  12.6035  12.7721  12.7721
    12.7721  12.7721  13.1419  13.1419  13.1419  13.1419  13.1431  13.1431
    13.6702  13.6702  13.6702  13.6702  13.6741  13.6741  15.5508  15.5508
    15.5822  15.5822  15.5822  15.5822  15.7628  15.7628  15.7628  15.7628
    16.6659  16.6659  16.6962  16.6962  16.6962  16.6962

     occupation numbers 
     1.0000   1.0000   1.0000   1.0000   1.0000   1.0000   1.0000   1.0000
     1.0000   1.0000   1.0000   1.0000   1.0000   1.0000   1.0000   1.0000
     1.0000   1.0000   1.0000   1.0000   1.0000   1.0000   1.0000   1.0000
     1.0000   1.0000   1.0000   1.0000   1.0000   1.0000   1.0000   1.0000
     1.0000   1.0000   1.0000   1.0000   1.0000   1.0000   1.0000   1.0000
     1.0000   1.0000   1.0000   1.0000   1.0000   1.0000   1.0000   1.0000
     1.0000   1.0000   1.0000   1.0000   1.0000   1.0000   1.0000   1.0000
     1.0000   1.0000   1.0000   1.0000   1.0000   1.0000   1.0000   1.0000
     1.0000   1.0000   1.0000   1.0000   1.0000   1.0000  -0.0000  -0.0000
    -0.0000  -0.0000  -0.0000  -0.0000  -0.0000  -0.0000  -0.0000  -0.0000
    -0.0000  -0.0000  -0.0000  -0.0000  -0.0000  -0.0000

          k = 0.0000 0.0000 0.1250 (  9667 PWs)   bands (ev):

   -56.5157 -56.5157 -56.4860 -56.4860 -56.4816 -56.4816 -56.4793 -56.4793
   -28.5888 -28.5813 -28.5785 -28.5779 -28.5680 -28.5648 -28.4882 -28.4882
   -27.6319 -27.6255 -27.6088 -27.6026 -27.5497 -27.5467 -27.5394 -27.5359
   -27.5345 -27.5196 -27.4581 -27.4566 -27.4539 -27.4489 -27.4482 -27.4432
     2.8072   2.8072   6.7955   6.7987   7.5181   7.5196   7.9728   7.9815
    10.0747  10.0799  10.6131  10.6148  11.0389  11.0407  11.3211  11.3212
    11.6510  11.6549  12.5300  12.5367  12.5617  12.5799  12.7796  12.7868
    12.9233  12.9246  13.1122  13.1143  13.1767  13.1771  13.2078  13.2083
    13.5207  13.5284  13.6522  13.6537  13.8985  13.8987  15.3972  15.4154
    15.4439  15.4536  15.7198  15.7233  15.7388  15.7505  15.7635  15.7694
    16.4743  16.4913  16.6343  16.6391  16.8965  16.9170

     occupation numbers 
     1.0000   1.0000   1.0000   1.0000   1.0000   1.0000   1.0000   1.0000
     1.0000   1.0000   1.0000   1.0000   1.0000   1.0000   1.0000   1.0000
     1.0000   1.0000   1.0000   1.0000   1.0000   1.0000   1.0000   1.0000
     1.0000   1.0000   1.0000   1.0000   1.0000   1.0000   1.0000   1.0000
     1.0000   1.0000   1.0000   1.0000   1.0000   1.0000   1.0000   1.0000
     1.0000   1.0000   1.0000   1.0000   1.0000   1.0000   1.0000   1.0000
     1.0000   1.0000   1.0000   1.0000   1.0000   1.0000   1.0000   1.0000
     1.0000   1.0000   1.0000   1.0000   1.0000   1.0000   1.0000   1.0000
     1.0000   1.0000   1.0000   1.0000   1.0000   1.0000  -0.0000  -0.0000
    -0.0000  -0.0000  -0.0000  -0.0000  -0.0000  -0.0000  -0.0000  -0.0000
    -0.0000  -0.0000  -0.0000  -0.0000  -0.0000  -0.0000

          k = 0.0000 0.0000 0.2500 (  9618 PWs)   bands (ev):

   -56.5128 -56.5128 -56.4911 -56.4911 -56.4808 -56.4808 -56.4779 -56.4779
   -28.5923 -28.5849 -28.5819 -28.5793 -28.5554 -28.5523 -28.4964 -28.4962
   -27.6404 -27.6316 -27.5957 -27.5884 -27.5589 -27.5485 -27.5374 -27.5363
   -27.5314 -27.5052 -27.4697 -27.4615 -27.4596 -27.4500 -27.4471 -27.4403
     3.1274   3.1274   5.9921   5.9936   7.6896   7.6926   8.3701   8.3802
     9.7438   9.7451  10.7560  10.7613  10.8666  10.8754  11.1955  11.2029
    11.5680  11.5687  12.2655  12.2804  12.8664  12.8730  12.9122  12.9340
    13.1188  13.1230  13.1280  13.1334  13.2501  13.2507  13.2813  13.2852
    13.5432  13.5466  13.6973  13.7049  14.0458  14.0463  15.0728  15.1014
    15.3790  15.3795  15.6141  15.6293  15.7365  15.7607  15.8507  15.8747
    16.2855  16.3002  16.4938  16.5053  17.1880  17.2082

     occupation numbers 
     1.0000   1.0000   1.0000   1.0000   1.0000   1.0000   1.0000   1.0000
     1.0000   1.0000   1.0000   1.0000   1.0000   1.0000   1.0000   1.0000
     1.0000   1.0000   1.0000   1.0000   1.0000   1.0000   1.0000   1.0000
     1.0000   1.0000   1.0000   1.0000   1.0000   1.0000   1.0000   1.0000
     1.0000   1.0000   1.0000   1.0000   1.0000   1.0000   1.0000   1.0000
     1.0000   1.0000   1.0000   1.0000   1.0000   1.0000   1.0000   1.0000
     1.0000   1.0000   1.0000   1.0000   1.0000   1.0000   1.0000   1.0000
     1.0000   1.0000   1.0000   1.0000   1.0000   1.0000   1.0000   1.0000
     1.0000   1.0000   1.0000   1.0000   1.0000   1.0000  -0.0329  -0.0329
    -0.0000  -0.0000  -0.0000  -0.0000  -0.0000  -0.0000  -0.0000  -0.0000
    -0.0000  -0.0000  -0.0000  -0.0000  -0.0000  -0.0000

          k = 0.0000 0.0000 0.3750 (  9662 PWs)   bands (ev):

   -56.5083 -56.5083 -56.4969 -56.4969 -56.4796 -56.4796 -56.4777 -56.4777
   -28.5927 -28.5864 -28.5856 -28.5817 -28.5401 -28.5378 -28.5089 -28.5082
   -27.6436 -27.6375 -27.5819 -27.5772 -27.5674 -27.5454 -27.5453 -27.5332
   -27.5243 -27.4910 -27.4859 -27.4676 -27.4611 -27.4530 -27.4456 -27.4406
     3.6440   3.6440   5.1359   5.1365   7.9592   7.9638   8.5100   8.5189
     9.6771   9.6799  10.5128  10.5134  10.7728  10.7860  11.0295  11.0314
    12.0045  12.0068  12.1208  12.1355  12.7678  12.7831  12.9433  12.9561
    13.0778  13.0853  13.1838  13.1878  13.2451  13.2483  13.3243  13.3277
    13.5401  13.5405  13.9308  13.9352  14.2204  14.2338  14.8128  14.8477
    15.3554  15.3671  15.4942  15.5132  15.7512  15.7807  15.8453  15.8705
    16.1648  16.1806  16.3083  16.3221  17.3508  17.3616

     occupation numbers 
     1.0000   1.0000   1.0000   1.0000   1.0000   1.0000   1.0000   1.0000
     1.0000   1.0000   1.0000   1.0000   1.0000   1.0000   1.0000   1.0000
     1.0000   1.0000   1.0000   1.0000   1.0000   1.0000   1.0000   1.0000
     1.0000   1.0000   1.0000   1.0000   1.0000   1.0000   1.0000   1.0000
     1.0000   1.0000   1.0000   1.0000   1.0000   1.0000   1.0000   1.0000
     1.0000   1.0000   1.0000   1.0000   1.0000   1.0000   1.0000   1.0000
     1.0000   1.0000   1.0000   1.0000   1.0000   1.0000   1.0000   1.0000
     1.0000   1.0000   1.0000   1.0000   1.0000   1.0000   1.0000   1.0000
     1.0000   1.0000   1.0000   1.0000   1.0000   1.0000   1.0350   1.0208
    -0.0000  -0.0000  -0.0000  -0.0000  -0.0000  -0.0000  -0.0000  -0.0000
    -0.0000  -0.0000  -0.0000  -0.0000  -0.0000  -0.0000

          k = 0.0000 0.0000-0.5000 (  9658 PWs)   bands (ev):

   -56.5028 -56.5028 -56.5028 -56.5028 -56.4784 -56.4784 -56.4784 -56.4784
   -28.5904 -28.5904 -28.5842 -28.5842 -28.5241 -28.5241 -28.5226 -28.5226
   -27.6422 -27.6422 -27.5746 -27.5746 -27.5607 -27.5607 -27.5390 -27.5390
   -27.5052 -27.5052 -27.4781 -27.4781 -27.4573 -27.4573 -27.4430 -27.4430
     4.3289   4.3289   4.3291   4.3291   8.2824   8.2824   8.2889   8.2889
    10.0174  10.0174  10.0214  10.0214  10.8981  10.8981  10.9094  10.9094
    12.2472  12.2472  12.2538  12.2538  12.6843  12.6843  12.6967  12.6967
    13.1413  13.1413  13.1417  13.1417  13.2357  13.2357  13.2394  13.2394
    13.7824  13.7824  13.7855  13.7855  14.5659  14.5659  14.5944  14.5944
    15.3990  15.3990  15.4168  15.4168  15.8042  15.8042  15.8339  15.8339
    16.1657  16.1657  16.1794  16.1794  17.5426  17.5474

     occupation numbers 
     1.0000   1.0000   1.0000   1.0000   1.0000   1.0000   1.0000   1.0000
     1.0000   1.0000   1.0000   1.0000   1.0000   1.0000   1.0000   1.0000
     1.0000   1.0000   1.0000   1.0000   1.0000   1.0000   1.0000   1.0000
     1.0000   1.0000   1.0000   1.0000   1.0000   1.0000   1.0000   1.0000
     1.0000   1.0000   1.0000   1.0000   1.0000   1.0000   1.0000   1.0000
     1.0000   1.0000   1.0000   1.0000   1.0000   1.0000   1.0000   1.0000
     1.0000   1.0000   1.0000   1.0000   1.0000   1.0000   1.0000   1.0000
     1.0000   1.0000   1.0000   1.0000   1.0000   1.0000   1.0000   1.0000
     1.0000   1.0000   1.0000   1.0000   1.0000   1.0000   1.0000   1.0000
    -0.0000  -0.0000  -0.0000  -0.0000  -0.0000  -0.0000  -0.0000  -0.0000
    -0.0000  -0.0000  -0.0000  -0.0000  -0.0000  -0.0000

          k = 0.0000 0.1250 0.1250 (  9657 PWs)   bands (ev):

   -56.5147 -56.5147 -56.4875 -56.4875 -56.4820 -56.4820 -56.4784 -56.4784
   -28.5908 -28.5841 -28.5772 -28.5764 -28.5653 -28.5611 -28.4910 -28.4909
   -27.6337 -27.6300 -27.6018 -27.5980 -27.5523 -27.5479 -27.5419 -27.5402
   -27.5281 -27.5131 -27.4632 -27.4616 -27.4553 -27.4500 -27.4451 -27.4407
     2.9148   2.9148   6.6456   6.6504   7.3154   7.3194   8.2193   8.2251
     9.9472   9.9522  10.6664  10.6724  10.8549  10.8595  11.2388  11.2420
    11.8053  11.8064  12.4439  12.4550  12.5948  12.6026  12.9028  12.9089
    13.0101  13.0194  13.1589  13.1599  13.1642  13.1691  13.2657  13.2676
    13.4633  13.4697  13.6770  13.6885  13.9937  13.9991  15.3443  15.3566
    15.3924  15.4016  15.6222  15.6316  15.7212  15.7375  15.7920  15.8136
    16.3740  16.3922  16.6468  16.6542  16.9387  16.9680

     occupation numbers 
     1.0000   1.0000   1.0000   1.0000   1.0000   1.0000   1.0000   1.0000
     1.0000   1.0000   1.0000   1.0000   1.0000   1.0000   1.0000   1.0000
     1.0000   1.0000   1.0000   1.0000   1.0000   1.0000   1.0000   1.0000
     1.0000   1.0000   1.0000   1.0000   1.0000   1.0000   1.0000   1.0000
     1.0000   1.0000   1.0000   1.0000   1.0000   1.0000   1.0000   1.0000
     1.0000   1.0000   1.0000   1.0000   1.0000   1.0000   1.0000   1.0000
     1.0000   1.0000   1.0000   1.0000   1.0000   1.0000   1.0000   1.0000
     1.0000   1.0000   1.0000   1.0000   1.0000   1.0000   1.0000   1.0000
     1.0000   1.0000   1.0000   1.0000   1.0000   1.0000  -0.0000  -0.0000
    -0.0000  -0.0000  -0.0000  -0.0000  -0.0000  -0.0000  -0.0000  -0.0000
    -0.0000  -0.0000  -0.0000  -0.0000  -0.0000  -0.0000

          k = 0.0000 0.1250 0.2500 (  9633 PWs)   bands (ev):

   -56.5119 -56.5119 -56.4915 -56.4915 -56.4814 -56.4814 -56.4777 -56.4777
   -28.5926 -28.5863 -28.5791 -28.5777 -28.5550 -28.5516 -28.4989 -28.4987
   -27.6391 -27.6327 -27.5920 -27.5866 -27.5586 -27.5506 -27.5421 -27.5392
   -27.5258 -27.5008 -27.4755 -27.4667 -27.4594 -27.4523 -27.4424 -27.4376
     3.2326   3.2327   6.0269   6.0293   7.3763   7.3790   8.4793   8.4844
     9.7444   9.7459  10.4129  10.4167  10.8567  10.8575  11.4948  11.5000
    11.5884  11.5899  12.3108  12.3206  12.6388  12.6414  13.0338  13.0412
    13.0728  13.0842  13.2019  13.2081  13.2804  13.2816  13.3797  13.3840
    13.5196  13.5261  13.8042  13.8195  14.1005  14.1076  15.0887  15.1157
    15.2968  15.3118  15.5052  15.5198  15.6868  15.7088  15.8379  15.8636
    16.2237  16.2389  16.5276  16.5398  17.1521  17.1858

     occupation numbers 
     1.0000   1.0000   1.0000   1.0000   1.0000   1.0000   1.0000   1.0000
     1.0000   1.0000   1.0000   1.0000   1.0000   1.0000   1.0000   1.0000
     1.0000   1.0000   1.0000   1.0000   1.0000   1.0000   1.0000   1.0000
     1.0000   1.0000   1.0000   1.0000   1.0000   1.0000   1.0000   1.0000
     1.0000   1.0000   1.0000   1.0000   1.0000   1.0000   1.0000   1.0000
     1.0000   1.0000   1.0000   1.0000   1.0000   1.0000   1.0000   1.0000
     1.0000   1.0000   1.0000   1.0000   1.0000   1.0000   1.0000   1.0000
     1.0000   1.0000   1.0000   1.0000   1.0000   1.0000   1.0000   1.0000
     1.0000   1.0000   1.0000   1.0000   1.0000   1.0000  -0.0354  -0.0277
    -0.0000  -0.0000  -0.0000  -0.0000  -0.0000  -0.0000  -0.0000  -0.0000
    -0.0000  -0.0000  -0.0000  -0.0000  -0.0000  -0.0000

          k = 0.0000 0.1250 0.3750 (  9657 PWs)   bands (ev):

   -56.5076 -56.5076 -56.4968 -56.4968 -56.4802 -56.4802 -56.4779 -56.4779
   -28.5919 -28.5866 -28.5831 -28.5802 -28.5409 -28.5386 -28.5110 -28.5104
   -27.6413 -27.6361 -27.5818 -27.5756 -27.5669 -27.5502 -27.5447 -27.5317
   -27.5263 -27.4926 -27.4870 -27.4700 -27.4625 -27.4563 -27.4403 -27.4370
     3.7448   3.7450   5.2139   5.2149   7.6679   7.6698   8.4240   8.4278
     9.7362   9.7395  10.2162  10.2203  11.0142  11.0202  11.1803  11.1942
    11.8664  11.8717  12.1811  12.1908  12.6387  12.6453  12.8659  12.8758
    13.0649  13.0712  13.2695  13.2743  13.3335  13.3354  13.4464  13.4493
    13.6023  13.6092  13.9673  13.9741  14.2910  14.3082  14.8250  14.8586
    15.2779  15.2937  15.3775  15.3900  15.6912  15.7174  15.8248  15.8543
    16.1470  16.1556  16.3589  16.3724  17.3037  17.3275

     occupation numbers 
     1.0000   1.0000   1.0000   1.0000   1.0000   1.0000   1.0000   1.0000
     1.0000   1.0000   1.0000   1.0000   1.0000   1.0000   1.0000   1.0000
     1.0000   1.0000   1.0000   1.0000   1.0000   1.0000   1.0000   1.0000
     1.0000   1.0000   1.0000   1.0000   1.0000   1.0000   1.0000   1.0000
     1.0000   1.0000   1.0000   1.0000   1.0000   1.0000   1.0000   1.0000
     1.0000   1.0000   1.0000   1.0000   1.0000   1.0000   1.0000   1.0000
     1.0000   1.0000   1.0000   1.0000   1.0000   1.0000   1.0000   1.0000
     1.0000   1.0000   1.0000   1.0000   1.0000   1.0000   1.0000   1.0000
     1.0000   1.0000   1.0000   1.0000   1.0000   1.0000   1.0350   1.0043
    -0.0001  -0.0000  -0.0000  -0.0000  -0.0000  -0.0000  -0.0000  -0.0000
    -0.0000  -0.0000  -0.0000  -0.0000  -0.0000  -0.0000

          k = 0.0000 0.1250-0.5000 (  9664 PWs)   bands (ev):

   -56.5024 -56.5024 -56.5024 -56.5024 -56.4789 -56.4789 -56.4789 -56.4789
   -28.5891 -28.5891 -28.5830 -28.5830 -28.5261 -28.5261 -28.5238 -28.5238
   -27.6397 -27.6397 -27.5746 -27.5746 -27.5614 -27.5614 -27.5383 -27.5383
   -27.5098 -27.5098 -27.4771 -27.4771 -27.4605 -27.4605 -27.4383 -27.4383
     4.4221   4.4221   4.4226   4.4226   8.0586   8.0586   8.0655   8.0655
     9.9962   9.9962  10.0006  10.0006  11.0367  11.0367  11.0508  11.0508
    12.1471  12.1471  12.1525  12.1525  12.5969  12.5969  12.6132  12.6132
    13.2261  13.2261  13.2286  13.2286  13.3313  13.3313  13.3326  13.3326
    13.8294  13.8294  13.8331  13.8331  14.5992  14.5992  14.6295  14.6295
    15.3005  15.3005  15.3163  15.3163  15.7553  15.7553  15.7851  15.7851
    16.2050  16.2050  16.2160  16.2160  17.5189  17.5263

     occupation numbers 
     1.0000   1.0000   1.0000   1.0000   1.0000   1.0000   1.0000   1.0000
     1.0000   1.0000   1.0000   1.0000   1.0000   1.0000   1.0000   1.0000
     1.0000   1.0000   1.0000   1.0000   1.0000   1.0000   1.0000   1.0000
     1.0000   1.0000   1.0000   1.0000   1.0000   1.0000   1.0000   1.0000
     1.0000   1.0000   1.0000   1.0000   1.0000   1.0000   1.0000   1.0000
     1.0000   1.0000   1.0000   1.0000   1.0000   1.0000   1.0000   1.0000
     1.0000   1.0000   1.0000   1.0000   1.0000   1.0000   1.0000   1.0000
     1.0000   1.0000   1.0000   1.0000   1.0000   1.0000   1.0000   1.0000
     1.0000   1.0000   1.0000   1.0000   1.0000   1.0000   1.0001   1.0001
    -0.0000  -0.0000  -0.0000  -0.0000  -0.0000  -0.0000  -0.0000  -0.0000
    -0.0000  -0.0000  -0.0000  -0.0000  -0.0000  -0.0000

          k = 0.0000 0.2500 0.2500 (  9661 PWs)   bands (ev):

   -56.5094 -56.5094 -56.4933 -56.4933 -56.4820 -56.4820 -56.4778 -56.4778
   -28.5919 -28.5865 -28.5768 -28.5761 -28.5515 -28.5479 -28.5062 -28.5058
   -27.6366 -27.6334 -27.5851 -27.5827 -27.5591 -27.5550 -27.5426 -27.5419
   -27.5225 -27.4951 -27.4850 -27.4754 -27.4645 -27.4486 -27.4382 -27.4344
     3.5429   3.5430   5.9655   5.9687   6.9413   6.9453   8.4362   8.4412
     9.7518   9.7550  10.1866  10.1918  10.9255  10.9280  11.3505  11.3516
    11.8599  11.8637  12.2864  12.2898  12.5058  12.5151  12.9031  12.9107
    13.1467  13.1560  13.2693  13.2788  13.4407  13.4422  13.5194  13.5286
    13.5704  13.5809  13.9839  13.9962  14.2200  14.2256  15.0458  15.0662
    15.1391  15.1637  15.2922  15.3037  15.6129  15.6380  15.7616  15.7905
    16.1593  16.1703  16.5122  16.5229  17.1852  17.2280

     occupation numbers 
     1.0000   1.0000   1.0000   1.0000   1.0000   1.0000   1.0000   1.0000
     1.0000   1.0000   1.0000   1.0000   1.0000   1.0000   1.0000   1.0000
     1.0000   1.0000   1.0000   1.0000   1.0000   1.0000   1.0000   1.0000
     1.0000   1.0000   1.0000   1.0000   1.0000   1.0000   1.0000   1.0000
     1.0000   1.0000   1.0000   1.0000   1.0000   1.0000   1.0000   1.0000
     1.0000   1.0000   1.0000   1.0000   1.0000   1.0000   1.0000   1.0000
     1.0000   1.0000   1.0000   1.0000   1.0000   1.0000   1.0000   1.0000
     1.0000   1.0000   1.0000   1.0000   1.0000   1.0000   1.0000   1.0000
     1.0000   1.0000   1.0000   1.0000   1.0000   1.0000  -0.0032  -0.0292
    -0.0179  -0.0097  -0.0000  -0.0000  -0.0000  -0.0000  -0.0000  -0.0000
    -0.0000  -0.0000  -0.0000  -0.0000  -0.0000  -0.0000

          k = 0.0000 0.2500 0.3750 (  9639 PWs)   bands (ev):

   -56.5057 -56.5057 -56.4967 -56.4967 -56.4814 -56.4814 -56.4787 -56.4787
   -28.5893 -28.5848 -28.5790 -28.5771 -28.5422 -28.5399 -28.5168 -28.5163
   -27.6348 -27.6321 -27.5838 -27.5767 -27.5636 -27.5530 -27.5434 -27.5332
   -27.5263 -27.5004 -27.4916 -27.4817 -27.4611 -27.4489 -27.4353 -27.4328
     4.0410   4.0414   5.4175   5.4193   7.0450   7.0481   8.0210   8.0243
     9.9170   9.9203  10.1871  10.1904  11.0281  11.0319  11.3806  11.3881
    11.8896  11.8916  12.0246  12.0288  12.4327  12.4437  12.6520  12.6620
    13.2333  13.2428  13.3288  13.3341  13.4376  13.4414  13.6529  13.6558
    13.7899  13.7934  14.0663  14.0758  14.4540  14.4794  14.8302  14.8570
    15.0706  15.0917  15.1459  15.1513  15.5744  15.5989  15.6785  15.7106
    16.2000  16.2069  16.4541  16.4645  17.1901  17.2189

     occupation numbers 
     1.0000   1.0000   1.0000   1.0000   1.0000   1.0000   1.0000   1.0000
     1.0000   1.0000   1.0000   1.0000   1.0000   1.0000   1.0000   1.0000
     1.0000   1.0000   1.0000   1.0000   1.0000   1.0000   1.0000   1.0000
     1.0000   1.0000   1.0000   1.0000   1.0000   1.0000   1.0000   1.0000
     1.0000   1.0000   1.0000   1.0000   1.0000   1.0000   1.0000   1.0000
     1.0000   1.0000   1.0000   1.0000   1.0000   1.0000   1.0000   1.0000
     1.0000   1.0000   1.0000   1.0000   1.0000   1.0000   1.0000   1.0000
     1.0000   1.0000   1.0000   1.0000   1.0000   1.0000   1.0000   1.0000
     1.0000   1.0000   1.0000   1.0000   1.0000   1.0000   1.0337   1.0073
    -0.0318  -0.0350  -0.0154  -0.0134  -0.0000  -0.0000  -0.0000  -0.0000
    -0.0000  -0.0000  -0.0000  -0.0000  -0.0000  -0.0000

          k = 0.0000 0.2500-0.5000 (  9686 PWs)   bands (ev):

   -56.5012 -56.5012 -56.5012 -56.5012 -56.4801 -56.4801 -56.4801 -56.4801
   -28.5854 -28.5854 -28.5798 -28.5798 -28.5306 -28.5306 -28.5274 -28.5274
   -27.6327 -27.6327 -27.5804 -27.5804 -27.5579 -27.5579 -27.5366 -27.5366
   -27.5168 -27.5168 -27.4876 -27.4876 -27.4538 -27.4538 -27.4333 -27.4333
     4.6919   4.6919   4.6929   4.6929   7.4837   7.4837   7.4899   7.4899
    10.1294  10.1294  10.1324  10.1324  11.2001  11.2001  11.2118  11.2118
    11.9549  11.9549  11.9568  11.9568  12.4182  12.4182  12.4306  12.4306
    13.3454  13.3454  13.3519  13.3519  13.5152  13.5152  13.5213  13.5213
    13.9873  13.9873  13.9929  13.9929  14.6543  14.6543  14.6847  14.6847
    15.0835  15.0835  15.0951  15.0951  15.6015  15.6015  15.6304  15.6304
    16.3324  16.3324  16.3434  16.3434  17.3577  17.3608

     occupation numbers 
     1.0000   1.0000   1.0000   1.0000   1.0000   1.0000   1.0000   1.0000
     1.0000   1.0000   1.0000   1.0000   1.0000   1.0000   1.0000   1.0000
     1.0000   1.0000   1.0000   1.0000   1.0000   1.0000   1.0000   1.0000
     1.0000   1.0000   1.0000   1.0000   1.0000   1.0000   1.0000   1.0000
     1.0000   1.0000   1.0000   1.0000   1.0000   1.0000   1.0000   1.0000
     1.0000   1.0000   1.0000   1.0000   1.0000   1.0000   1.0000   1.0000
     1.0000   1.0000   1.0000   1.0000   1.0000   1.0000   1.0000   1.0000
     1.0000   1.0000   1.0000   1.0000   1.0000   1.0000   1.0000   1.0000
     1.0000   1.0000   1.0000   1.0000   1.0004   1.0004   1.0014   1.0014
    -0.0354  -0.0354  -0.0345  -0.0345  -0.0000  -0.0000  -0.0000  -0.0000
    -0.0000  -0.0000  -0.0000  -0.0000  -0.0000  -0.0000

          k = 0.0000 0.3750 0.3750 (  9632 PWs)   bands (ev):

   -56.5028 -56.5028 -56.4976 -56.4976 -56.4820 -56.4820 -56.4800 -56.4800
   -28.5850 -28.5815 -28.5766 -28.5757 -28.5408 -28.5388 -28.5254 -28.5245
   -27.6264 -27.6260 -27.5898 -27.5858 -27.5553 -27.5498 -27.5394 -27.5328
   -27.5277 -27.5064 -27.5040 -27.4945 -27.4517 -27.4423 -27.4340 -27.4313
     4.5100   4.5106   5.5236   5.5252   6.5730   6.5751   7.4027   7.4058
    10.2462  10.2475  10.4517  10.4529  10.9113  10.9121  11.2394  11.2425
    11.7860  11.7890  12.0555  12.0595  12.2634  12.2658  12.4686  12.4762
    13.2319  13.2395  13.3885  13.3900  13.6716  13.6721  13.8195  13.8244
    14.0549  14.0669  14.1495  14.1604  14.5568  14.5768  14.7398  14.7518
    14.8525  14.8716  14.9545  14.9778  15.4751  15.4947  15.5157  15.5430
    16.3212  16.3317  16.5104  16.5159  17.0888  17.1112

     occupation numbers 
     1.0000   1.0000   1.0000   1.0000   1.0000   1.0000   1.0000   1.0000
     1.0000   1.0000   1.0000   1.0000   1.0000   1.0000   1.0000   1.0000
     1.0000   1.0000   1.0000   1.0000   1.0000   1.0000   1.0000   1.0000
     1.0000   1.0000   1.0000   1.0000   1.0000   1.0000   1.0000   1.0000
     1.0000   1.0000   1.0000   1.0000   1.0000   1.0000   1.0000   1.0000
     1.0000   1.0000   1.0000   1.0000   1.0000   1.0000   1.0000   1.0000
     1.0000   1.0000   1.0000   1.0000   1.0000   1.0000   1.0000   1.0000
     1.0000   1.0000   1.0000   1.0000   1.0000   1.0000   1.0000   1.0000
     1.0000   1.0000   1.0000   1.0000   1.0000   1.0000   1.0092   1.0128
     1.0145   0.9741   0.4846   0.3088  -0.0000  -0.0000  -0.0000  -0.0000
    -0.0000  -0.0000  -0.0000  -0.0000  -0.0000  -0.0000

          k = 0.0000 0.3750-0.5000 (  9642 PWs)   bands (ev):

   -56.4998 -56.4998 -56.4998 -56.4998 -56.4814 -56.4814 -56.4814 -56.4814
   -28.5805 -28.5805 -28.5768 -28.5768 -28.5351 -28.5351 -28.5324 -28.5324
   -27.6217 -27.6217 -27.5931 -27.5931 -27.5487 -27.5487 -27.5354 -27.5354
   -27.5203 -27.5203 -27.5030 -27.5030 -27.4437 -27.4437 -27.4325 -27.4325
     5.0901   5.0901   5.0915   5.0915   6.8117   6.8117   6.8158   6.8158
    10.4496  10.4496  10.4511  10.4511  11.2416  11.2416  11.2496  11.2496
    11.6401  11.6401  11.6480  11.6480  12.3097  12.3097  12.3148  12.3148
    13.3637  13.3637  13.3695  13.3695  13.7678  13.7678  13.7769  13.7769
    14.2720  14.2720  14.2747  14.2747  14.5429  14.5429  14.5536  14.5536
    14.8847  14.8847  14.9038  14.9038  15.4561  15.4561  15.4759  15.4759
    16.4918  16.4918  16.5019  16.5019  17.1129  17.1159

     occupation numbers 
     1.0000   1.0000   1.0000   1.0000   1.0000   1.0000   1.0000   1.0000
     1.0000   1.0000   1.0000   1.0000   1.0000   1.0000   1.0000   1.0000
     1.0000   1.0000   1.0000   1.0000   1.0000   1.0000   1.0000   1.0000
     1.0000   1.0000   1.0000   1.0000   1.0000   1.0000   1.0000   1.0000
     1.0000   1.0000   1.0000   1.0000   1.0000   1.0000   1.0000   1.0000
     1.0000   1.0000   1.0000   1.0000   1.0000   1.0000   1.0000   1.0000
     1.0000   1.0000   1.0000   1.0000   1.0000   1.0000   1.0000   1.0000
     1.0000   1.0000   1.0000   1.0000   1.0000   1.0000   1.0000   1.0000
     1.0000   1.0000   1.0000   1.0000   1.0000   1.0000   1.0000   1.0000
     0.9300   0.9300   0.8399   0.8399  -0.0000  -0.0000  -0.0000  -0.0000
    -0.0000  -0.0000  -0.0000  -0.0000  -0.0000  -0.0000

          k = 0.0000-0.5000-0.5000 (  9580 PWs)   bands (ev):

   -56.4992 -56.4992 -56.4992 -56.4992 -56.4820 -56.4820 -56.4820 -56.4820
   -28.5767 -28.5767 -28.5767 -28.5767 -28.5359 -28.5359 -28.5359 -28.5359
   -27.6079 -27.6079 -27.6079 -27.6079 -27.5393 -27.5393 -27.5393 -27.5393
   -27.5158 -27.5158 -27.5158 -27.5158 -27.4361 -27.4361 -27.4361 -27.4361
     5.3718   5.3718   5.3718   5.3718   6.4279   6.4279   6.4279   6.4279
    10.7055  10.7055  10.7055  10.7055  11.2419  11.2419  11.2419  11.2419
    11.3849  11.3849  11.3849  11.3849  12.2845  12.2845  12.2845  12.2845
    13.3606  13.3606  13.3606  13.3606  14.0065  14.0065  14.0065  14.0065
    14.2912  14.2912  14.2912  14.2912  14.5254  14.5254  14.5254  14.5254
    14.7579  14.7579  14.7579  14.7579  15.4145  15.4145  15.4145  15.4145
    16.5870  16.5870  16.5870  16.5871  16.9822  16.9822

     occupation numbers 
     1.0000   1.0000   1.0000   1.0000   1.0000   1.0000   1.0000   1.0000
     1.0000   1.0000   1.0000   1.0000   1.0000   1.0000   1.0000   1.0000
     1.0000   1.0000   1.0000   1.0000   1.0000   1.0000   1.0000   1.0000
     1.0000   1.0000   1.0000   1.0000   1.0000   1.0000   1.0000   1.0000
     1.0000   1.0000   1.0000   1.0000   1.0000   1.0000   1.0000   1.0000
     1.0000   1.0000   1.0000   1.0000   1.0000   1.0000   1.0000   1.0000
     1.0000   1.0000   1.0000   1.0000   1.0000   1.0000   1.0000   1.0000
     1.0000   1.0000   1.0000   1.0000   1.0000   1.0000   1.0000   1.0000
     1.0000   1.0000   1.0000   1.0000   1.0000   1.0000   1.0000   1.0000
     1.0149   1.0149   1.0149   1.0149  -0.0000  -0.0000  -0.0000  -0.0000
    -0.0000  -0.0000  -0.0000  -0.0000  -0.0000  -0.0000

          k = 0.1250 0.1250 0.1250 (  9633 PWs)   bands (ev):

   -56.5138 -56.5138 -56.4885 -56.4885 -56.4823 -56.4823 -56.4780 -56.4780
   -28.5918 -28.5855 -28.5761 -28.5752 -28.5634 -28.5588 -28.4937 -28.4935
   -27.6340 -27.6326 -27.5982 -27.5932 -27.5538 -27.5473 -27.5451 -27.5435
   -27.5240 -27.5080 -27.4709 -27.4605 -27.4558 -27.4546 -27.4417 -27.4391
     3.0216   3.0216   6.5638   6.5704   7.1840   7.1912   8.2853   8.2894
     9.9222   9.9270  10.6108  10.6111  10.6520  10.6521  11.2991  11.3046
    11.9447  11.9458  12.3497  12.3610  12.7371  12.7391  12.8158  12.8248
    13.0608  13.0644  13.1624  13.1629  13.2407  13.2466  13.3405  13.3493
    13.4543  13.4624  13.7029  13.7074  14.0628  14.0703  15.3194  15.3237
    15.3548  15.3560  15.5728  15.5736  15.6348  15.6493  15.8105  15.8228
    16.3135  16.3330  16.6480  16.6565  16.9614  16.9966

     occupation numbers 
     1.0000   1.0000   1.0000   1.0000   1.0000   1.0000   1.0000   1.0000
     1.0000   1.0000   1.0000   1.0000   1.0000   1.0000   1.0000   1.0000
     1.0000   1.0000   1.0000   1.0000   1.0000   1.0000   1.0000   1.0000
     1.0000   1.0000   1.0000   1.0000   1.0000   1.0000   1.0000   1.0000
     1.0000   1.0000   1.0000   1.0000   1.0000   1.0000   1.0000   1.0000
     1.0000   1.0000   1.0000   1.0000   1.0000   1.0000   1.0000   1.0000
     1.0000   1.0000   1.0000   1.0000   1.0000   1.0000   1.0000   1.0000
     1.0000   1.0000   1.0000   1.0000   1.0000   1.0000   1.0000   1.0000
     1.0000   1.0000   1.0000   1.0000   1.0000   1.0000  -0.0000  -0.0000
    -0.0000  -0.0000  -0.0000  -0.0000  -0.0000  -0.0000  -0.0000  -0.0000
    -0.0000  -0.0000  -0.0000  -0.0000  -0.0000  -0.0000

          k = 0.1250 0.1250 0.2500 (  9648 PWs)   bands (ev):

   -56.5111 -56.5111 -56.4918 -56.4918 -56.4820 -56.4820 -56.4777 -56.4777
   -28.5925 -28.5866 -28.5771 -28.5762 -28.5548 -28.5511 -28.5015 -28.5011
   -27.6378 -27.6330 -27.5905 -27.5837 -27.5578 -27.5513 -27.5464 -27.5419
   -27.5216 -27.4986 -27.4804 -27.4656 -27.4616 -27.4554 -27.4388 -27.4365
     3.3370   3.3371   6.0627   6.0660   7.2204   7.2248   8.4040   8.4081
     9.6716   9.6736  10.4343  10.4382  10.6889  10.6928  11.4163  11.4203
    11.8416  11.8465  12.2991  12.3025  12.7370  12.7422  13.0064  13.0114
    13.0809  13.0877  13.1134  13.1211  13.2795  13.2841  13.4374  13.4468
    13.6233  13.6318  13.8377  13.8464  14.1515  14.1576  15.0811  15.1063
    15.2818  15.2969  15.4428  15.4565  15.5861  15.6033  15.8085  15.8277
    16.2007  16.2164  16.5426  16.5564  17.1173  17.1527

     occupation numbers 
     1.0000   1.0000   1.0000   1.0000   1.0000   1.0000   1.0000   1.0000
     1.0000   1.0000   1.0000   1.0000   1.0000   1.0000   1.0000   1.0000
     1.0000   1.0000   1.0000   1.0000   1.0000   1.0000   1.0000   1.0000
     1.0000   1.0000   1.0000   1.0000   1.0000   1.0000   1.0000   1.0000
     1.0000   1.0000   1.0000   1.0000   1.0000   1.0000   1.0000   1.0000
     1.0000   1.0000   1.0000   1.0000   1.0000   1.0000   1.0000   1.0000
     1.0000   1.0000   1.0000   1.0000   1.0000   1.0000   1.0000   1.0000
     1.0000   1.0000   1.0000   1.0000   1.0000   1.0000   1.0000   1.0000
     1.0000   1.0000   1.0000   1.0000   1.0000   1.0000  -0.0351  -0.0313
    -0.0001  -0.0000  -0.0000  -0.0000  -0.0000  -0.0000  -0.0000  -0.0000
    -0.0000  -0.0000  -0.0000  -0.0000  -0.0000  -0.0000

          k = 0.1250 0.1250 0.3750 (  9660 PWs)   bands (ev):

   -56.5069 -56.5069 -56.4966 -56.4966 -56.4808 -56.4808 -56.4782 -56.4782
   -28.5910 -28.5862 -28.5811 -28.5788 -28.5419 -28.5393 -28.5132 -28.5123
   -27.6391 -27.6347 -27.5808 -27.5752 -27.5661 -27.5533 -27.5453 -27.5334
   -27.5246 -27.4996 -27.4818 -27.4697 -27.4651 -27.4584 -27.4370 -27.4354
     3.8448   3.8450   5.2906   5.2917   7.5135   7.5157   8.3088   8.3132
     9.5584   9.5594  10.2042  10.2074  10.9208  10.9252  11.4069  11.4129
    11.7847  11.7881  12.2116  12.2153  12.7415  12.7472  12.9479  12.9556
    13.0574  13.0656  13.2272  13.2343  13.3243  13.3278  13.4297  13.4361
    13.6937  13.6966  13.9766  13.9840  14.3499  14.3698  14.8302  14.8629
    15.2433  15.2596  15.3152  15.3285  15.6072  15.6272  15.7659  15.7893
    16.1530  16.1624  16.3769  16.3913  17.3093  17.3328

     occupation numbers 
     1.0000   1.0000   1.0000   1.0000   1.0000   1.0000   1.0000   1.0000
     1.0000   1.0000   1.0000   1.0000   1.0000   1.0000   1.0000   1.0000
     1.0000   1.0000   1.0000   1.0000   1.0000   1.0000   1.0000   1.0000
     1.0000   1.0000   1.0000   1.0000   1.0000   1.0000   1.0000   1.0000
     1.0000   1.0000   1.0000   1.0000   1.0000   1.0000   1.0000   1.0000
     1.0000   1.0000   1.0000   1.0000   1.0000   1.0000   1.0000   1.0000
     1.0000   1.0000   1.0000   1.0000   1.0000   1.0000   1.0000   1.0000
     1.0000   1.0000   1.0000   1.0000   1.0000   1.0000   1.0000   1.0000
     1.0000   1.0000   1.0000   1.0000   1.0000   1.0000   1.0337   0.9958
    -0.0005  -0.0002  -0.0000  -0.0000  -0.0000  -0.0000  -0.0000  -0.0000
    -0.0000  -0.0000  -0.0000  -0.0000  -0.0000  -0.0000

          k = 0.1250 0.1250-0.5000 (  9650 PWs)   bands (ev):

   -56.5019 -56.5019 -56.5019 -56.5019 -56.4794 -56.4794 -56.4794 -56.4794
   -28.5877 -28.5877 -28.5817 -28.5817 -28.5280 -28.5280 -28.5250 -28.5250
   -27.6375 -27.6375 -27.5735 -27.5735 -27.5638 -27.5638 -27.5372 -27.5372
   -27.5140 -27.5140 -27.4749 -27.4749 -27.4629 -27.4629 -27.4358 -27.4358
     4.5142   4.5142   4.5149   4.5149   7.9202   7.9202   7.9265   7.9265
     9.8404   9.8404   9.8418   9.8418  11.1810  11.1810  11.1907  11.1907
    12.0264  12.0264  12.0301  12.0301  12.7772  12.7772  12.7900  12.7900
    13.1751  13.1751  13.1832  13.1832  13.3645  13.3645  13.3674  13.3674
    13.8481  13.8481  13.8541  13.8541  14.6286  14.6286  14.6607  14.6607
    15.2440  15.2440  15.2632  15.2632  15.6823  15.6823  15.7084  15.7084
    16.2233  16.2233  16.2335  16.2335  17.6139  17.6154

     occupation numbers 
     1.0000   1.0000   1.0000   1.0000   1.0000   1.0000   1.0000   1.0000
     1.0000   1.0000   1.0000   1.0000   1.0000   1.0000   1.0000   1.0000
     1.0000   1.0000   1.0000   1.0000   1.0000   1.0000   1.0000   1.0000
     1.0000   1.0000   1.0000   1.0000   1.0000   1.0000   1.0000   1.0000
     1.0000   1.0000   1.0000   1.0000   1.0000   1.0000   1.0000   1.0000
     1.0000   1.0000   1.0000   1.0000   1.0000   1.0000   1.0000   1.0000
     1.0000   1.0000   1.0000   1.0000   1.0000   1.0000   1.0000   1.0000
     1.0000   1.0000   1.0000   1.0000   1.0000   1.0000   1.0000   1.0000
     1.0000   1.0000   1.0000   1.0000   1.0001   1.0001   1.0005   1.0005
    -0.0005  -0.0005  -0.0002  -0.0002  -0.0000  -0.0000  -0.0000  -0.0000
    -0.0000  -0.0000  -0.0000  -0.0000  -0.0000  -0.0000

          k = 0.1250 0.2500 0.2500 (  9649 PWs)   bands (ev):

   -56.5086 -56.5086 -56.4932 -56.4932 -56.4826 -56.4826 -56.4781 -56.4781
   -28.5913 -28.5861 -28.5752 -28.5746 -28.5519 -28.5483 -28.5086 -28.5079
   -27.6353 -27.6322 -27.5865 -27.5786 -27.5593 -27.5542 -27.5478 -27.5434
   -27.5182 -27.5008 -27.4826 -27.4701 -27.4680 -27.4530 -27.4359 -27.4338
     3.6448   3.6449   6.0136   6.0180   6.9146   6.9210   8.2969   8.3007
     9.4087   9.4115  10.4280  10.4297  10.6903  10.6929  11.4593  11.4642
    11.9039  11.9065  12.3018  12.3037  12.6214  12.6278  12.9554  12.9618
    13.1168  13.1217  13.1927  13.2035  13.2819  13.2874  13.5783  13.5851
    13.7489  13.7565  13.9704  13.9795  14.2869  14.2939  15.0246  15.0418
    15.1579  15.1783  15.2833  15.2959  15.4969  15.5089  15.7190  15.7396
    16.1681  16.1791  16.5170  16.5295  17.1461  17.1867

     occupation numbers 
     1.0000   1.0000   1.0000   1.0000   1.0000   1.0000   1.0000   1.0000
     1.0000   1.0000   1.0000   1.0000   1.0000   1.0000   1.0000   1.0000
     1.0000   1.0000   1.0000   1.0000   1.0000   1.0000   1.0000   1.0000
     1.0000   1.0000   1.0000   1.0000   1.0000   1.0000   1.0000   1.0000
     1.0000   1.0000   1.0000   1.0000   1.0000   1.0000   1.0000   1.0000
     1.0000   1.0000   1.0000   1.0000   1.0000   1.0000   1.0000   1.0000
     1.0000   1.0000   1.0000   1.0000   1.0000   1.0000   1.0000   1.0000
     1.0000   1.0000   1.0000   1.0000   1.0000   1.0000   1.0000   1.0000
     1.0000   1.0000   1.0000   1.0000   1.0000   1.0000   0.0541   0.0049
    -0.0113  -0.0062  -0.0001  -0.0000  -0.0000  -0.0000  -0.0000  -0.0000
    -0.0000  -0.0000  -0.0000  -0.0000  -0.0000  -0.0000

          k = 0.1250 0.2500 0.3750 (  9647 PWs)   bands (ev):

   -56.5050 -56.5050 -56.4964 -56.4964 -56.4820 -56.4820 -56.4791 -56.4791
   -28.5882 -28.5839 -28.5774 -28.5757 -28.5433 -28.5409 -28.5190 -28.5181
   -27.6330 -27.6302 -27.5830 -27.5754 -27.5657 -27.5557 -27.5432 -27.5361
   -27.5221 -27.5090 -27.4841 -27.4778 -27.4637 -27.4524 -27.4344 -27.4323
     4.1382   4.1386   5.4910   5.4931   7.0392   7.0431   7.9715   7.9747
     9.4103   9.4127  10.1453  10.1477  11.0640  11.0672  11.5737  11.5797
    11.8038  11.8113  12.0652  12.0669  12.5151  12.5252  12.7876  12.7953
    13.2074  13.2127  13.2896  13.3019  13.3522  13.3577  13.5985  13.6079
    13.8624  13.8739  14.0966  14.1080  14.5026  14.5307  14.8371  14.8638
    15.0691  15.0786  15.1454  15.1590  15.5062  15.5190  15.6317  15.6546
    16.2018  16.2087  16.4436  16.4544  17.1759  17.2025

     occupation numbers 
     1.0000   1.0000   1.0000   1.0000   1.0000   1.0000   1.0000   1.0000
     1.0000   1.0000   1.0000   1.0000   1.0000   1.0000   1.0000   1.0000
     1.0000   1.0000   1.0000   1.0000   1.0000   1.0000   1.0000   1.0000
     1.0000   1.0000   1.0000   1.0000   1.0000   1.0000   1.0000   1.0000
     1.0000   1.0000   1.0000   1.0000   1.0000   1.0000   1.0000   1.0000
     1.0000   1.0000   1.0000   1.0000   1.0000   1.0000   1.0000   1.0000
     1.0000   1.0000   1.0000   1.0000   1.0000   1.0000   1.0000   1.0000
     1.0000   1.0000   1.0000   1.0000   1.0000   1.0000   1.0000   1.0000
     1.0000   1.0000   1.0000   1.0000   1.0000   1.0000   1.0303   0.9937
    -0.0310  -0.0347  -0.0155  -0.0110  -0.0000  -0.0000  -0.0000  -0.0000
    -0.0000  -0.0000  -0.0000  -0.0000  -0.0000  -0.0000

          k = 0.1250 0.2500-0.5000 (  9646 PWs)   bands (ev):

   -56.5007 -56.5007 -56.5007 -56.5007 -56.4806 -56.4806 -56.4806 -56.4806
   -28.5841 -28.5841 -28.5786 -28.5786 -28.5324 -28.5324 -28.5289 -28.5289
   -27.6307 -27.6307 -27.5791 -27.5791 -27.5619 -27.5619 -27.5344 -27.5344
   -27.5204 -27.5204 -27.4829 -27.4829 -27.4566 -27.4566 -27.4328 -27.4328
     4.7808   4.7808   4.7819   4.7819   7.4688   7.4688   7.4751   7.4751
     9.7441   9.7441   9.7465   9.7465  11.5279  11.5279  11.5355  11.5355
    11.7436  11.7436  11.7474  11.7474  12.5996  12.5996  12.6110  12.6110
    13.2913  13.2913  13.2976  13.2976  13.4696  13.4696  13.4812  13.4812
    14.0237  14.0237  14.0318  14.0318  14.6935  14.6935  14.7259  14.7259
    15.0652  15.0652  15.0816  15.0816  15.5545  15.5545  15.5782  15.5782
    16.3193  16.3193  16.3283  16.3283  17.3780  17.3816

     occupation numbers 
     1.0000   1.0000   1.0000   1.0000   1.0000   1.0000   1.0000   1.0000
     1.0000   1.0000   1.0000   1.0000   1.0000   1.0000   1.0000   1.0000
     1.0000   1.0000   1.0000   1.0000   1.0000   1.0000   1.0000   1.0000
     1.0000   1.0000   1.0000   1.0000   1.0000   1.0000   1.0000   1.0000
     1.0000   1.0000   1.0000   1.0000   1.0000   1.0000   1.0000   1.0000
     1.0000   1.0000   1.0000   1.0000   1.0000   1.0000   1.0000   1.0000
     1.0000   1.0000   1.0000   1.0000   1.0000   1.0000   1.0000   1.0000
     1.0000   1.0000   1.0000   1.0000   1.0000   1.0000   1.0000   1.0000
     1.0000   1.0000   1.0000   1.0000   1.0019   1.0019   1.0061   1.0061
    -0.0284  -0.0284  -0.0352  -0.0352  -0.0000  -0.0000  -0.0000  -0.0000
    -0.0000  -0.0000  -0.0000  -0.0000  -0.0000  -0.0000

          k = 0.1250 0.3750 0.3750 (  9632 PWs)   bands (ev):

   -56.5022 -56.5022 -56.4971 -56.4971 -56.4827 -56.4827 -56.4806 -56.4806
   -28.5837 -28.5804 -28.5752 -28.5743 -28.5422 -28.5402 -28.5274 -28.5262
   -27.6252 -27.6237 -27.5886 -27.5844 -27.5610 -27.5537 -27.5394 -27.5330
   -27.5240 -27.5159 -27.4932 -27.4888 -27.4542 -27.4459 -27.4343 -27.4314
     4.6020   4.6026   5.5962   5.5985   6.6179   6.6214   7.4191   7.4223
     9.5842   9.5867  10.2018  10.2052  10.9490  10.9510  11.5402  11.5426
    11.7635  11.7681  12.1094  12.1113  12.3540  12.3585  12.6178  12.6244
    13.1907  13.1963  13.3126  13.3178  13.5597  13.5685  13.7642  13.7803
    14.0179  14.0314  14.2995  14.3085  14.5618  14.5803  14.7906  14.8055
    14.8764  14.8813  14.9907  15.0206  15.4310  15.4317  15.5015  15.5135
    16.3016  16.3110  16.4772  16.4836  17.0634  17.0846

     occupation numbers 
     1.0000   1.0000   1.0000   1.0000   1.0000   1.0000   1.0000   1.0000
     1.0000   1.0000   1.0000   1.0000   1.0000   1.0000   1.0000   1.0000
     1.0000   1.0000   1.0000   1.0000   1.0000   1.0000   1.0000   1.0000
     1.0000   1.0000   1.0000   1.0000   1.0000   1.0000   1.0000   1.0000
     1.0000   1.0000   1.0000   1.0000   1.0000   1.0000   1.0000   1.0000
     1.0000   1.0000   1.0000   1.0000   1.0000   1.0000   1.0000   1.0000
     1.0000   1.0000   1.0000   1.0000   1.0000   1.0000   1.0000   1.0000
     1.0000   1.0000   1.0000   1.0000   1.0000   1.0000   1.0000   1.0000
     1.0000   1.0000   1.0000   1.0000   1.0000   1.0000   1.0282   1.0334
     0.9598   0.9430   0.2222   0.0687  -0.0000  -0.0000  -0.0000  -0.0000
    -0.0000  -0.0000  -0.0000  -0.0000  -0.0000  -0.0000

          k = 0.1250 0.3750-0.5000 (  9656 PWs)   bands (ev):

   -56.4992 -56.4992 -56.4992 -56.4992 -56.4820 -56.4820 -56.4820 -56.4820
   -28.5791 -28.5791 -28.5754 -28.5754 -28.5368 -28.5368 -28.5340 -28.5340
   -27.6201 -27.6201 -27.5916 -27.5916 -27.5555 -27.5555 -27.5332 -27.5332
   -27.5224 -27.5224 -27.4956 -27.4956 -27.4466 -27.4466 -27.4331 -27.4331
     5.1733   5.1733   5.1748   5.1748   6.8552   6.8552   6.8596   6.8596
     9.9259   9.9259   9.9290   9.9290  11.2676  11.2676  11.2696  11.2696
    11.8654  11.8654  11.8729  11.8729  12.4201  12.4201  12.4278  12.4278
    13.2911  13.2911  13.2949  13.2949  13.6805  13.6805  13.6946  13.6946
    14.2858  14.2858  14.2924  14.2924  14.6327  14.6327  14.6451  14.6451
    14.9015  14.9015  14.9206  14.9206  15.4286  15.4286  15.4444  15.4444
    16.4456  16.4457  16.4533  16.4533  17.0925  17.0959

     occupation numbers 
     1.0000   1.0000   1.0000   1.0000   1.0000   1.0000   1.0000   1.0000
     1.0000   1.0000   1.0000   1.0000   1.0000   1.0000   1.0000   1.0000
     1.0000   1.0000   1.0000   1.0000   1.0000   1.0000   1.0000   1.0000
     1.0000   1.0000   1.0000   1.0000   1.0000   1.0000   1.0000   1.0000
     1.0000   1.0000   1.0000   1.0000   1.0000   1.0000   1.0000   1.0000
     1.0000   1.0000   1.0000   1.0000   1.0000   1.0000   1.0000   1.0000
     1.0000   1.0000   1.0000   1.0000   1.0000   1.0000   1.0000   1.0000
     1.0000   1.0000   1.0000   1.0000   1.0000   1.0000   1.0000   1.0000
     1.0000   1.0000   1.0000   1.0000   1.0001   1.0001   1.0002   1.0002
     0.8521   0.8521   0.7368   0.7368  -0.0000  -0.0000  -0.0000  -0.0000
    -0.0000  -0.0000  -0.0000  -0.0000  -0.0000  -0.0000

          k = 0.1250-0.5000-0.5000 (  9632 PWs)   bands (ev):

   -56.4986 -56.4986 -56.4986 -56.4986 -56.4827 -56.4827 -56.4827 -56.4827
   -28.5754 -28.5754 -28.5752 -28.5752 -28.5378 -28.5378 -28.5375 -28.5375
   -27.6091 -27.6091 -27.6036 -27.6036 -27.5516 -27.5516 -27.5345 -27.5345
   -27.5201 -27.5201 -27.5027 -27.5027 -27.4405 -27.4405 -27.4357 -27.4357
     5.4489   5.4489   5.4500   5.4500   6.4887   6.4887   6.4906   6.4906
    10.0926  10.0926  10.0962  10.0962  11.0427  11.0427  11.0443  11.0443
    11.9593  11.9593  11.9617  11.9617  12.3353  12.3353  12.3378  12.3378
    13.2734  13.2734  13.2742  13.2742  13.8459  13.8459  13.8592  13.8592
    14.3431  14.3431  14.3485  14.3485  14.6310  14.6310  14.6475  14.6475
    14.8013  14.8013  14.8033  14.8033  15.3828  15.3828  15.3830  15.3830
    16.5201  16.5201  16.5217  16.5217  16.9684  16.9699

     occupation numbers 
     1.0000   1.0000   1.0000   1.0000   1.0000   1.0000   1.0000   1.0000
     1.0000   1.0000   1.0000   1.0000   1.0000   1.0000   1.0000   1.0000
     1.0000   1.0000   1.0000   1.0000   1.0000   1.0000   1.0000   1.0000
     1.0000   1.0000   1.0000   1.0000   1.0000   1.0000   1.0000   1.0000
     1.0000   1.0000   1.0000   1.0000   1.0000   1.0000   1.0000   1.0000
     1.0000   1.0000   1.0000   1.0000   1.0000   1.0000   1.0000   1.0000
     1.0000   1.0000   1.0000   1.0000   1.0000   1.0000   1.0000   1.0000
     1.0000   1.0000   1.0000   1.0000   1.0000   1.0000   1.0000   1.0000
     1.0000   1.0000   1.0000   1.0000   1.0001   1.0001   1.0003   1.0003
     1.0322   1.0322   1.0328   1.0328  -0.0000  -0.0000  -0.0000  -0.0000
    -0.0000  -0.0000  -0.0000  -0.0000  -0.0000  -0.0000

          k = 0.2500 0.2500 0.2500 (  9651 PWs)   bands (ev):

   -56.5064 -56.5064 -56.4937 -56.4937 -56.4835 -56.4835 -56.4788 -56.4788
   -28.5890 -28.5843 -28.5724 -28.5724 -28.5513 -28.5478 -28.5152 -28.5142
   -27.6321 -27.6287 -27.5854 -27.5744 -27.5620 -27.5595 -27.5456 -27.5448
   -27.5129 -27.5117 -27.4759 -27.4747 -27.4631 -27.4605 -27.4345 -27.4323
     3.9446   3.9447   6.0545   6.0612   6.7952   6.8055   8.0512   8.0520
     9.0668   9.0695  10.0619  10.0655  11.1544  11.1587  11.1986  11.1990
    11.9198  11.9212  12.3548  12.3564  12.8102  12.8169  12.8816  12.8824
    13.1329  13.1395  13.1417  13.1523  13.1836  13.1886  13.7568  13.7656
    13.7728  13.7851  14.0636  14.0711  14.4491  14.4664  14.9856  15.0017
    15.1268  15.1303  15.2643  15.2649  15.3042  15.3102  15.6123  15.6315
    16.1812  16.1894  16.4813  16.4926  17.1246  17.1543

     occupation numbers 
     1.0000   1.0000   1.0000   1.0000   1.0000   1.0000   1.0000   1.0000
     1.0000   1.0000   1.0000   1.0000   1.0000   1.0000   1.0000   1.0000
     1.0000   1.0000   1.0000   1.0000   1.0000   1.0000   1.0000   1.0000
     1.0000   1.0000   1.0000   1.0000   1.0000   1.0000   1.0000   1.0000
     1.0000   1.0000   1.0000   1.0000   1.0000   1.0000   1.0000   1.0000
     1.0000   1.0000   1.0000   1.0000   1.0000   1.0000   1.0000   1.0000
     1.0000   1.0000   1.0000   1.0000   1.0000   1.0000   1.0000   1.0000
     1.0000   1.0000   1.0000   1.0000   1.0000   1.0000   1.0000   1.0000
     1.0000   1.0000   1.0000   1.0000   1.0000   1.0000   0.2553   0.1572
    -0.0230  -0.0215  -0.0002  -0.0002  -0.0000  -0.0000  -0.0000  -0.0000
    -0.0000  -0.0000  -0.0000  -0.0000  -0.0000  -0.0000

          k = 0.2500 0.2500 0.3750 (  9650 PWs)   bands (ev):

   -56.5031 -56.5031 -56.4958 -56.4958 -56.4834 -56.4834 -56.4803 -56.4803
   -28.5850 -28.5812 -28.5738 -28.5725 -28.5458 -28.5432 -28.5248 -28.5234
   -27.6280 -27.6250 -27.5820 -27.5745 -27.5689 -27.5643 -27.5418 -27.5352
   -27.5227 -27.5134 -27.4803 -27.4711 -27.4658 -27.4574 -27.4344 -27.4318
     4.4229   4.4232   5.6841   5.6871   6.9126   6.9186   7.7716   7.7743
     8.9808   8.9846   9.7543   9.7582  11.0332  11.0362  11.5966  11.5995
    11.6770  11.6803  12.2573  12.2621  12.7410  12.7507  12.8764  12.8836
    13.1092  13.1211  13.2122  13.2235  13.2924  13.2964  13.6208  13.6286
    13.9366  13.9466  14.2612  14.2725  14.6149  14.6474  14.8439  14.8631
    15.0185  15.0288  15.1800  15.2063  15.3249  15.3399  15.5238  15.5407
    16.2210  16.2277  16.4117  16.4199  17.1186  17.1336

     occupation numbers 
     1.0000   1.0000   1.0000   1.0000   1.0000   1.0000   1.0000   1.0000
     1.0000   1.0000   1.0000   1.0000   1.0000   1.0000   1.0000   1.0000
     1.0000   1.0000   1.0000   1.0000   1.0000   1.0000   1.0000   1.0000
     1.0000   1.0000   1.0000   1.0000   1.0000   1.0000   1.0000   1.0000
     1.0000   1.0000   1.0000   1.0000   1.0000   1.0000   1.0000   1.0000
     1.0000   1.0000   1.0000   1.0000   1.0000   1.0000   1.0000   1.0000
     1.0000   1.0000   1.0000   1.0000   1.0000   1.0000   1.0000   1.0000
     1.0000   1.0000   1.0000   1.0000   1.0000   1.0000   1.0000   1.0000
     1.0000   1.0000   1.0000   1.0000   1.0001   1.0003   1.0249   0.9953
     0.0773   0.0399  -0.0059  -0.0024  -0.0000  -0.0000  -0.0000  -0.0000
    -0.0000  -0.0000  -0.0000  -0.0000  -0.0000  -0.0000

          k = 0.2500 0.2500-0.5000 (  9666 PWs)   bands (ev):

   -56.4992 -56.4992 -56.4992 -56.4992 -56.4820 -56.4820 -56.4820 -56.4820
   -28.5804 -28.5804 -28.5752 -28.5752 -28.5369 -28.5369 -28.5330 -28.5330
   -27.6247 -27.6247 -27.5782 -27.5782 -27.5689 -27.5689 -27.5343 -27.5343
   -27.5216 -27.5216 -27.4780 -27.4780 -27.4591 -27.4591 -27.4332 -27.4332
     5.0371   5.0371   5.0383   5.0383   7.3197   7.3197   7.3258   7.3258
     9.3110   9.3110   9.3152   9.3152  11.2764  11.2764  11.2788  11.2788
    11.9764  11.9764  11.9845  11.9845  12.8026  12.8026  12.8128  12.8128
    13.1732  13.1732  13.1859  13.1859  13.4377  13.4377  13.4449  13.4449
    14.1670  14.1670  14.1766  14.1766  14.7501  14.7501  14.7773  14.7773
    15.0541  15.0541  15.0730  15.0730  15.4303  15.4303  15.4466  15.4466
    16.3106  16.3106  16.3202  16.3202  17.2552  17.2564

     occupation numbers 
     1.0000   1.0000   1.0000   1.0000   1.0000   1.0000   1.0000   1.0000
     1.0000   1.0000   1.0000   1.0000   1.0000   1.0000   1.0000   1.0000
     1.0000   1.0000   1.0000   1.0000   1.0000   1.0000   1.0000   1.0000
     1.0000   1.0000   1.0000   1.0000   1.0000   1.0000   1.0000   1.0000
     1.0000   1.0000   1.0000   1.0000   1.0000   1.0000   1.0000   1.0000
     1.0000   1.0000   1.0000   1.0000   1.0000   1.0000   1.0000   1.0000
     1.0000   1.0000   1.0000   1.0000   1.0000   1.0000   1.0000   1.0000
     1.0000   1.0000   1.0000   1.0000   1.0000   1.0000   1.0000   1.0000
     1.0000   1.0000   1.0000   1.0000   1.0122   1.0122   1.0226   1.0226
    -0.0167  -0.0167  -0.0329  -0.0329  -0.0000  -0.0000  -0.0000  -0.0000
    -0.0000  -0.0000  -0.0000  -0.0000  -0.0000  -0.0000

          k = 0.2500 0.3750 0.3750 (  9650 PWs)   bands (ev):

   -56.5003 -56.5003 -56.4958 -56.4958 -56.4843 -56.4843 -56.4820 -56.4820
   -28.5802 -28.5770 -28.5713 -28.5705 -28.5459 -28.5439 -28.5326 -28.5311
   -27.6207 -27.6181 -27.5857 -27.5811 -27.5699 -27.5657 -27.5427 -27.5319
   -27.5255 -27.5108 -27.4845 -27.4759 -27.4591 -27.4541 -27.4361 -27.4333
     4.8701   4.8707   5.7970   5.8010   6.6826   6.6894   7.3949   7.3981
     8.9588   8.9633   9.5728   9.5782  10.6884  10.6921  11.2068  11.2085
    12.0019  12.0048  12.4198  12.4239  12.6320  12.6375  12.8193  12.8250
    13.1274  13.1357  13.1818  13.1903  13.3817  13.3912  13.5832  13.5951
    14.1406  14.1492  14.4964  14.5137  14.6828  14.7064  14.8363  14.8556
    14.9338  14.9378  15.1301  15.1624  15.2733  15.2852  15.4290  15.4425
    16.2766  16.2841  16.4041  16.4086  16.9724  16.9826

     occupation numbers 
     1.0000   1.0000   1.0000   1.0000   1.0000   1.0000   1.0000   1.0000
     1.0000   1.0000   1.0000   1.0000   1.0000   1.0000   1.0000   1.0000
     1.0000   1.0000   1.0000   1.0000   1.0000   1.0000   1.0000   1.0000
     1.0000   1.0000   1.0000   1.0000   1.0000   1.0000   1.0000   1.0000
     1.0000   1.0000   1.0000   1.0000   1.0000   1.0000   1.0000   1.0000
     1.0000   1.0000   1.0000   1.0000   1.0000   1.0000   1.0000   1.0000
     1.0000   1.0000   1.0000   1.0000   1.0000   1.0000   1.0000   1.0000
     1.0000   1.0000   1.0000   1.0000   1.0000   1.0000   1.0000   1.0000
     1.0000   1.0000   1.0000   1.0000   1.0013   1.0031   1.0308   1.0097
     0.6430   0.6133  -0.0216  -0.0100  -0.0001  -0.0001  -0.0000  -0.0000
    -0.0000  -0.0000  -0.0000  -0.0000  -0.0000  -0.0000

          k = 0.2500 0.3750-0.5000 (  9644 PWs)   bands (ev):

   -56.4975 -56.4975 -56.4975 -56.4975 -56.4837 -56.4837 -56.4837 -56.4837
   -28.5753 -28.5753 -28.5717 -28.5717 -28.5415 -28.5415 -28.5384 -28.5384
   -27.6152 -27.6152 -27.5881 -27.5881 -27.5670 -27.5670 -27.5390 -27.5390
   -27.5155 -27.5155 -27.4832 -27.4832 -27.4531 -27.4531 -27.4361 -27.4361
     5.4126   5.4126   5.4144   5.4144   6.9221   6.9221   6.9275   6.9275
     9.2725   9.2725   9.2777   9.2777  10.7880  10.7880  10.7906  10.7906
    12.2808  12.2808  12.2894  12.2894  12.6857  12.6857  12.6930  12.6930
    13.1712  13.1712  13.1790  13.1790  13.4755  13.4755  13.4885  13.4885
    14.4047  14.4047  14.4135  14.4135  14.7921  14.7921  14.8095  14.8095
    14.9882  14.9882  15.0102  15.0102  15.3466  15.3466  15.3571  15.3571
    16.3656  16.3656  16.3728  16.3728  16.9841  16.9881

     occupation numbers 
     1.0000   1.0000   1.0000   1.0000   1.0000   1.0000   1.0000   1.0000
     1.0000   1.0000   1.0000   1.0000   1.0000   1.0000   1.0000   1.0000
     1.0000   1.0000   1.0000   1.0000   1.0000   1.0000   1.0000   1.0000
     1.0000   1.0000   1.0000   1.0000   1.0000   1.0000   1.0000   1.0000
     1.0000   1.0000   1.0000   1.0000   1.0000   1.0000   1.0000   1.0000
     1.0000   1.0000   1.0000   1.0000   1.0000   1.0000   1.0000   1.0000
     1.0000   1.0000   1.0000   1.0000   1.0000   1.0000   1.0000   1.0000
     1.0000   1.0000   1.0000   1.0000   1.0000   1.0000   1.0000   1.0000
     1.0000   1.0000   1.0000   1.0000   1.0288   1.0288   1.0344   1.0344
     0.2382   0.2382   0.1140   0.1140  -0.0000  -0.0000  -0.0000  -0.0000
    -0.0000  -0.0000  -0.0000  -0.0000  -0.0000  -0.0000

          k = 0.2500-0.5000-0.5000 (  9644 PWs)   bands (ev):

   -56.4967 -56.4967 -56.4967 -56.4967 -56.4845 -56.4845 -56.4845 -56.4845
   -28.5715 -28.5715 -28.5711 -28.5711 -28.5427 -28.5427 -28.5422 -28.5422
   -27.6065 -27.6065 -27.5977 -27.5977 -27.5651 -27.5651 -27.5413 -27.5413
   -27.5114 -27.5114 -27.4877 -27.4877 -27.4476 -27.4476 -27.4395 -27.4395
     5.6737   5.6737   5.6759   5.6759   6.6213   6.6213   6.6255   6.6255
     9.3816   9.3816   9.3871   9.3871  10.5090  10.5090  10.5123  10.5123
    12.4775  12.4775  12.4807  12.4807  12.5634  12.5634  12.5656  12.5656
    13.1145  13.1145  13.1148  13.1148  13.5543  13.5543  13.5671  13.5671
    14.5065  14.5065  14.5152  14.5152  14.8358  14.8358  14.8504  14.8504
    14.9378  14.9378  14.9389  14.9389  15.3084  15.3084  15.3113  15.3113
    16.4146  16.4146  16.4153  16.4153  16.8609  16.8637

     occupation numbers 
     1.0000   1.0000   1.0000   1.0000   1.0000   1.0000   1.0000   1.0000
     1.0000   1.0000   1.0000   1.0000   1.0000   1.0000   1.0000   1.0000
     1.0000   1.0000   1.0000   1.0000   1.0000   1.0000   1.0000   1.0000
     1.0000   1.0000   1.0000   1.0000   1.0000   1.0000   1.0000   1.0000
     1.0000   1.0000   1.0000   1.0000   1.0000   1.0000   1.0000   1.0000
     1.0000   1.0000   1.0000   1.0000   1.0000   1.0000   1.0000   1.0000
     1.0000   1.0000   1.0000   1.0000   1.0000   1.0000   1.0000   1.0000
     1.0000   1.0000   1.0000   1.0000   1.0000   1.0000   1.0000   1.0000
     1.0000   1.0000   1.0000   1.0000   1.0311   1.0311   1.0174   1.0174
     0.6134   0.6134   0.6052   0.6052  -0.0000  -0.0000  -0.0000  -0.0000
    -0.0000  -0.0000  -0.0000  -0.0000  -0.0000  -0.0000

          k = 0.3750 0.3750 0.3750 (  9682 PWs)   bands (ev):

   -56.4977 -56.4977 -56.4946 -56.4946 -56.4860 -56.4860 -56.4841 -56.4841
   -28.5750 -28.5722 -28.5673 -28.5668 -28.5492 -28.5473 -28.5399 -28.5381
   -27.6134 -27.6108 -27.5848 -27.5793 -27.5779 -27.5761 -27.5458 -27.5399
   -27.5154 -27.5050 -27.4788 -27.4662 -27.4621 -27.4603 -27.4400 -27.4376
     5.2851   5.2859   6.0004   6.0067   6.6318   6.6417   7.1894   7.1929
     8.7559   8.7616   9.2623   9.2697  10.1954  10.2005  10.6461  10.6485
    12.3232  12.3264  12.5905  12.5948  12.7694  12.7728  12.8663  12.8681
    13.1088  13.1192  13.1688  13.1740  13.2701  13.2705  13.3946  13.3994
    14.3597  14.3624  14.7222  14.7438  14.7808  14.7899  14.9225  14.9573
    15.0674  15.0736  15.0958  15.1016  15.2536  15.2841  15.3062  15.3279
[...]
    11.8722  11.8722  11.8755  11.8755  12.3355  12.3355  12.3433  12.3433
    13.3006  13.3006  13.3061  13.3061  13.9485  13.9485  13.9552  13.9552
    14.0776  14.0776  14.0854  14.0854  14.6218  14.6218  14.6537  14.6537
    14.8214  14.8214  14.8616  14.8616  15.4441  15.4441  15.4633  15.4633
    16.4435  16.4435  16.4557  16.4557  17.1874  17.1878

     occupation numbers 
     1.0000   1.0000   1.0000   1.0000   1.0000   1.0000   1.0000   1.0000
     1.0000   1.0000   1.0000   1.0000   1.0000   1.0000   1.0000   1.0000
     1.0000   1.0000   1.0000   1.0000   1.0000   1.0000   1.0000   1.0000
     1.0000   1.0000   1.0000   1.0000   1.0000   1.0000   1.0000   1.0000
     1.0000   1.0000   1.0000   1.0000   1.0000   1.0000   1.0000   1.0000
     1.0000   1.0000   1.0000   1.0000   1.0000   1.0000   1.0000   1.0000
     1.0000   1.0000   1.0000   1.0000   1.0000   1.0000   1.0000   1.0000
     1.0000   1.0000   1.0000   1.0000   1.0000   1.0000   1.0000   1.0000
     1.0000   1.0000   1.0000   1.0000   1.0001   1.0001   1.0004   1.0004
     1.0354   1.0354   0.9985   0.9985  -0.0000  -0.0000  -0.0000  -0.0000
    -0.0000  -0.0000  -0.0000  -0.0000  -0.0000  -0.0000

          k =-0.1250 0.3750 0.2500 (  9647 PWs)   bands (ev):

   -56.5050 -56.5050 -56.4964 -56.4964 -56.4820 -56.4820 -56.4791 -56.4791
   -28.5882 -28.5840 -28.5773 -28.5757 -28.5435 -28.5408 -28.5191 -28.5180
   -27.6331 -27.6303 -27.5819 -27.5764 -27.5647 -27.5568 -27.5430 -27.5363
   -27.5216 -27.5096 -27.4836 -27.4780 -27.4638 -27.4522 -27.4344 -27.4323
     4.1382   4.1384   5.4906   5.4921   7.0413   7.0441   7.9715   7.9757
     9.4174   9.4200  10.2013  10.2026  10.9146  10.9162  11.5449  11.5485
    11.7462  11.7483  12.1887  12.1924  12.6583  12.6628  12.8597  12.8653
    13.0821  13.0867  13.2581  13.2700  13.4122  13.4153  13.6448  13.6561
    13.7943  13.8032  14.0768  14.0858  14.4882  14.5151  14.8191  14.8469
    15.0832  15.1023  15.1624  15.1802  15.4820  15.4941  15.6220  15.6406
    16.1948  16.2031  16.4161  16.4276  17.2534  17.2829

     occupation numbers 
     1.0000   1.0000   1.0000   1.0000   1.0000   1.0000   1.0000   1.0000
     1.0000   1.0000   1.0000   1.0000   1.0000   1.0000   1.0000   1.0000
     1.0000   1.0000   1.0000   1.0000   1.0000   1.0000   1.0000   1.0000
     1.0000   1.0000   1.0000   1.0000   1.0000   1.0000   1.0000   1.0000
     1.0000   1.0000   1.0000   1.0000   1.0000   1.0000   1.0000   1.0000
     1.0000   1.0000   1.0000   1.0000   1.0000   1.0000   1.0000   1.0000
     1.0000   1.0000   1.0000   1.0000   1.0000   1.0000   1.0000   1.0000
     1.0000   1.0000   1.0000   1.0000   1.0000   1.0000   1.0000   1.0000
     1.0000   1.0000   1.0000   1.0000   1.0000   1.0000   1.0355   1.0217
    -0.0354  -0.0326  -0.0100  -0.0059  -0.0000  -0.0000  -0.0000  -0.0000
    -0.0000  -0.0000  -0.0000  -0.0000  -0.0000  -0.0000

          k =-0.1250-0.5000 0.2500 (  9646 PWs)   bands (ev):

   -56.5007 -56.5007 -56.5007 -56.5007 -56.4806 -56.4806 -56.4806 -56.4806
   -28.5841 -28.5841 -28.5786 -28.5786 -28.5325 -28.5325 -28.5288 -28.5288
   -27.6308 -27.6308 -27.5782 -27.5782 -27.5628 -27.5628 -27.5341 -27.5341
   -27.5208 -27.5208 -27.4828 -27.4828 -27.4564 -27.4564 -27.4329 -27.4329
     4.7805   4.7805   4.7813   4.7813   7.4711   7.4711   7.4756   7.4756
     9.7731   9.7731   9.7741   9.7741  11.2719  11.2719  11.2770  11.2770
    11.9365  11.9365  11.9415  11.9415  12.7535  12.7535  12.7636  12.7636
    13.1573  13.1573  13.1660  13.1660  13.5586  13.5586  13.5669  13.5669
    13.9621  13.9621  13.9715  13.9715  14.6796  14.6796  14.7131  14.7131
    15.0771  15.0771  15.1021  15.1021  15.5294  15.5294  15.5513  15.5513
    16.2884  16.2884  16.2990  16.2990  17.4679  17.4709

     occupation numbers 
     1.0000   1.0000   1.0000   1.0000   1.0000   1.0000   1.0000   1.0000
     1.0000   1.0000   1.0000   1.0000   1.0000   1.0000   1.0000   1.0000
     1.0000   1.0000   1.0000   1.0000   1.0000   1.0000   1.0000   1.0000
     1.0000   1.0000   1.0000   1.0000   1.0000   1.0000   1.0000   1.0000
     1.0000   1.0000   1.0000   1.0000   1.0000   1.0000   1.0000   1.0000
     1.0000   1.0000   1.0000   1.0000   1.0000   1.0000   1.0000   1.0000
     1.0000   1.0000   1.0000   1.0000   1.0000   1.0000   1.0000   1.0000
     1.0000   1.0000   1.0000   1.0000   1.0000   1.0000   1.0000   1.0000
     1.0000   1.0000   1.0000   1.0000   1.0011   1.0011   1.0040   1.0040
    -0.0344  -0.0344  -0.0327  -0.0327  -0.0000  -0.0000  -0.0000  -0.0000
    -0.0000  -0.0000  -0.0000  -0.0000  -0.0000  -0.0000

          k =-0.1250-0.5000 0.3750 (  9656 PWs)   bands (ev):

   -56.4992 -56.4992 -56.4992 -56.4992 -56.4820 -56.4820 -56.4820 -56.4820
   -28.5791 -28.5791 -28.5754 -28.5754 -28.5369 -28.5369 -28.5339 -28.5339
   -27.6203 -27.6203 -27.5912 -27.5912 -27.5558 -27.5558 -27.5326 -27.5326
   -27.5231 -27.5231 -27.4954 -27.4954 -27.4465 -27.4465 -27.4332 -27.4332
     5.1730   5.1730   5.1741   5.1741   6.8571   6.8571   6.8600   6.8600
     9.9472   9.9472   9.9498   9.9498  11.1545  11.1545  11.1577  11.1577
    11.9545  11.9545  11.9599  11.9599  12.4571  12.4571  12.4664  12.4664
    13.2310  13.2310  13.2370  13.2370  13.7789  13.7789  13.7920  13.7920
    14.1900  14.1900  14.1984  14.1984  14.6775  14.6775  14.7043  14.7043
    14.8663  14.8663  14.9051  14.9051  15.4149  15.4149  15.4313  15.4313
    16.4121  16.4121  16.4234  16.4234  17.1479  17.1486

     occupation numbers 
     1.0000   1.0000   1.0000   1.0000   1.0000   1.0000   1.0000   1.0000
     1.0000   1.0000   1.0000   1.0000   1.0000   1.0000   1.0000   1.0000
     1.0000   1.0000   1.0000   1.0000   1.0000   1.0000   1.0000   1.0000
     1.0000   1.0000   1.0000   1.0000   1.0000   1.0000   1.0000   1.0000
     1.0000   1.0000   1.0000   1.0000   1.0000   1.0000   1.0000   1.0000
     1.0000   1.0000   1.0000   1.0000   1.0000   1.0000   1.0000   1.0000
     1.0000   1.0000   1.0000   1.0000   1.0000   1.0000   1.0000   1.0000
     1.0000   1.0000   1.0000   1.0000   1.0000   1.0000   1.0000   1.0000
     1.0000   1.0000   1.0000   1.0000   1.0010   1.0010   1.0029   1.0029
     0.9879   0.9879   0.8328   0.8328  -0.0000  -0.0000  -0.0000  -0.0000
    -0.0000  -0.0000  -0.0000  -0.0000  -0.0000  -0.0000

          k =-0.2500-0.5000 0.3750 (  9644 PWs)   bands (ev):

   -56.4975 -56.4975 -56.4975 -56.4975 -56.4837 -56.4837 -56.4837 -56.4837
   -28.5753 -28.5753 -28.5716 -28.5716 -28.5415 -28.5415 -28.5384 -28.5384
   -27.6153 -27.6153 -27.5879 -27.5879 -27.5672 -27.5672 -27.5389 -27.5389
   -27.5156 -27.5156 -27.4831 -27.4831 -27.4531 -27.4531 -27.4361 -27.4361
     5.4125   5.4125   5.4141   5.4141   6.9229   6.9229   6.9276   6.9276
     9.2750   9.2750   9.2797   9.2797  10.7782  10.7782  10.7808  10.7808
    12.2798  12.2798  12.2881  12.2881  12.7217  12.7217  12.7317  12.7317
    13.1089  13.1089  13.1179  13.1179  13.5270  13.5270  13.5388  13.5388
    14.3792  14.3792  14.3864  14.3864  14.7982  14.7982  14.8166  14.8166
    14.9944  14.9944  15.0260  15.0260  15.3323  15.3323  15.3465  15.3465
    16.3546  16.3547  16.3645  16.3645  17.0018  17.0024

     occupation numbers 
     1.0000   1.0000   1.0000   1.0000   1.0000   1.0000   1.0000   1.0000
     1.0000   1.0000   1.0000   1.0000   1.0000   1.0000   1.0000   1.0000
     1.0000   1.0000   1.0000   1.0000   1.0000   1.0000   1.0000   1.0000
     1.0000   1.0000   1.0000   1.0000   1.0000   1.0000   1.0000   1.0000
     1.0000   1.0000   1.0000   1.0000   1.0000   1.0000   1.0000   1.0000
     1.0000   1.0000   1.0000   1.0000   1.0000   1.0000   1.0000   1.0000
     1.0000   1.0000   1.0000   1.0000   1.0000   1.0000   1.0000   1.0000
     1.0000   1.0000   1.0000   1.0000   1.0000   1.0000   1.0000   1.0000
     1.0000   1.0000   1.0000   1.0000   1.0311   1.0311   1.0354   1.0354
     0.1998   0.1998   0.0490   0.0490  -0.0000  -0.0000  -0.0000  -0.0000
    -0.0000  -0.0000  -0.0000  -0.0000  -0.0000  -0.0000

     the Fermi energy is    14.9525 ev

!    total energy              =   -1180.35076968 Ry

     total all-electron energy =    -10727.811606 Ry
     estimated scf accuracy    <       0.00000039 Ry
     smearing contrib. (-TS)   =       0.00056165 Ry
     internal energy E=F+TS    =   -1180.35133132 Ry

     The total energy is F=E-TS. E is the sum of the following terms:
     one-electron contribution =    -336.79733537 Ry
     hartree contribution      =     207.04058095 Ry
     xc contribution           =    -114.36187438 Ry
     ewald contribution        =    -496.51183961 Ry
     one-center paw contrib.   =    -439.72086292 Ry
      -> PAW hartree energy AE =     126.71614000 Ry
      -> PAW hartree energy PS =    -125.74877980 Ry
      -> PAW xc energy AE      =     -96.23989073 Ry
      -> PAW xc energy PS      =      20.93250937 Ry
      -> total E_H with PAW    =     208.00794116 Ry
      -> total E_XC with PAW   =    -189.66925573 Ry

     convergence has been achieved in   9 iterations

     Forces acting on atoms (cartesian axes, Ry/au):

     atom    1 type  1   force =    -0.00269753   -0.00269753    0.00269753
     atom    2 type  1   force =    -0.00269753    0.00269753   -0.00269753
     atom    3 type  1   force =     0.00269753   -0.00269753   -0.00269753
     atom    4 type  1   force =     0.00269753    0.00269753    0.00269753
     atom    5 type  2   force =    -0.00437593   -0.00437593    0.00437593
     atom    6 type  2   force =    -0.00437593    0.00437593   -0.00437593
     atom    7 type  2   force =     0.00437593   -0.00437593   -0.00437593
     atom    8 type  2   force =     0.00437593    0.00437593    0.00437593
     The non-local contrib.  to forces
     atom    1 type  1   force =     0.05115956    0.05115956   -0.05115956
     atom    2 type  1   force =     0.05115956   -0.05115956    0.05115956
     atom    3 type  1   force =    -0.05115956    0.05115956    0.05115956
     atom    4 type  1   force =    -0.05115956   -0.05115956   -0.05115956
     atom    5 type  2   force =    -0.00796007   -0.00796007    0.00796007
     atom    6 type  2   force =    -0.00796007    0.00796007   -0.00796007
     atom    7 type  2   force =     0.00796007   -0.00796007   -0.00796007
     atom    8 type  2   force =     0.00796007    0.00796007    0.00796007
     The ionic contribution  to forces
     atom    1 type  1   force =    -0.85044630   -0.85044630    0.85044630
     atom    2 type  1   force =    -0.85044630    0.85044630   -0.85044630
     atom    3 type  1   force =     0.85044630   -0.85044630   -0.85044630
     atom    4 type  1   force =     0.85044630    0.85044630    0.85044630
     atom    5 type  2   force =    -0.24524978   -0.24524978    0.24524978
     atom    6 type  2   force =    -0.24524978    0.24524978   -0.24524978
     atom    7 type  2   force =     0.24524978   -0.24524978   -0.24524978
     atom    8 type  2   force =     0.24524978    0.24524978    0.24524978
     The local contribution  to forces
     atom    1 type  1   force =     0.79760738    0.79760738   -0.79760738
     atom    2 type  1   force =     0.79760738   -0.79760738    0.79760738
     atom    3 type  1   force =    -0.79760738    0.79760738    0.79760738
     atom    4 type  1   force =    -0.79760738   -0.79760738   -0.79760738
     atom    5 type  2   force =     0.24806378    0.24806378   -0.24806378
     atom    6 type  2   force =     0.24806378   -0.24806378    0.24806378
     atom    7 type  2   force =    -0.24806378    0.24806378    0.24806378
     atom    8 type  2   force =    -0.24806378   -0.24806378   -0.24806378
     The core correction contribution to forces
     atom    1 type  1   force =    -0.00102869   -0.00102869    0.00102869
     atom    2 type  1   force =    -0.00102869    0.00102869   -0.00102869
     atom    3 type  1   force =     0.00102869   -0.00102869   -0.00102869
     atom    4 type  1   force =     0.00102869    0.00102869    0.00102869
     atom    5 type  2   force =     0.00078339    0.00078339   -0.00078339
     atom    6 type  2   force =     0.00078339   -0.00078339    0.00078339
     atom    7 type  2   force =    -0.00078339    0.00078339    0.00078339
     atom    8 type  2   force =    -0.00078339   -0.00078339   -0.00078339
     The Hubbard contrib.    to forces
     atom    1 type  1   force =     0.00000000    0.00000000    0.00000000
     atom    2 type  1   force =     0.00000000    0.00000000    0.00000000
     atom    3 type  1   force =     0.00000000    0.00000000    0.00000000
     atom    4 type  1   force =     0.00000000    0.00000000    0.00000000
     atom    5 type  2   force =     0.00000000    0.00000000    0.00000000
     atom    6 type  2   force =     0.00000000    0.00000000    0.00000000
     atom    7 type  2   force =     0.00000000    0.00000000    0.00000000
     atom    8 type  2   force =     0.00000000    0.00000000    0.00000000
     The SCF correction term to forces
     atom    1 type  1   force =     0.00001052    0.00001052   -0.00001052
     atom    2 type  1   force =     0.00001052   -0.00001052    0.00001052
     atom    3 type  1   force =    -0.00001052    0.00001052    0.00001052
     atom    4 type  1   force =    -0.00001052   -0.00001052   -0.00001052
     atom    5 type  2   force =    -0.00001326   -0.00001326    0.00001326
     atom    6 type  2   force =    -0.00001326    0.00001326   -0.00001326
     atom    7 type  2   force =     0.00001326   -0.00001326   -0.00001326
     atom    8 type  2   force =     0.00001326    0.00001326    0.00001326

     Total force =     0.017807     Total SCF correction =     0.000059


     Computing stress (Cartesian axis) and pressure

          total   stress  (Ry/bohr**3)                   (kbar)     P=      -41.81
  -0.00028423   0.00000000   0.00000000          -41.81        0.00        0.00
   0.00000000  -0.00028423   0.00000000            0.00      -41.81        0.00
   0.00000000   0.00000000  -0.00028423            0.00        0.00      -41.81

     kinetic stress (kbar)  35759.93      0.00      0.00
                                0.00  35759.93      0.00
                                0.00      0.00  35759.93

     local   stress (kbar) -10012.51      0.00     -0.00
                                0.00 -10012.51     -0.00
                               -0.00     -0.00 -10012.51

     nonloc. stress (kbar)   2427.48      0.00      0.00
                                0.00   2427.48      0.00
                                0.00      0.00   2427.48

     hartree stress (kbar)  15167.14     -0.00     -0.00
                               -0.00  15167.14     -0.00
                               -0.00     -0.00  15167.14

     exc-cor stress (kbar)  -1706.59     -0.00     -0.00
                               -0.00  -1706.59     -0.00
                               -0.00     -0.00  -1706.59

     corecor stress (kbar)  -5304.37      0.00      0.00
                                0.00  -5304.37      0.00
                                0.00      0.00  -5304.37

     ewald   stress (kbar) -36372.90      0.00      0.00
                                0.00 -36372.90      0.00
                                0.00      0.00 -36372.90

     hubbard stress (kbar)      0.00      0.00      0.00
                                0.00      0.00      0.00
                                0.00      0.00      0.00

     DFT-D   stress (kbar)      0.00      0.00      0.00
                                0.00      0.00      0.00
                                0.00      0.00      0.00

     XDM     stress (kbar)      0.00      0.00      0.00
                                0.00      0.00      0.00
                                0.00      0.00      0.00

     dft-nl  stress (kbar)      0.00      0.00      0.00
                                0.00      0.00      0.00
                                0.00      0.00      0.00

     TS-vdW  stress (kbar)      0.00      0.00      0.00
                                0.00      0.00      0.00
                                0.00      0.00      0.00



     Writing output data file /zfs_data/vergnior/martin/Scratch/OAL/CrSi/convergence/smearing/8x8x8/0.008/tmp/CrSi.save/
 
     init_run     :      8.13s CPU      8.49s WALL (       1 calls)
     electrons    :    245.13s CPU    250.67s WALL (       1 calls)
     forces       :      7.55s CPU      7.64s WALL (       1 calls)
     stress       :     18.95s CPU     19.19s WALL (       1 calls)

     Called by init_run:
     wfcinit      :      6.88s CPU      7.10s WALL (       1 calls)
     wfcinit:atom :      0.06s CPU      0.06s WALL (      45 calls)
     wfcinit:wfcr :      6.57s CPU      6.78s WALL (      45 calls)
     potinit      :      0.20s CPU      0.27s WALL (       1 calls)
     hinit0       :      0.18s CPU      0.19s WALL (       1 calls)

     Called by electrons:
     c_bands      :    199.07s CPU    202.37s WALL (      10 calls)
     sum_band     :     39.88s CPU     41.43s WALL (      10 calls)
     v_of_rho     :      0.24s CPU      0.24s WALL (      10 calls)
     v_h          :      0.02s CPU      0.02s WALL (      10 calls)
     v_xc         :      0.26s CPU      0.27s WALL (      12 calls)
     newd         :      4.92s CPU      5.62s WALL (      10 calls)
     PAW_pot      :      1.41s CPU      1.43s WALL (      10 calls)
     mix_rho      :      0.15s CPU      0.16s WALL (      10 calls)

     Called by c_bands:
     init_us_2    :      1.13s CPU      1.15s WALL (    1035 calls)
     cegterg      :    181.11s CPU    184.29s WALL (     450 calls)

     Called by sum_band:
     sum_band:wei :      0.06s CPU      0.06s WALL (      10 calls)
     sum_band:loo :     36.25s CPU     36.91s WALL (      10 calls)
     sum_band:buf :      0.32s CPU      0.35s WALL (     450 calls)
     sum_band:ini :      0.52s CPU      0.53s WALL (     450 calls)
     sum_band:cal :      2.59s CPU      2.60s WALL (     450 calls)
     sum_band:bec :      6.17s CPU      6.19s WALL (     450 calls)
     addusdens    :      3.36s CPU      4.25s WALL (      10 calls)
     addusd:skk   :      0.01s CPU      0.01s WALL (      20 calls)
     addusd:dgemm :      1.27s CPU      2.13s WALL (      20 calls)
     addusd:qvan2 :      2.03s CPU      2.04s WALL (      20 calls)

     Called by *egterg:
     cdiaghg      :     17.41s CPU     17.48s WALL (    2267 calls)
     cegterg:over :      9.02s CPU      9.07s WALL (    1862 calls)
     cegterg:upda :      4.70s CPU      4.72s WALL (    1862 calls)
     cegterg:last :      8.94s CPU      8.98s WALL (    1156 calls)
     h_psi        :    125.47s CPU    128.61s WALL (    2357 calls)
     s_psi        :     17.36s CPU     17.42s WALL (    2357 calls)
     g_psi        :      0.30s CPU      0.31s WALL (    1862 calls)

     Called by h_psi:
     h_psi:calbec :      8.54s CPU      8.60s WALL (    2357 calls)
     vloc_psi     :    100.01s CPU    102.98s WALL (    2357 calls)
     add_vuspsi   :     16.37s CPU     16.47s WALL (    2357 calls)

     General routines
     calbec       :     12.27s CPU     12.36s WALL (    3032 calls)
     fft          :      0.25s CPU      0.26s WALL (     238 calls)
     ffts         :      0.03s CPU      0.09s WALL (      80 calls)
     fftw         :     93.79s CPU     96.53s WALL (  568632 calls)
     interpolate  :      0.06s CPU      0.12s WALL (      40 calls)
 
     Parallel routines
     fft_scatt_xy :      9.26s CPU      9.52s WALL (  568950 calls)
     fft_scatt_yz :     33.46s CPU     34.42s WALL (  568950 calls)

     PAW routines
     PAW_pot      :      1.41s CPU      1.43s WALL (      10 calls)
     PAW_symme    :      0.02s CPU      0.02s WALL (      20 calls)
 
     PWSCF        :   4m43.21s CPU   4m51.47s WALL

 
   This run was terminated on:  12:49:43   1Aug2021            

=------------------------------------------------------------------------------=
   JOB DONE.
=------------------------------------------------------------------------------=
