
     Program PWSCF v.6.7MaX starts on 18May2022 at 15:58: 6 

     This program is part of the open-source Quantum ESPRESSO suite
     for quantum simulation of materials; please cite
         "P. Giannozzi et al., J. Phys.:Condens. Matter 21 395502 (2009);
         "P. Giannozzi et al., J. Phys.:Condens. Matter 29 465901 (2017);
          URL http://www.quantum-espresso.org", 
     in publications or presentations arising from this work. More details at
     http://www.quantum-espresso.org/quote

     Parallel version (MPI), running on    48 processors

     MPI processes distributed on     1 nodes
     R & G space division:  proc/nbgrp/npool/nimage =      48
     Waiting for input...
     Reading input from standard input

     Current dimensions of program PWSCF are:
     Max number of different atomic species (ntypx) = 10
     Max number of k-points (npk) =  40000
     Max angular momentum in pseudopotentials (lmaxx) =  3
     file O.pbe-nl-kjpaw_psl.1.0.0.UPF: wavefunction(s)  2S 2P renormalized
     file Cl.pbe-nl-kjpaw_psl.1.0.0.UPF: wavefunction(s)  3S renormalized
     file Nb.pbe-spn-kjpaw_psl.1.0.0.UPF: wavefunction(s)  4S 4P 4D renormalized

     Subspace diagonalization in iterative solution of the eigenvalue problem:
     a serial algorithm will be used

     Message from routine setup:
     using ibrav=0 with symmetry is DISCOURAGED, use correct ibrav instead
 
     Parallelization info
     --------------------
     sticks:   dense  smooth     PW     G-vecs:    dense   smooth      PW
     Min          75      30     11                 1541      391      85
     Max          76      31     12                 1544      392      87
     Sum        3617    1457    531                74033    18773    4123
 


     bravais-lattice index     =            0
     lattice parameter (alat)  =      12.6717  a.u.
     unit-cell volume          =     547.9313 (a.u.)^3
     number of atoms/cell      =            4
     number of atomic types    =            3
     number of electrons       =        33.00
     number of Kohn-Sham states=           21
     kinetic-energy cutoff     =      40.0000  Ry
     charge density cutoff     =     400.0000  Ry
     scf convergence threshold =      1.0E-10
     mixing beta               =       0.7000
     number of iterations used =            8  plain     mixing
     Exchange-correlation= SLA  PW   PBX  PBC
                           (   1   4   3   4   0   0   0)

     celldm(1)=  12.671676  celldm(2)=   0.000000  celldm(3)=   0.000000
     celldm(4)=   0.000000  celldm(5)=   0.000000  celldm(6)=   0.000000

     crystal axes: (cart. coord. in units of alat)
               a(1) = (  -0.250426   0.291161   0.923316 )  
               a(2) = (   0.250426  -0.291161   0.923316 )  
               a(3) = (   0.250426   0.291161  -0.923316 )  

     reciprocal axes: (cart. coord. in units 2 pi/alat)
               b(1) = (  0.000000  1.717261  0.541527 )  
               b(2) = (  1.996594  0.000000  0.541527 )  
               b(3) = (  1.996594  1.717261  0.000000 )  


     PseudoPot. # 1 for O  read from file:
     /zfs_data/gutierre/Scratch/Cl2NbO/convergence/cutoff/14x14x14/40/pseudo/O.pbe-nl-kjpaw_psl.1.0.0.UPF
     MD5 check sum: df3ddea38124b4e5de5e1084591730e4
     Pseudo is Projector augmented-wave + core cor, Zval =  6.0
     Generated using 'atomic' code by A. Dal Corso  v.6.7MaX
     Shape of augmentation charge: PSQ
     Using radial grid of 1095 points,  4 beta functions with: 
                l(1) =   0
                l(2) =   0
                l(3) =   1
                l(4) =   1
     Q(r) pseudized with 0 coefficients 


     PseudoPot. # 2 for Cl read from file:
     /zfs_data/gutierre/Scratch/Cl2NbO/convergence/cutoff/14x14x14/40/pseudo/Cl.pbe-nl-kjpaw_psl.1.0.0.UPF
     MD5 check sum: 8cf6bde52c08f6236e0f72a8870677af
     Pseudo is Projector augmented-wave + core cor, Zval =  7.0
     Generated using 'atomic' code by A. Dal Corso  v.6.7MaX
     Shape of augmentation charge: PSQ
     Using radial grid of 1157 points,  4 beta functions with: 
                l(1) =   0
                l(2) =   0
                l(3) =   1
                l(4) =   1
     Q(r) pseudized with 0 coefficients 


     PseudoPot. # 3 for Nb read from file:
     /zfs_data/gutierre/Scratch/Cl2NbO/convergence/cutoff/14x14x14/40/pseudo/Nb.pbe-spn-kjpaw_psl.1.0.0.UPF
     MD5 check sum: 1ec1a3aa7bf3cbf7f7e0d720422bce7a
     Pseudo is Projector augmented-wave + core cor, Zval = 13.0
     Generated using 'atomic' code by A. Dal Corso  v.6.7MaX
     Shape of augmentation charge: PSQ
     Using radial grid of 1227 points,  6 beta functions with: 
                l(1) =   0
                l(2) =   0
                l(3) =   1
                l(4) =   1
                l(5) =   2
                l(6) =   2
     Q(r) pseudized with 0 coefficients 


     atomic species   valence    mass     pseudopotential
        O              6.00    15.99940     O ( 1.00)
        Cl             7.00    35.45150     Cl( 1.00)
        Nb            13.00    92.90637     Nb( 1.00)

      8 Sym. Ops., with inversion, found


                                    s                        frac. trans.

      isym =  1     identity                                     

 cryst.   s( 1) = (     1          0          0      )
                  (     0          1          0      )
                  (     0          0          1      )

 cart.    s( 1) = (  1.0000000  0.0000000  0.0000000 )
                  (  0.0000000  1.0000000  0.0000000 )
                  (  0.0000000  0.0000000  1.0000000 )


      isym =  2     180 deg rotation - cart. axis [0,0,1]        

 cryst.   s( 2) = (     0          1          0      )
                  (     1          0          0      )
                  (    -1         -1         -1      )

 cart.    s( 2) = ( -1.0000000  0.0000000  0.0000000 )
                  (  0.0000000 -1.0000000  0.0000000 )
                  (  0.0000000  0.0000000  1.0000000 )


      isym =  3     180 deg rotation - cart. axis [0,1,0]        

 cryst.   s( 3) = (     0          0          1      )
                  (    -1         -1         -1      )
                  (     1          0          0      )

 cart.    s( 3) = ( -1.0000000  0.0000000  0.0000000 )
                  (  0.0000000  1.0000000  0.0000000 )
                  (  0.0000000  0.0000000 -1.0000000 )


      isym =  4     180 deg rotation - cart. axis [1,0,0]        

 cryst.   s( 4) = (    -1         -1         -1      )
                  (     0          0          1      )
                  (     0          1          0      )

 cart.    s( 4) = (  1.0000000  0.0000000  0.0000000 )
                  (  0.0000000 -1.0000000  0.0000000 )
                  (  0.0000000  0.0000000 -1.0000000 )


      isym =  5     inversion                                    

 cryst.   s( 5) = (    -1          0          0      )
                  (     0         -1          0      )
                  (     0          0         -1      )

 cart.    s( 5) = ( -1.0000000  0.0000000  0.0000000 )
                  (  0.0000000 -1.0000000  0.0000000 )
                  (  0.0000000  0.0000000 -1.0000000 )


      isym =  6     inv. 180 deg rotation - cart. axis [0,0,1]   

 cryst.   s( 6) = (     0         -1          0      )
                  (    -1          0          0      )
                  (     1          1          1      )

 cart.    s( 6) = (  1.0000000  0.0000000  0.0000000 )
                  (  0.0000000  1.0000000  0.0000000 )
                  (  0.0000000  0.0000000 -1.0000000 )


      isym =  7     inv. 180 deg rotation - cart. axis [0,1,0]   

 cryst.   s( 7) = (     0          0         -1      )
                  (     1          1          1      )
                  (    -1          0          0      )

 cart.    s( 7) = (  1.0000000  0.0000000  0.0000000 )
                  (  0.0000000 -1.0000000  0.0000000 )
                  (  0.0000000  0.0000000  1.0000000 )


      isym =  8     inv. 180 deg rotation - cart. axis [1,0,0]   

 cryst.   s( 8) = (     1          1          1      )
                  (     0          0         -1      )
                  (     0         -1          0      )

 cart.    s( 8) = ( -1.0000000  0.0000000  0.0000000 )
                  (  0.0000000  1.0000000  0.0000000 )
                  (  0.0000000  0.0000000  1.0000000 )


   Cartesian axes

     site n.     atom                  positions (alat units)
         1           O   tau(   1) = (   0.0000000   0.2911613   0.0000000  )
         2           Cl  tau(   2) = (  -0.0000000   0.2911613   0.6365338  )
         3           Cl  tau(   3) = (   0.2504264  -0.0000000   0.2867819  )
         4           Nb  tau(   4) = (   0.0000000   0.0000000   0.0000000  )

   Crystallographic axes

     site n.     atom                  positions (cryst. coord.)
         1           O   tau(   1) = (  0.5000000  0.0000000  0.5000000  )
         2           Cl  tau(   2) = (  0.8447000  0.3447000  0.5000000  )
         3           Cl  tau(   3) = (  0.1553000  0.6553000  0.5000000  )
         4           Nb  tau(   4) = (  0.0000000  0.0000000  0.0000000  )

     number of k points=   428  Methfessel-Paxton smearing, width (Ry)=  0.0120
                       cart. coord. in units 2pi/alat
        k(    1) = (   0.0000000   0.0000000   0.0000000), wk =   0.0007289
        k(    2) = (   0.1426139   0.1226615   0.0000000), wk =   0.0029155
        k(    3) = (   0.2852278   0.2453230   0.0000000), wk =   0.0029155
        k(    4) = (   0.4278416   0.3679846   0.0000000), wk =   0.0029155
        k(    5) = (   0.5704555   0.4906461   0.0000000), wk =   0.0029155
        k(    6) = (   0.7130694   0.6133076   0.0000000), wk =   0.0029155
        k(    7) = (   0.8556833   0.7359691   0.0000000), wk =   0.0029155
        k(    8) = (  -0.9982971  -0.8586307   0.0000000), wk =   0.0014577
        k(    9) = (   0.1426139   0.0000000   0.0386805), wk =   0.0029155
        k(   10) = (   0.2852278   0.1226615   0.0386805), wk =   0.0058309
        k(   11) = (   0.4278416   0.2453230   0.0386805), wk =   0.0058309
        k(   12) = (   0.5704555   0.3679846   0.0386805), wk =   0.0058309
        k(   13) = (   0.7130694   0.4906461   0.0386805), wk =   0.0058309
        k(   14) = (   0.8556833   0.6133076   0.0386805), wk =   0.0058309
        k(   15) = (   0.9982971   0.7359691   0.0386805), wk =   0.0058309
        k(   16) = (  -0.8556833  -0.8586307   0.0386805), wk =   0.0058309
        k(   17) = (  -0.7130694  -0.7359691   0.0386805), wk =   0.0058309
        k(   18) = (  -0.5704555  -0.6133076   0.0386805), wk =   0.0058309
        k(   19) = (  -0.4278416  -0.4906461   0.0386805), wk =   0.0058309
        k(   20) = (  -0.2852278  -0.3679846   0.0386805), wk =   0.0058309
        k(   21) = (  -0.1426139  -0.2453230   0.0386805), wk =   0.0058309
        k(   22) = (   0.0000000  -0.1226615   0.0386805), wk =   0.0029155
        k(   23) = (   0.2852278   0.0000000   0.0773609), wk =   0.0029155
        k(   24) = (   0.4278416   0.1226615   0.0773609), wk =   0.0058309
        k(   25) = (   0.5704555   0.2453230   0.0773609), wk =   0.0058309
        k(   26) = (   0.7130694   0.3679846   0.0773609), wk =   0.0058309
        k(   27) = (   0.8556833   0.4906461   0.0773609), wk =   0.0058309
        k(   28) = (   0.9982971   0.6133076   0.0773609), wk =   0.0058309
        k(   29) = (   1.1409110   0.7359691   0.0773609), wk =   0.0058309
        k(   30) = (  -0.7130694  -0.8586307   0.0773609), wk =   0.0058309
        k(   31) = (  -0.5704555  -0.7359691   0.0773609), wk =   0.0058309
        k(   32) = (  -0.4278416  -0.6133076   0.0773609), wk =   0.0058309
        k(   33) = (  -0.2852278  -0.4906461   0.0773609), wk =   0.0058309
        k(   34) = (  -0.1426139  -0.3679846   0.0773609), wk =   0.0058309
        k(   35) = (  -0.0000000  -0.2453230   0.0773609), wk =   0.0029155
        k(   36) = (   0.1426139  -0.1226615   0.0773609), wk =   0.0058309
        k(   37) = (   0.4278416   0.0000000   0.1160414), wk =   0.0029155
        k(   38) = (   0.5704555   0.1226615   0.1160414), wk =   0.0058309
        k(   39) = (   0.7130694   0.2453230   0.1160414), wk =   0.0058309
        k(   40) = (   0.8556833   0.3679846   0.1160414), wk =   0.0058309
        k(   41) = (   0.9982971   0.4906461   0.1160414), wk =   0.0058309
        k(   42) = (   1.1409110   0.6133076   0.1160414), wk =   0.0058309
        k(   43) = (   1.2835249   0.7359691   0.1160414), wk =   0.0058309
        k(   44) = (  -0.5704555  -0.8586307   0.1160414), wk =   0.0058309
        k(   45) = (  -0.4278416  -0.7359691   0.1160414), wk =   0.0058309
        k(   46) = (  -0.2852278  -0.6133076   0.1160414), wk =   0.0058309
        k(   47) = (  -0.1426139  -0.4906461   0.1160414), wk =   0.0058309
        k(   48) = (  -0.0000000  -0.3679846   0.1160414), wk =   0.0029155
        k(   49) = (   0.1426139  -0.2453230   0.1160414), wk =   0.0058309
        k(   50) = (   0.2852278  -0.1226615   0.1160414), wk =   0.0058309
        k(   51) = (   0.5704555   0.0000000   0.1547219), wk =   0.0029155
        k(   52) = (   0.7130694   0.1226615   0.1547219), wk =   0.0058309
        k(   53) = (   0.8556833   0.2453230   0.1547219), wk =   0.0058309
        k(   54) = (   0.9982971   0.3679846   0.1547219), wk =   0.0058309
        k(   55) = (   1.1409110   0.4906461   0.1547219), wk =   0.0058309
        k(   56) = (   1.2835249   0.6133076   0.1547219), wk =   0.0058309
        k(   57) = (   1.4261388   0.7359691   0.1547219), wk =   0.0058309
        k(   58) = (  -0.4278416  -0.8586307   0.1547219), wk =   0.0058309
        k(   59) = (  -0.2852278  -0.7359691   0.1547219), wk =   0.0058309
        k(   60) = (  -0.1426139  -0.6133076   0.1547219), wk =   0.0058309
        k(   61) = (   0.0000000  -0.4906461   0.1547219), wk =   0.0029155
        k(   62) = (   0.1426139  -0.3679846   0.1547219), wk =   0.0058309
        k(   63) = (   0.2852278  -0.2453230   0.1547219), wk =   0.0058309
        k(   64) = (   0.4278416  -0.1226615   0.1547219), wk =   0.0058309
        k(   65) = (   0.7130694   0.0000000   0.1934024), wk =   0.0029155
        k(   66) = (   0.8556833   0.1226615   0.1934024), wk =   0.0058309
        k(   67) = (   0.9982971   0.2453230   0.1934024), wk =   0.0058309
        k(   68) = (   1.1409110   0.3679846   0.1934024), wk =   0.0058309
        k(   69) = (   1.2835249   0.4906461   0.1934024), wk =   0.0058309
        k(   70) = (   1.4261388   0.6133076   0.1934024), wk =   0.0058309
        k(   71) = (   1.5687527   0.7359691   0.1934024), wk =   0.0058309
        k(   72) = (  -0.2852278  -0.8586307   0.1934024), wk =   0.0058309
        k(   73) = (  -0.1426139  -0.7359691   0.1934024), wk =   0.0058309
        k(   74) = (   0.0000000  -0.6133076   0.1934024), wk =   0.0029155
        k(   75) = (   0.1426139  -0.4906461   0.1934024), wk =   0.0058309
        k(   76) = (   0.2852278  -0.3679846   0.1934024), wk =   0.0058309
        k(   77) = (   0.4278416  -0.2453230   0.1934024), wk =   0.0058309
        k(   78) = (   0.5704555  -0.1226615   0.1934024), wk =   0.0058309
        k(   79) = (   0.8556833   0.0000000   0.2320828), wk =   0.0029155
        k(   80) = (   0.9982971   0.1226615   0.2320828), wk =   0.0058309
        k(   81) = (   1.1409110   0.2453230   0.2320828), wk =   0.0058309
        k(   82) = (   1.2835249   0.3679846   0.2320828), wk =   0.0058309
        k(   83) = (   1.4261388   0.4906461   0.2320828), wk =   0.0058309
        k(   84) = (   1.5687527   0.6133076   0.2320828), wk =   0.0058309
        k(   85) = (   1.7113665   0.7359691   0.2320828), wk =   0.0058309
        k(   86) = (  -0.1426139  -0.8586307   0.2320828), wk =   0.0058309
        k(   87) = (  -0.0000000  -0.7359691   0.2320828), wk =   0.0029155
        k(   88) = (   0.1426139  -0.6133076   0.2320828), wk =   0.0058309
        k(   89) = (   0.2852278  -0.4906461   0.2320828), wk =   0.0058309
        k(   90) = (   0.4278416  -0.3679846   0.2320828), wk =   0.0058309
        k(   91) = (   0.5704555  -0.2453230   0.2320828), wk =   0.0058309
        k(   92) = (   0.7130694  -0.1226615   0.2320828), wk =   0.0058309
        k(   93) = (  -0.9982971   0.0000000  -0.2707633), wk =   0.0014577
        k(   94) = (  -0.8556833   0.1226615  -0.2707633), wk =   0.0058309
        k(   95) = (  -0.7130694   0.2453230  -0.2707633), wk =   0.0058309
        k(   96) = (  -0.5704555   0.3679846  -0.2707633), wk =   0.0058309
        k(   97) = (  -0.4278416   0.4906461  -0.2707633), wk =   0.0058309
        k(   98) = (  -0.2852278   0.6133076  -0.2707633), wk =   0.0058309
        k(   99) = (  -0.1426139   0.7359691  -0.2707633), wk =   0.0058309
        k(  100) = (  -1.9965943  -0.8586307  -0.2707633), wk =   0.0014577
        k(  101) = (   0.2852278   0.2453230   0.0773609), wk =   0.0058309
        k(  102) = (   0.4278416   0.3679846   0.0773609), wk =   0.0058309
        k(  103) = (   0.5704555   0.4906461   0.0773609), wk =   0.0058309
        k(  104) = (   0.7130694   0.6133076   0.0773609), wk =   0.0058309
        k(  105) = (   0.8556833   0.7359691   0.0773609), wk =   0.0058309
        k(  106) = (   0.9982971   0.8586307   0.0773609), wk =   0.0029155
        k(  107) = (   0.0000000   0.0000000   0.0773609), wk =   0.0014577
        k(  108) = (   0.4278416   0.2453230   0.1160414), wk =   0.0058309
        k(  109) = (   0.5704555   0.3679846   0.1160414), wk =   0.0058309
        k(  110) = (   0.7130694   0.4906461   0.1160414), wk =   0.0058309
        k(  111) = (   0.8556833   0.6133076   0.1160414), wk =   0.0058309
        k(  112) = (   0.9982971   0.7359691   0.1160414), wk =   0.0058309
        k(  113) = (   1.1409110   0.8586307   0.1160414), wk =   0.0058309
        k(  114) = (  -0.7130694  -0.7359691   0.1160414), wk =   0.0058309
        k(  115) = (  -0.5704555  -0.6133076   0.1160414), wk =   0.0058309
        k(  116) = (  -0.4278416  -0.4906461   0.1160414), wk =   0.0058309
        k(  117) = (  -0.2852278  -0.3679846   0.1160414), wk =   0.0058309
        k(  118) = (  -0.0000000  -0.1226615   0.1160414), wk =   0.0029155
        k(  119) = (   0.1426139   0.0000000   0.1160414), wk =   0.0029155
        k(  120) = (   0.5704555   0.2453230   0.1547219), wk =   0.0058309
        k(  121) = (   0.7130694   0.3679846   0.1547219), wk =   0.0058309
        k(  122) = (   0.8556833   0.4906461   0.1547219), wk =   0.0058309
        k(  123) = (   0.9982971   0.6133076   0.1547219), wk =   0.0058309
        k(  124) = (   1.1409110   0.7359691   0.1547219), wk =   0.0058309
        k(  125) = (   1.2835249   0.8586307   0.1547219), wk =   0.0058309
        k(  126) = (  -0.5704555  -0.7359691   0.1547219), wk =   0.0058309
        k(  127) = (  -0.4278416  -0.6133076   0.1547219), wk =   0.0058309
        k(  128) = (  -0.2852278  -0.4906461   0.1547219), wk =   0.0058309
        k(  129) = (  -0.0000000  -0.2453230   0.1547219), wk =   0.0029155
        k(  130) = (   0.1426139  -0.1226615   0.1547219), wk =   0.0058309
        k(  131) = (   0.2852278   0.0000000   0.1547219), wk =   0.0029155
        k(  132) = (   0.7130694   0.2453230   0.1934024), wk =   0.0058309
        k(  133) = (   0.8556833   0.3679846   0.1934024), wk =   0.0058309
        k(  134) = (   0.9982971   0.4906461   0.1934024), wk =   0.0058309
        k(  135) = (   1.1409110   0.6133076   0.1934024), wk =   0.0058309
        k(  136) = (   1.2835249   0.7359691   0.1934024), wk =   0.0058309
        k(  137) = (   1.4261388   0.8586307   0.1934024), wk =   0.0058309
        k(  138) = (  -0.4278416  -0.7359691   0.1934024), wk =   0.0058309
        k(  139) = (  -0.2852278  -0.6133076   0.1934024), wk =   0.0058309
        k(  140) = (   0.0000000  -0.3679846   0.1934024), wk =   0.0029155
        k(  141) = (   0.1426139  -0.2453230   0.1934024), wk =   0.0058309
        k(  142) = (   0.2852278  -0.1226615   0.1934024), wk =   0.0058309
        k(  143) = (   0.4278416   0.0000000   0.1934024), wk =   0.0029155
        k(  144) = (   0.8556833   0.2453230   0.2320828), wk =   0.0058309
        k(  145) = (   0.9982971   0.3679846   0.2320828), wk =   0.0058309
        k(  146) = (   1.1409110   0.4906461   0.2320828), wk =   0.0058309
        k(  147) = (   1.2835249   0.6133076   0.2320828), wk =   0.0058309
        k(  148) = (   1.4261388   0.7359691   0.2320828), wk =   0.0058309
        k(  149) = (   1.5687527   0.8586307   0.2320828), wk =   0.0058309
        k(  150) = (  -0.2852278  -0.7359691   0.2320828), wk =   0.0058309
        k(  151) = (   0.0000000  -0.4906461   0.2320828), wk =   0.0029155
        k(  152) = (   0.1426139  -0.3679846   0.2320828), wk =   0.0058309
        k(  153) = (   0.2852278  -0.2453230   0.2320828), wk =   0.0058309
        k(  154) = (   0.4278416  -0.1226615   0.2320828), wk =   0.0058309
        k(  155) = (   0.5704555   0.0000000   0.2320828), wk =   0.0029155
        k(  156) = (   0.9982971   0.2453230   0.2707633), wk =   0.0029155
        k(  157) = (   1.1409110   0.3679846   0.2707633), wk =   0.0058309
        k(  158) = (   1.2835249   0.4906461   0.2707633), wk =   0.0058309
        k(  159) = (   1.4261388   0.6133076   0.2707633), wk =   0.0058309
        k(  160) = (   1.5687527   0.7359691   0.2707633), wk =   0.0058309
        k(  161) = (   1.7113665   0.8586307   0.2707633), wk =   0.0029155
        k(  162) = (  -0.0000000  -0.6133076   0.2707633), wk =   0.0029155
        k(  163) = (   0.1426139  -0.4906461   0.2707633), wk =   0.0058309
        k(  164) = (   0.2852278  -0.3679846   0.2707633), wk =   0.0058309
        k(  165) = (   0.4278416  -0.2453230   0.2707633), wk =   0.0058309
        k(  166) = (   0.5704555  -0.1226615   0.2707633), wk =   0.0058309
        k(  167) = (   0.7130694   0.0000000   0.2707633), wk =   0.0029155
        k(  168) = (  -0.7130694   0.3679846  -0.2320828), wk =   0.0058309
        k(  169) = (  -0.5704555   0.4906461  -0.2320828), wk =   0.0058309
        k(  170) = (  -0.4278416   0.6133076  -0.2320828), wk =   0.0058309
        k(  171) = (  -1.9965943  -0.7359691  -0.2320828), wk =   0.0029155
        k(  172) = (  -1.8539804  -0.6133076  -0.2320828), wk =   0.0058309
        k(  173) = (  -1.7113665  -0.4906461  -0.2320828), wk =   0.0058309
        k(  174) = (  -1.5687527  -0.3679846  -0.2320828), wk =   0.0058309
        k(  175) = (  -1.4261388  -0.2453230  -0.2320828), wk =   0.0058309
        k(  176) = (  -1.2835249  -0.1226615  -0.2320828), wk =   0.0058309
        k(  177) = (  -1.1409110   0.0000000  -0.2320828), wk =   0.0029155
        k(  178) = (  -0.5704555   0.3679846  -0.1934024), wk =   0.0058309
        k(  179) = (  -0.4278416   0.4906461  -0.1934024), wk =   0.0058309
        k(  180) = (  -0.0000000   0.8586307  -0.1934024), wk =   0.0029155
        k(  181) = (  -1.8539804  -0.7359691  -0.1934024), wk =   0.0058309
        k(  182) = (  -1.7113665  -0.6133076  -0.1934024), wk =   0.0058309
        k(  183) = (  -1.5687527  -0.4906461  -0.1934024), wk =   0.0058309
        k(  184) = (  -1.4261388  -0.3679846  -0.1934024), wk =   0.0058309
        k(  185) = (  -1.2835249  -0.2453230  -0.1934024), wk =   0.0058309
        k(  186) = (  -1.1409110  -0.1226615  -0.1934024), wk =   0.0058309
        k(  187) = (  -0.9982971   0.0000000  -0.1934024), wk =   0.0029155
        k(  188) = (  -0.4278416   0.3679846  -0.1547219), wk =   0.0058309
        k(  189) = (   0.0000000   0.7359691  -0.1547219), wk =   0.0029155
        k(  190) = (   0.1426139   0.8586307  -0.1547219), wk =   0.0058309
        k(  191) = (  -1.7113665  -0.7359691  -0.1547219), wk =   0.0058309
        k(  192) = (  -1.5687527  -0.6133076  -0.1547219), wk =   0.0058309
        k(  193) = (  -1.4261388  -0.4906461  -0.1547219), wk =   0.0058309
        k(  194) = (  -1.2835249  -0.3679846  -0.1547219), wk =   0.0058309
        k(  195) = (  -1.1409110  -0.2453230  -0.1547219), wk =   0.0058309
        k(  196) = (  -0.9982971  -0.1226615  -0.1547219), wk =   0.0058309
        k(  197) = (  -0.8556833   0.0000000  -0.1547219), wk =   0.0029155
        k(  198) = (   0.0000000   0.6133076  -0.1160414), wk =   0.0029155
        k(  199) = (   0.1426139   0.7359691  -0.1160414), wk =   0.0058309
        k(  200) = (   0.2852278   0.8586307  -0.1160414), wk =   0.0058309
        k(  201) = (  -1.5687527  -0.7359691  -0.1160414), wk =   0.0058309
        k(  202) = (  -1.4261388  -0.6133076  -0.1160414), wk =   0.0058309
        k(  203) = (  -1.2835249  -0.4906461  -0.1160414), wk =   0.0058309
        k(  204) = (  -1.1409110  -0.3679846  -0.1160414), wk =   0.0058309
        k(  205) = (  -0.9982971  -0.2453230  -0.1160414), wk =   0.0058309
        k(  206) = (  -0.8556833  -0.1226615  -0.1160414), wk =   0.0058309
        k(  207) = (  -0.7130694   0.0000000  -0.1160414), wk =   0.0029155
        k(  208) = (  -0.0000000   0.4906461  -0.0773609), wk =   0.0029155
        k(  209) = (   0.1426139   0.6133076  -0.0773609), wk =   0.0058309
        k(  210) = (   0.2852278   0.7359691  -0.0773609), wk =   0.0058309
        k(  211) = (   0.4278416   0.8586307  -0.0773609), wk =   0.0058309
        k(  212) = (  -1.4261388  -0.7359691  -0.0773609), wk =   0.0058309
        k(  213) = (  -1.2835249  -0.6133076  -0.0773609), wk =   0.0058309
        k(  214) = (  -1.1409110  -0.4906461  -0.0773609), wk =   0.0058309
        k(  215) = (  -0.9982971  -0.3679846  -0.0773609), wk =   0.0058309
        k(  216) = (  -0.8556833  -0.2453230  -0.0773609), wk =   0.0058309
        k(  217) = (  -0.7130694  -0.1226615  -0.0773609), wk =   0.0058309
        k(  218) = (  -0.5704555   0.0000000  -0.0773609), wk =   0.0029155
        k(  219) = (  -0.0000000   0.3679846  -0.0386805), wk =   0.0029155
        k(  220) = (   0.1426139   0.4906461  -0.0386805), wk =   0.0058309
        k(  221) = (   0.2852278   0.6133076  -0.0386805), wk =   0.0058309
        k(  222) = (   0.4278416   0.7359691  -0.0386805), wk =   0.0058309
        k(  223) = (   0.5704555   0.8586307  -0.0386805), wk =   0.0058309
        k(  224) = (  -1.2835249  -0.7359691  -0.0386805), wk =   0.0058309
        k(  225) = (  -1.1409110  -0.6133076  -0.0386805), wk =   0.0058309
        k(  226) = (  -0.9982971  -0.4906461  -0.0386805), wk =   0.0058309
        k(  227) = (  -0.8556833  -0.3679846  -0.0386805), wk =   0.0058309
        k(  228) = (  -0.7130694  -0.2453230  -0.0386805), wk =   0.0058309
        k(  229) = (  -0.5704555  -0.1226615  -0.0386805), wk =   0.0058309
        k(  230) = (  -0.4278416   0.0000000  -0.0386805), wk =   0.0029155
        k(  231) = (   0.0000000   0.2453230   0.0000000), wk =   0.0014577
        k(  232) = (   0.1426139   0.3679846   0.0000000), wk =   0.0029155
        k(  233) = (   0.2852278   0.4906461   0.0000000), wk =   0.0029155
        k(  234) = (   0.4278416   0.6133076   0.0000000), wk =   0.0029155
        k(  235) = (   0.5704555   0.7359691   0.0000000), wk =   0.0029155
        k(  236) = (   0.7130694   0.8586307   0.0000000), wk =   0.0029155
        k(  237) = (  -1.1409110  -0.7359691   0.0000000), wk =   0.0029155
        k(  238) = (  -0.9982971  -0.6133076   0.0000000), wk =   0.0029155
        k(  239) = (  -0.8556833  -0.4906461   0.0000000), wk =   0.0029155
        k(  240) = (  -0.7130694  -0.3679846   0.0000000), wk =   0.0029155
        k(  241) = (  -0.5704555  -0.2453230   0.0000000), wk =   0.0029155
        k(  242) = (  -0.4278416  -0.1226615   0.0000000), wk =   0.0029155
        k(  243) = (  -0.2852278   0.0000000   0.0000000), wk =   0.0014577
        k(  244) = (   0.5704555   0.4906461   0.1547219), wk =   0.0058309
        k(  245) = (   0.7130694   0.6133076   0.1547219), wk =   0.0058309
        k(  246) = (   0.8556833   0.7359691   0.1547219), wk =   0.0058309
        k(  247) = (   0.9982971   0.8586307   0.1547219), wk =   0.0029155
        k(  248) = (  -0.0000000  -0.0000000   0.1547219), wk =   0.0014577
        k(  249) = (   0.7130694   0.4906461   0.1934024), wk =   0.0058309
        k(  250) = (   0.8556833   0.6133076   0.1934024), wk =   0.0058309
        k(  251) = (   0.9982971   0.7359691   0.1934024), wk =   0.0058309
        k(  252) = (   1.1409110   0.8586307   0.1934024), wk =   0.0058309
        k(  253) = (   1.2835249   0.9812922   0.1934024), wk =   0.0058309
        k(  254) = (  -0.5704555  -0.6133076   0.1934024), wk =   0.0058309
        k(  255) = (  -0.0000000  -0.1226615   0.1934024), wk =   0.0029155
        k(  256) = (   0.1426139  -0.0000000   0.1934024), wk =   0.0029155
        k(  257) = (   0.8556833   0.4906461   0.2320828), wk =   0.0058309
        k(  258) = (   0.9982971   0.6133076   0.2320828), wk =   0.0058309
        k(  259) = (   1.1409110   0.7359691   0.2320828), wk =   0.0058309
        k(  260) = (   1.2835249   0.8586307   0.2320828), wk =   0.0058309
        k(  261) = (   1.4261388   0.9812922   0.2320828), wk =   0.0058309
        k(  262) = (   0.0000000  -0.2453230   0.2320828), wk =   0.0029155
        k(  263) = (   0.1426139  -0.1226615   0.2320828), wk =   0.0058309
        k(  264) = (   0.2852278  -0.0000000   0.2320828), wk =   0.0029155
        k(  265) = (   0.9982971   0.4906461   0.2707633), wk =   0.0029155
        k(  266) = (   1.1409110   0.6133076   0.2707633), wk =   0.0058309
        k(  267) = (   1.2835249   0.7359691   0.2707633), wk =   0.0058309
        k(  268) = (   1.4261388   0.8586307   0.2707633), wk =   0.0029155
        k(  269) = (   0.0000000  -0.3679846   0.2707633), wk =   0.0029155
        k(  270) = (   0.1426139  -0.2453230   0.2707633), wk =   0.0058309
        k(  271) = (   0.2852278  -0.1226615   0.2707633), wk =   0.0058309
        k(  272) = (   0.4278416  -0.0000000   0.2707633), wk =   0.0029155
        k(  273) = (   1.2835249   0.6133076   0.3094438), wk =   0.0058309
        k(  274) = (  -0.0000000  -0.4906461   0.3094438), wk =   0.0029155
        k(  275) = (   0.1426139  -0.3679846   0.3094438), wk =   0.0058309
        k(  276) = (   0.2852278  -0.2453230   0.3094438), wk =   0.0058309
        k(  277) = (   0.4278416  -0.1226615   0.3094438), wk =   0.0058309
        k(  278) = (   0.5704555  -0.0000000   0.3094438), wk =   0.0029155
        k(  279) = (  -1.9965943  -0.6133076  -0.1934024), wk =   0.0029155
        k(  280) = (  -1.8539804  -0.4906461  -0.1934024), wk =   0.0058309
        k(  281) = (  -1.7113665  -0.3679846  -0.1934024), wk =   0.0058309
        k(  282) = (  -1.5687527  -0.2453230  -0.1934024), wk =   0.0058309
        k(  283) = (  -1.4261388  -0.1226615  -0.1934024), wk =   0.0058309
        k(  284) = (  -1.2835249  -0.0000000  -0.1934024), wk =   0.0029155
        k(  285) = (  -0.0000000   0.9812922  -0.1547219), wk =   0.0029155
        k(  286) = (  -1.8539804  -0.6133076  -0.1547219), wk =   0.0058309
        k(  287) = (  -1.7113665  -0.4906461  -0.1547219), wk =   0.0058309
        k(  288) = (  -1.5687527  -0.3679846  -0.1547219), wk =   0.0058309
        k(  289) = (  -1.4261388  -0.2453230  -0.1547219), wk =   0.0058309
        k(  290) = (  -1.2835249  -0.1226615  -0.1547219), wk =   0.0058309
        k(  291) = (  -1.1409110  -0.0000000  -0.1547219), wk =   0.0029155
        k(  292) = (   0.0000000   0.8586307  -0.1160414), wk =   0.0029155
        k(  293) = (   0.1426139   0.9812922  -0.1160414), wk =   0.0058309
        k(  294) = (  -1.7113665  -0.6133076  -0.1160414), wk =   0.0058309
        k(  295) = (  -1.5687527  -0.4906461  -0.1160414), wk =   0.0058309
        k(  296) = (  -1.4261388  -0.3679846  -0.1160414), wk =   0.0058309
        k(  297) = (  -1.2835249  -0.2453230  -0.1160414), wk =   0.0058309
        k(  298) = (  -1.1409110  -0.1226615  -0.1160414), wk =   0.0058309
        k(  299) = (  -0.9982971  -0.0000000  -0.1160414), wk =   0.0029155
        k(  300) = (   0.0000000   0.7359691  -0.0773609), wk =   0.0029155
        k(  301) = (   0.1426139   0.8586307  -0.0773609), wk =   0.0058309
        k(  302) = (   0.2852278   0.9812922  -0.0773609), wk =   0.0058309
        k(  303) = (  -1.5687527  -0.6133076  -0.0773609), wk =   0.0058309
        k(  304) = (  -1.4261388  -0.4906461  -0.0773609), wk =   0.0058309
        k(  305) = (  -1.2835249  -0.3679846  -0.0773609), wk =   0.0058309
        k(  306) = (  -1.1409110  -0.2453230  -0.0773609), wk =   0.0058309
        k(  307) = (  -0.9982971  -0.1226615  -0.0773609), wk =   0.0058309
        k(  308) = (  -0.8556833  -0.0000000  -0.0773609), wk =   0.0029155
        k(  309) = (  -0.0000000   0.6133076  -0.0386805), wk =   0.0029155
        k(  310) = (   0.1426139   0.7359691  -0.0386805), wk =   0.0058309
        k(  311) = (   0.2852278   0.8586307  -0.0386805), wk =   0.0058309
        k(  312) = (   0.4278416   0.9812922  -0.0386805), wk =   0.0058309
        k(  313) = (  -1.4261388  -0.6133076  -0.0386805), wk =   0.0058309
        k(  314) = (  -1.2835249  -0.4906461  -0.0386805), wk =   0.0058309
        k(  315) = (  -1.1409110  -0.3679846  -0.0386805), wk =   0.0058309
        k(  316) = (  -0.9982971  -0.2453230  -0.0386805), wk =   0.0058309
        k(  317) = (  -0.8556833  -0.1226615  -0.0386805), wk =   0.0058309
        k(  318) = (  -0.7130694  -0.0000000  -0.0386805), wk =   0.0029155
        k(  319) = (  -0.0000000   0.4906461  -0.0000000), wk =   0.0014577
        k(  320) = (   0.1426139   0.6133076  -0.0000000), wk =   0.0029155
        k(  321) = (   0.2852278   0.7359691  -0.0000000), wk =   0.0029155
        k(  322) = (   0.4278416   0.8586307  -0.0000000), wk =   0.0029155
        k(  323) = (   0.5704555   0.9812922  -0.0000000), wk =   0.0029155
        k(  324) = (  -1.2835249  -0.6133076  -0.0000000), wk =   0.0029155
        k(  325) = (  -1.1409110  -0.4906461  -0.0000000), wk =   0.0029155
        k(  326) = (  -0.9982971  -0.3679846  -0.0000000), wk =   0.0029155
        k(  327) = (  -0.8556833  -0.2453230  -0.0000000), wk =   0.0029155
        k(  328) = (  -0.7130694  -0.1226615  -0.0000000), wk =   0.0029155
        k(  329) = (  -0.5704555  -0.0000000  -0.0000000), wk =   0.0014577
        k(  330) = (   0.8556833   0.7359691   0.2320828), wk =   0.0058309
        k(  331) = (   0.9982971   0.8586307   0.2320828), wk =   0.0029155
        k(  332) = (  -0.0000000   0.0000000   0.2320828), wk =   0.0014577
        k(  333) = (   0.9982971   0.7359691   0.2707633), wk =   0.0029155
        k(  334) = (   1.1409110   0.8586307   0.2707633), wk =   0.0029155
        k(  335) = (   0.0000000  -0.1226615   0.2707633), wk =   0.0029155
        k(  336) = (   0.1426139   0.0000000   0.2707633), wk =   0.0029155
        k(  337) = (   0.0000000  -0.2453230   0.3094438), wk =   0.0029155
        k(  338) = (   0.1426139  -0.1226615   0.3094438), wk =   0.0058309
        k(  339) = (   0.2852278   0.0000000   0.3094438), wk =   0.0029155
        k(  340) = (  -0.0000000  -0.3679846   0.3481243), wk =   0.0029155
        k(  341) = (   0.1426139  -0.2453230   0.3481243), wk =   0.0058309
        k(  342) = (   0.2852278  -0.1226615   0.3481243), wk =   0.0058309
        k(  343) = (   0.4278416   0.0000000   0.3481243), wk =   0.0029155
        k(  344) = (  -1.9965943  -0.4906461  -0.1547219), wk =   0.0029155
        k(  345) = (  -1.8539804  -0.3679846  -0.1547219), wk =   0.0058309
        k(  346) = (  -1.7113665  -0.2453230  -0.1547219), wk =   0.0058309
        k(  347) = (  -1.5687527  -0.1226615  -0.1547219), wk =   0.0058309
        k(  348) = (  -1.4261388   0.0000000  -0.1547219), wk =   0.0029155
        k(  349) = (  -0.0000000   1.1039537  -0.1160414), wk =   0.0029155
        k(  350) = (  -1.8539804  -0.4906461  -0.1160414), wk =   0.0058309
        k(  351) = (  -1.7113665  -0.3679846  -0.1160414), wk =   0.0058309
        k(  352) = (  -1.5687527  -0.2453230  -0.1160414), wk =   0.0058309
        k(  353) = (  -1.4261388  -0.1226615  -0.1160414), wk =   0.0058309
        k(  354) = (  -1.2835249   0.0000000  -0.1160414), wk =   0.0029155
        k(  355) = (   0.0000000   0.9812922  -0.0773609), wk =   0.0029155
        k(  356) = (   0.1426139   1.1039537  -0.0773609), wk =   0.0058309
        k(  357) = (  -1.7113665  -0.4906461  -0.0773609), wk =   0.0058309
        k(  358) = (  -1.5687527  -0.3679846  -0.0773609), wk =   0.0058309
        k(  359) = (  -1.4261388  -0.2453230  -0.0773609), wk =   0.0058309
        k(  360) = (  -1.2835249  -0.1226615  -0.0773609), wk =   0.0058309
        k(  361) = (  -1.1409110   0.0000000  -0.0773609), wk =   0.0029155
        k(  362) = (   0.0000000   0.8586307  -0.0386805), wk =   0.0029155
        k(  363) = (   0.1426139   0.9812922  -0.0386805), wk =   0.0058309
        k(  364) = (   0.2852278   1.1039537  -0.0386805), wk =   0.0058309
        k(  365) = (  -1.5687527  -0.4906461  -0.0386805), wk =   0.0058309
        k(  366) = (  -1.4261388  -0.3679846  -0.0386805), wk =   0.0058309
        k(  367) = (  -1.2835249  -0.2453230  -0.0386805), wk =   0.0058309
        k(  368) = (  -1.1409110  -0.1226615  -0.0386805), wk =   0.0058309
        k(  369) = (  -0.9982971   0.0000000  -0.0386805), wk =   0.0029155
        k(  370) = (  -0.0000000   0.7359691  -0.0000000), wk =   0.0014577
        k(  371) = (   0.1426139   0.8586307  -0.0000000), wk =   0.0029155
        k(  372) = (   0.2852278   0.9812922  -0.0000000), wk =   0.0029155
        k(  373) = (   0.4278416   1.1039537  -0.0000000), wk =   0.0029155
        k(  374) = (  -1.4261388  -0.4906461  -0.0000000), wk =   0.0029155
        k(  375) = (  -1.2835249  -0.3679846  -0.0000000), wk =   0.0029155
        k(  376) = (  -1.1409110  -0.2453230  -0.0000000), wk =   0.0029155
        k(  377) = (  -0.9982971  -0.1226615  -0.0000000), wk =   0.0029155
        k(  378) = (  -0.8556833   0.0000000  -0.0000000), wk =   0.0014577
        k(  379) = (   0.0000000   0.0000000   0.3094438), wk =   0.0014577
        k(  380) = (   0.0000000  -0.1226615   0.3481243), wk =   0.0029155
        k(  381) = (   0.1426139   0.0000000   0.3481243), wk =   0.0029155
        k(  382) = (  -0.0000000  -0.2453230   0.3868047), wk =   0.0029155
        k(  383) = (   0.1426139  -0.1226615   0.3868047), wk =   0.0058309
        k(  384) = (   0.2852278   0.0000000   0.3868047), wk =   0.0029155
        k(  385) = (  -1.9965943  -0.3679846  -0.1160414), wk =   0.0029155
        k(  386) = (  -1.8539804  -0.2453230  -0.1160414), wk =   0.0058309
        k(  387) = (  -1.7113665  -0.1226615  -0.1160414), wk =   0.0058309
        k(  388) = (  -1.5687527   0.0000000  -0.1160414), wk =   0.0029155
        k(  389) = (  -0.0000000   1.2266152  -0.0773609), wk =   0.0029155
        k(  390) = (  -1.8539804  -0.3679846  -0.0773609), wk =   0.0058309
        k(  391) = (  -1.7113665  -0.2453230  -0.0773609), wk =   0.0058309
        k(  392) = (  -1.5687527  -0.1226615  -0.0773609), wk =   0.0058309
        k(  393) = (  -1.4261388   0.0000000  -0.0773609), wk =   0.0029155
        k(  394) = (   0.0000000   1.1039537  -0.0386805), wk =   0.0029155
        k(  395) = (   0.1426139   1.2266152  -0.0386805), wk =   0.0058309
        k(  396) = (  -1.7113665  -0.3679846  -0.0386805), wk =   0.0058309
        k(  397) = (  -1.5687527  -0.2453230  -0.0386805), wk =   0.0058309
        k(  398) = (  -1.4261388  -0.1226615  -0.0386805), wk =   0.0058309
        k(  399) = (  -1.2835249   0.0000000  -0.0386805), wk =   0.0029155
        k(  400) = (   0.0000000   0.9812922   0.0000000), wk =   0.0014577
        k(  401) = (   0.1426139   1.1039537   0.0000000), wk =   0.0029155
        k(  402) = (   0.2852278   1.2266152   0.0000000), wk =   0.0029155
        k(  403) = (  -1.5687527  -0.3679846   0.0000000), wk =   0.0029155
        k(  404) = (  -1.4261388  -0.2453230   0.0000000), wk =   0.0029155
        k(  405) = (  -1.2835249  -0.1226615   0.0000000), wk =   0.0029155
        k(  406) = (  -1.1409110   0.0000000   0.0000000), wk =   0.0014577
        k(  407) = (   0.0000000   0.0000000   0.3868047), wk =   0.0014577
        k(  408) = (  -0.0000000  -0.1226615   0.4254852), wk =   0.0029155
        k(  409) = (   0.1426139   0.0000000   0.4254852), wk =   0.0029155
        k(  410) = (  -1.9965943  -0.2453230  -0.0773609), wk =   0.0029155
        k(  411) = (  -1.8539804  -0.1226615  -0.0773609), wk =   0.0058309
        k(  412) = (  -1.7113665   0.0000000  -0.0773609), wk =   0.0029155
        k(  413) = (  -0.0000000   1.3492768  -0.0386805), wk =   0.0029155
        k(  414) = (  -1.8539804  -0.2453230  -0.0386805), wk =   0.0058309
        k(  415) = (  -1.7113665  -0.1226615  -0.0386805), wk =   0.0058309
        k(  416) = (  -1.5687527   0.0000000  -0.0386805), wk =   0.0029155
        k(  417) = (   0.0000000   1.2266152   0.0000000), wk =   0.0014577
        k(  418) = (   0.1426139   1.3492768   0.0000000), wk =   0.0029155
        k(  419) = (  -1.7113665  -0.2453230   0.0000000), wk =   0.0029155
        k(  420) = (  -1.5687527  -0.1226615   0.0000000), wk =   0.0029155
        k(  421) = (  -1.4261388   0.0000000   0.0000000), wk =   0.0014577
        k(  422) = (  -0.0000000   0.0000000   0.4641657), wk =   0.0014577
        k(  423) = (  -1.9965943  -0.1226615  -0.0386805), wk =   0.0029155
        k(  424) = (  -1.8539804   0.0000000  -0.0386805), wk =   0.0029155
        k(  425) = (  -0.0000000   1.4719383  -0.0000000), wk =   0.0014577
        k(  426) = (  -1.8539804  -0.1226615  -0.0000000), wk =   0.0029155
        k(  427) = (  -1.7113665   0.0000000  -0.0000000), wk =   0.0014577
        k(  428) = (  -1.9965943  -1.7172613  -0.5415266), wk =   0.0007289

                       cryst. coord.
        k(    1) = (   0.0000000   0.0000000   0.0000000), wk =   0.0007289
        k(    2) = (  -0.0000000   0.0000000   0.0714286), wk =   0.0029155
        k(    3) = (  -0.0000000   0.0000000   0.1428571), wk =   0.0029155
        k(    4) = (  -0.0000000   0.0000000   0.2142857), wk =   0.0029155
        k(    5) = (  -0.0000000   0.0000000   0.2857143), wk =   0.0029155
        k(    6) = (  -0.0000000   0.0000000   0.3571429), wk =   0.0029155
        k(    7) = (  -0.0000000   0.0000000   0.4285714), wk =   0.0029155
        k(    8) = (   0.0000000   0.0000000  -0.5000000), wk =   0.0014577
        k(    9) = (  -0.0000000   0.0714286   0.0000000), wk =   0.0029155
        k(   10) = (  -0.0000000   0.0714286   0.0714286), wk =   0.0058309
        k(   11) = (  -0.0000000   0.0714286   0.1428571), wk =   0.0058309
        k(   12) = (  -0.0000000   0.0714286   0.2142857), wk =   0.0058309
        k(   13) = (  -0.0000000   0.0714286   0.2857143), wk =   0.0058309
        k(   14) = (  -0.0000000   0.0714286   0.3571429), wk =   0.0058309
        k(   15) = (  -0.0000000   0.0714286   0.4285714), wk =   0.0058309
        k(   16) = (   0.0000000   0.0714286  -0.5000000), wk =   0.0058309
        k(   17) = (   0.0000000   0.0714286  -0.4285714), wk =   0.0058309
        k(   18) = (   0.0000000   0.0714286  -0.3571429), wk =   0.0058309
        k(   19) = (   0.0000000   0.0714286  -0.2857143), wk =   0.0058309
        k(   20) = (   0.0000000   0.0714286  -0.2142857), wk =   0.0058309
        k(   21) = (   0.0000000   0.0714286  -0.1428571), wk =   0.0058309
        k(   22) = (   0.0000000   0.0714286  -0.0714286), wk =   0.0029155
        k(   23) = (  -0.0000000   0.1428571   0.0000000), wk =   0.0029155
        k(   24) = (  -0.0000000   0.1428571   0.0714286), wk =   0.0058309
        k(   25) = (  -0.0000000   0.1428571   0.1428571), wk =   0.0058309
        k(   26) = (  -0.0000000   0.1428571   0.2142857), wk =   0.0058309
        k(   27) = (  -0.0000000   0.1428571   0.2857143), wk =   0.0058309
        k(   28) = (   0.0000000   0.1428571   0.3571429), wk =   0.0058309
        k(   29) = (  -0.0000000   0.1428571   0.4285714), wk =   0.0058309
        k(   30) = (   0.0000000   0.1428571  -0.5000000), wk =   0.0058309
        k(   31) = (   0.0000000   0.1428571  -0.4285714), wk =   0.0058309
        k(   32) = (   0.0000000   0.1428571  -0.3571429), wk =   0.0058309
        k(   33) = (   0.0000000   0.1428571  -0.2857143), wk =   0.0058309
        k(   34) = (   0.0000000   0.1428571  -0.2142857), wk =   0.0058309
        k(   35) = (   0.0000000   0.1428571  -0.1428571), wk =   0.0029155
        k(   36) = (   0.0000000   0.1428571  -0.0714286), wk =   0.0058309
        k(   37) = (  -0.0000000   0.2142857   0.0000000), wk =   0.0029155
        k(   38) = (  -0.0000000   0.2142857   0.0714286), wk =   0.0058309
        k(   39) = (  -0.0000000   0.2142857   0.1428571), wk =   0.0058309
        k(   40) = (  -0.0000000   0.2142857   0.2142857), wk =   0.0058309
        k(   41) = (  -0.0000000   0.2142857   0.2857143), wk =   0.0058309
        k(   42) = (  -0.0000000   0.2142857   0.3571429), wk =   0.0058309
        k(   43) = (   0.0000000   0.2142857   0.4285714), wk =   0.0058309
        k(   44) = (   0.0000000   0.2142857  -0.5000000), wk =   0.0058309
        k(   45) = (   0.0000000   0.2142857  -0.4285714), wk =   0.0058309
        k(   46) = (   0.0000000   0.2142857  -0.3571429), wk =   0.0058309
        k(   47) = (   0.0000000   0.2142857  -0.2857143), wk =   0.0058309
        k(   48) = (   0.0000000   0.2142857  -0.2142857), wk =   0.0029155
        k(   49) = (   0.0000000   0.2142857  -0.1428571), wk =   0.0058309
        k(   50) = (  -0.0000000   0.2142857  -0.0714286), wk =   0.0058309
        k(   51) = (  -0.0000000   0.2857143   0.0000000), wk =   0.0029155
        k(   52) = (  -0.0000000   0.2857143   0.0714286), wk =   0.0058309
        k(   53) = (  -0.0000000   0.2857143   0.1428571), wk =   0.0058309
        k(   54) = (   0.0000000   0.2857143   0.2142857), wk =   0.0058309
        k(   55) = (  -0.0000000   0.2857143   0.2857143), wk =   0.0058309
        k(   56) = (  -0.0000000   0.2857143   0.3571429), wk =   0.0058309
        k(   57) = (  -0.0000000   0.2857143   0.4285714), wk =   0.0058309
        k(   58) = (   0.0000000   0.2857143  -0.5000000), wk =   0.0058309
        k(   59) = (   0.0000000   0.2857143  -0.4285714), wk =   0.0058309
        k(   60) = (   0.0000000   0.2857143  -0.3571429), wk =   0.0058309
        k(   61) = (   0.0000000   0.2857143  -0.2857143), wk =   0.0029155
        k(   62) = (   0.0000000   0.2857143  -0.2142857), wk =   0.0058309
        k(   63) = (   0.0000000   0.2857143  -0.1428571), wk =   0.0058309
        k(   64) = (  -0.0000000   0.2857143  -0.0714286), wk =   0.0058309
        k(   65) = (  -0.0000000   0.3571429   0.0000000), wk =   0.0029155
        k(   66) = (  -0.0000000   0.3571429   0.0714286), wk =   0.0058309
        k(   67) = (   0.0000000   0.3571429   0.1428571), wk =   0.0058309
        k(   68) = (  -0.0000000   0.3571429   0.2142857), wk =   0.0058309
        k(   69) = (  -0.0000000   0.3571429   0.2857143), wk =   0.0058309
        k(   70) = (  -0.0000000   0.3571429   0.3571429), wk =   0.0058309
        k(   71) = (   0.0000000   0.3571429   0.4285714), wk =   0.0058309
        k(   72) = (   0.0000000   0.3571429  -0.5000000), wk =   0.0058309
        k(   73) = (   0.0000000   0.3571429  -0.4285714), wk =   0.0058309
        k(   74) = (   0.0000000   0.3571429  -0.3571429), wk =   0.0029155
        k(   75) = (   0.0000000   0.3571429  -0.2857143), wk =   0.0058309
        k(   76) = (   0.0000000   0.3571429  -0.2142857), wk =   0.0058309
        k(   77) = (  -0.0000000   0.3571429  -0.1428571), wk =   0.0058309
        k(   78) = (  -0.0000000   0.3571429  -0.0714286), wk =   0.0058309
        k(   79) = (  -0.0000000   0.4285714   0.0000000), wk =   0.0029155
        k(   80) = (  -0.0000000   0.4285714   0.0714286), wk =   0.0058309
        k(   81) = (  -0.0000000   0.4285714   0.1428571), wk =   0.0058309
        k(   82) = (   0.0000000   0.4285714   0.2142857), wk =   0.0058309
        k(   83) = (  -0.0000000   0.4285714   0.2857143), wk =   0.0058309
        k(   84) = (   0.0000000   0.4285714   0.3571429), wk =   0.0058309
        k(   85) = (  -0.0000000   0.4285714   0.4285714), wk =   0.0058309
        k(   86) = (   0.0000000   0.4285714  -0.5000000), wk =   0.0058309
        k(   87) = (   0.0000000   0.4285714  -0.4285714), wk =   0.0029155
        k(   88) = (   0.0000000   0.4285714  -0.3571429), wk =   0.0058309
        k(   89) = (   0.0000000   0.4285714  -0.2857143), wk =   0.0058309
        k(   90) = (   0.0000000   0.4285714  -0.2142857), wk =   0.0058309
        k(   91) = (  -0.0000000   0.4285714  -0.1428571), wk =   0.0058309
        k(   92) = (  -0.0000000   0.4285714  -0.0714286), wk =   0.0058309
        k(   93) = (   0.0000000  -0.5000000   0.0000000), wk =   0.0014577
        k(   94) = (   0.0000000  -0.5000000   0.0714286), wk =   0.0058309
        k(   95) = (   0.0000000  -0.5000000   0.1428571), wk =   0.0058309
        k(   96) = (   0.0000000  -0.5000000   0.2142857), wk =   0.0058309
        k(   97) = (   0.0000000  -0.5000000   0.2857143), wk =   0.0058309
        k(   98) = (   0.0000000  -0.5000000   0.3571429), wk =   0.0058309
        k(   99) = (   0.0000000  -0.5000000   0.4285714), wk =   0.0058309
        k(  100) = (   0.0000000  -0.5000000  -0.5000000), wk =   0.0014577
        k(  101) = (   0.0714286   0.0714286   0.0714286), wk =   0.0058309
        k(  102) = (   0.0714286   0.0714286   0.1428571), wk =   0.0058309
        k(  103) = (   0.0714286   0.0714286   0.2142857), wk =   0.0058309
        k(  104) = (   0.0714286   0.0714286   0.2857143), wk =   0.0058309
        k(  105) = (   0.0714286   0.0714286   0.3571429), wk =   0.0058309
        k(  106) = (   0.0714286   0.0714286   0.4285714), wk =   0.0029155
        k(  107) = (   0.0714286   0.0714286  -0.0714286), wk =   0.0014577
        k(  108) = (   0.0714286   0.1428571   0.0714286), wk =   0.0058309
        k(  109) = (   0.0714286   0.1428571   0.1428571), wk =   0.0058309
        k(  110) = (   0.0714286   0.1428571   0.2142857), wk =   0.0058309
        k(  111) = (   0.0714286   0.1428571   0.2857143), wk =   0.0058309
        k(  112) = (   0.0714286   0.1428571   0.3571429), wk =   0.0058309
        k(  113) = (   0.0714286   0.1428571   0.4285714), wk =   0.0058309
        k(  114) = (   0.0714286   0.1428571  -0.5000000), wk =   0.0058309
        k(  115) = (   0.0714286   0.1428571  -0.4285714), wk =   0.0058309
        k(  116) = (   0.0714286   0.1428571  -0.3571429), wk =   0.0058309
        k(  117) = (   0.0714286   0.1428571  -0.2857143), wk =   0.0058309
        k(  118) = (   0.0714286   0.1428571  -0.1428571), wk =   0.0029155
        k(  119) = (   0.0714286   0.1428571  -0.0714286), wk =   0.0029155
        k(  120) = (   0.0714286   0.2142857   0.0714286), wk =   0.0058309
        k(  121) = (   0.0714286   0.2142857   0.1428571), wk =   0.0058309
        k(  122) = (   0.0714286   0.2142857   0.2142857), wk =   0.0058309
        k(  123) = (   0.0714286   0.2142857   0.2857143), wk =   0.0058309
        k(  124) = (   0.0714286   0.2142857   0.3571429), wk =   0.0058309
        k(  125) = (   0.0714286   0.2142857   0.4285714), wk =   0.0058309
        k(  126) = (   0.0714286   0.2142857  -0.5000000), wk =   0.0058309
        k(  127) = (   0.0714286   0.2142857  -0.4285714), wk =   0.0058309
        k(  128) = (   0.0714286   0.2142857  -0.3571429), wk =   0.0058309
        k(  129) = (   0.0714286   0.2142857  -0.2142857), wk =   0.0029155
        k(  130) = (   0.0714286   0.2142857  -0.1428571), wk =   0.0058309
        k(  131) = (   0.0714286   0.2142857  -0.0714286), wk =   0.0029155
        k(  132) = (   0.0714286   0.2857143   0.0714286), wk =   0.0058309
        k(  133) = (   0.0714286   0.2857143   0.1428571), wk =   0.0058309
        k(  134) = (   0.0714286   0.2857143   0.2142857), wk =   0.0058309
        k(  135) = (   0.0714286   0.2857143   0.2857143), wk =   0.0058309
        k(  136) = (   0.0714286   0.2857143   0.3571429), wk =   0.0058309
        k(  137) = (   0.0714286   0.2857143   0.4285714), wk =   0.0058309
        k(  138) = (   0.0714286   0.2857143  -0.5000000), wk =   0.0058309
        k(  139) = (   0.0714286   0.2857143  -0.4285714), wk =   0.0058309
        k(  140) = (   0.0714286   0.2857143  -0.2857143), wk =   0.0029155
        k(  141) = (   0.0714286   0.2857143  -0.2142857), wk =   0.0058309
        k(  142) = (   0.0714286   0.2857143  -0.1428571), wk =   0.0058309
        k(  143) = (   0.0714286   0.2857143  -0.0714286), wk =   0.0029155
        k(  144) = (   0.0714286   0.3571429   0.0714286), wk =   0.0058309
        k(  145) = (   0.0714286   0.3571429   0.1428571), wk =   0.0058309
        k(  146) = (   0.0714286   0.3571429   0.2142857), wk =   0.0058309
        k(  147) = (   0.0714286   0.3571429   0.2857143), wk =   0.0058309
        k(  148) = (   0.0714286   0.3571429   0.3571429), wk =   0.0058309
        k(  149) = (   0.0714286   0.3571429   0.4285714), wk =   0.0058309
        k(  150) = (   0.0714286   0.3571429  -0.5000000), wk =   0.0058309
        k(  151) = (   0.0714286   0.3571429  -0.3571429), wk =   0.0029155
        k(  152) = (   0.0714286   0.3571429  -0.2857143), wk =   0.0058309
        k(  153) = (   0.0714286   0.3571429  -0.2142857), wk =   0.0058309
        k(  154) = (   0.0714286   0.3571429  -0.1428571), wk =   0.0058309
        k(  155) = (   0.0714286   0.3571429  -0.0714286), wk =   0.0029155
        k(  156) = (   0.0714286   0.4285714   0.0714286), wk =   0.0029155
        k(  157) = (   0.0714286   0.4285714   0.1428571), wk =   0.0058309
        k(  158) = (   0.0714286   0.4285714   0.2142857), wk =   0.0058309
        k(  159) = (   0.0714286   0.4285714   0.2857143), wk =   0.0058309
        k(  160) = (   0.0714286   0.4285714   0.3571429), wk =   0.0058309
        k(  161) = (   0.0714286   0.4285714   0.4285714), wk =   0.0029155
        k(  162) = (   0.0714286   0.4285714  -0.4285714), wk =   0.0029155
        k(  163) = (   0.0714286   0.4285714  -0.3571429), wk =   0.0058309
        k(  164) = (   0.0714286   0.4285714  -0.2857143), wk =   0.0058309
        k(  165) = (   0.0714286   0.4285714  -0.2142857), wk =   0.0058309
        k(  166) = (   0.0714286   0.4285714  -0.1428571), wk =   0.0058309
        k(  167) = (   0.0714286   0.4285714  -0.0714286), wk =   0.0029155
        k(  168) = (   0.0714286  -0.5000000   0.1428571), wk =   0.0058309
        k(  169) = (   0.0714286  -0.5000000   0.2142857), wk =   0.0058309
        k(  170) = (   0.0714286  -0.5000000   0.2857143), wk =   0.0058309
        k(  171) = (   0.0714286  -0.5000000  -0.5000000), wk =   0.0029155
        k(  172) = (   0.0714286  -0.5000000  -0.4285714), wk =   0.0058309
        k(  173) = (   0.0714286  -0.5000000  -0.3571429), wk =   0.0058309
        k(  174) = (   0.0714286  -0.5000000  -0.2857143), wk =   0.0058309
        k(  175) = (   0.0714286  -0.5000000  -0.2142857), wk =   0.0058309
        k(  176) = (   0.0714286  -0.5000000  -0.1428571), wk =   0.0058309
        k(  177) = (   0.0714286  -0.5000000  -0.0714286), wk =   0.0029155
        k(  178) = (   0.0714286  -0.4285714   0.1428571), wk =   0.0058309
        k(  179) = (   0.0714286  -0.4285714   0.2142857), wk =   0.0058309
        k(  180) = (   0.0714286  -0.4285714   0.4285714), wk =   0.0029155
        k(  181) = (   0.0714286  -0.4285714  -0.5000000), wk =   0.0058309
        k(  182) = (   0.0714286  -0.4285714  -0.4285714), wk =   0.0058309
        k(  183) = (   0.0714286  -0.4285714  -0.3571429), wk =   0.0058309
        k(  184) = (   0.0714286  -0.4285714  -0.2857143), wk =   0.0058309
        k(  185) = (   0.0714286  -0.4285714  -0.2142857), wk =   0.0058309
        k(  186) = (   0.0714286  -0.4285714  -0.1428571), wk =   0.0058309
        k(  187) = (   0.0714286  -0.4285714  -0.0714286), wk =   0.0029155
        k(  188) = (   0.0714286  -0.3571429   0.1428571), wk =   0.0058309
        k(  189) = (   0.0714286  -0.3571429   0.3571429), wk =   0.0029155
        k(  190) = (   0.0714286  -0.3571429   0.4285714), wk =   0.0058309
        k(  191) = (   0.0714286  -0.3571429  -0.5000000), wk =   0.0058309
        k(  192) = (   0.0714286  -0.3571429  -0.4285714), wk =   0.0058309
        k(  193) = (   0.0714286  -0.3571429  -0.3571429), wk =   0.0058309
        k(  194) = (   0.0714286  -0.3571429  -0.2857143), wk =   0.0058309
        k(  195) = (   0.0714286  -0.3571429  -0.2142857), wk =   0.0058309
        k(  196) = (   0.0714286  -0.3571429  -0.1428571), wk =   0.0058309
        k(  197) = (   0.0714286  -0.3571429  -0.0714286), wk =   0.0029155
        k(  198) = (   0.0714286  -0.2857143   0.2857143), wk =   0.0029155
        k(  199) = (   0.0714286  -0.2857143   0.3571429), wk =   0.0058309
        k(  200) = (   0.0714286  -0.2857143   0.4285714), wk =   0.0058309
        k(  201) = (   0.0714286  -0.2857143  -0.5000000), wk =   0.0058309
        k(  202) = (   0.0714286  -0.2857143  -0.4285714), wk =   0.0058309
        k(  203) = (   0.0714286  -0.2857143  -0.3571429), wk =   0.0058309
        k(  204) = (   0.0714286  -0.2857143  -0.2857143), wk =   0.0058309
        k(  205) = (   0.0714286  -0.2857143  -0.2142857), wk =   0.0058309
        k(  206) = (   0.0714286  -0.2857143  -0.1428571), wk =   0.0058309
        k(  207) = (   0.0714286  -0.2857143  -0.0714286), wk =   0.0029155
        k(  208) = (   0.0714286  -0.2142857   0.2142857), wk =   0.0029155
        k(  209) = (   0.0714286  -0.2142857   0.2857143), wk =   0.0058309
        k(  210) = (   0.0714286  -0.2142857   0.3571429), wk =   0.0058309
        k(  211) = (   0.0714286  -0.2142857   0.4285714), wk =   0.0058309
        k(  212) = (   0.0714286  -0.2142857  -0.5000000), wk =   0.0058309
        k(  213) = (   0.0714286  -0.2142857  -0.4285714), wk =   0.0058309
        k(  214) = (   0.0714286  -0.2142857  -0.3571429), wk =   0.0058309
        k(  215) = (   0.0714286  -0.2142857  -0.2857143), wk =   0.0058309
        k(  216) = (   0.0714286  -0.2142857  -0.2142857), wk =   0.0058309
        k(  217) = (   0.0714286  -0.2142857  -0.1428571), wk =   0.0058309
        k(  218) = (   0.0714286  -0.2142857  -0.0714286), wk =   0.0029155
        k(  219) = (   0.0714286  -0.1428571   0.1428571), wk =   0.0029155
        k(  220) = (   0.0714286  -0.1428571   0.2142857), wk =   0.0058309
        k(  221) = (   0.0714286  -0.1428571   0.2857143), wk =   0.0058309
        k(  222) = (   0.0714286  -0.1428571   0.3571429), wk =   0.0058309
        k(  223) = (   0.0714286  -0.1428571   0.4285714), wk =   0.0058309
        k(  224) = (   0.0714286  -0.1428571  -0.5000000), wk =   0.0058309
        k(  225) = (   0.0714286  -0.1428571  -0.4285714), wk =   0.0058309
        k(  226) = (   0.0714286  -0.1428571  -0.3571429), wk =   0.0058309
        k(  227) = (   0.0714286  -0.1428571  -0.2857143), wk =   0.0058309
        k(  228) = (   0.0714286  -0.1428571  -0.2142857), wk =   0.0058309
        k(  229) = (   0.0714286  -0.1428571  -0.1428571), wk =   0.0058309
        k(  230) = (   0.0714286  -0.1428571  -0.0714286), wk =   0.0029155
        k(  231) = (   0.0714286  -0.0714286   0.0714286), wk =   0.0014577
        k(  232) = (   0.0714286  -0.0714286   0.1428571), wk =   0.0029155
        k(  233) = (   0.0714286  -0.0714286   0.2142857), wk =   0.0029155
        k(  234) = (   0.0714286  -0.0714286   0.2857143), wk =   0.0029155
        k(  235) = (   0.0714286  -0.0714286   0.3571429), wk =   0.0029155
        k(  236) = (   0.0714286  -0.0714286   0.4285714), wk =   0.0029155
        k(  237) = (   0.0714286  -0.0714286  -0.5000000), wk =   0.0029155
        k(  238) = (   0.0714286  -0.0714286  -0.4285714), wk =   0.0029155
        k(  239) = (   0.0714286  -0.0714286  -0.3571429), wk =   0.0029155
        k(  240) = (   0.0714286  -0.0714286  -0.2857143), wk =   0.0029155
        k(  241) = (   0.0714286  -0.0714286  -0.2142857), wk =   0.0029155
        k(  242) = (   0.0714286  -0.0714286  -0.1428571), wk =   0.0029155
        k(  243) = (   0.0714286  -0.0714286  -0.0714286), wk =   0.0014577
        k(  244) = (   0.1428571   0.1428571   0.1428571), wk =   0.0058309
        k(  245) = (   0.1428571   0.1428571   0.2142857), wk =   0.0058309
        k(  246) = (   0.1428571   0.1428571   0.2857143), wk =   0.0058309
        k(  247) = (   0.1428571   0.1428571   0.3571429), wk =   0.0029155
        k(  248) = (   0.1428571   0.1428571  -0.1428571), wk =   0.0014577
        k(  249) = (   0.1428571   0.2142857   0.1428571), wk =   0.0058309
        k(  250) = (   0.1428571   0.2142857   0.2142857), wk =   0.0058309
        k(  251) = (   0.1428571   0.2142857   0.2857143), wk =   0.0058309
        k(  252) = (   0.1428571   0.2142857   0.3571429), wk =   0.0058309
        k(  253) = (   0.1428571   0.2142857   0.4285714), wk =   0.0058309
        k(  254) = (   0.1428571   0.2142857  -0.5000000), wk =   0.0058309
        k(  255) = (   0.1428571   0.2142857  -0.2142857), wk =   0.0029155
        k(  256) = (   0.1428571   0.2142857  -0.1428571), wk =   0.0029155
        k(  257) = (   0.1428571   0.2857143   0.1428571), wk =   0.0058309
        k(  258) = (   0.1428571   0.2857143   0.2142857), wk =   0.0058309
        k(  259) = (   0.1428571   0.2857143   0.2857143), wk =   0.0058309
        k(  260) = (   0.1428571   0.2857143   0.3571429), wk =   0.0058309
        k(  261) = (   0.1428571   0.2857143   0.4285714), wk =   0.0058309
        k(  262) = (   0.1428571   0.2857143  -0.2857143), wk =   0.0029155
        k(  263) = (   0.1428571   0.2857143  -0.2142857), wk =   0.0058309
        k(  264) = (   0.1428571   0.2857143  -0.1428571), wk =   0.0029155
        k(  265) = (   0.1428571   0.3571429   0.1428571), wk =   0.0029155
        k(  266) = (   0.1428571   0.3571429   0.2142857), wk =   0.0058309
        k(  267) = (   0.1428571   0.3571429   0.2857143), wk =   0.0058309
        k(  268) = (   0.1428571   0.3571429   0.3571429), wk =   0.0029155
        k(  269) = (   0.1428571   0.3571429  -0.3571429), wk =   0.0029155
        k(  270) = (   0.1428571   0.3571429  -0.2857143), wk =   0.0058309
        k(  271) = (   0.1428571   0.3571429  -0.2142857), wk =   0.0058309
        k(  272) = (   0.1428571   0.3571429  -0.1428571), wk =   0.0029155
        k(  273) = (   0.1428571   0.4285714   0.2142857), wk =   0.0058309
        k(  274) = (   0.1428571   0.4285714  -0.4285714), wk =   0.0029155
        k(  275) = (   0.1428571   0.4285714  -0.3571429), wk =   0.0058309
        k(  276) = (   0.1428571   0.4285714  -0.2857143), wk =   0.0058309
        k(  277) = (   0.1428571   0.4285714  -0.2142857), wk =   0.0058309
        k(  278) = (   0.1428571   0.4285714  -0.1428571), wk =   0.0029155
        k(  279) = (   0.1428571  -0.5000000  -0.5000000), wk =   0.0029155
        k(  280) = (   0.1428571  -0.5000000  -0.4285714), wk =   0.0058309
        k(  281) = (   0.1428571  -0.5000000  -0.3571429), wk =   0.0058309
        k(  282) = (   0.1428571  -0.5000000  -0.2857143), wk =   0.0058309
        k(  283) = (   0.1428571  -0.5000000  -0.2142857), wk =   0.0058309
        k(  284) = (   0.1428571  -0.5000000  -0.1428571), wk =   0.0029155
        k(  285) = (   0.1428571  -0.4285714   0.4285714), wk =   0.0029155
        k(  286) = (   0.1428571  -0.4285714  -0.5000000), wk =   0.0058309
        k(  287) = (   0.1428571  -0.4285714  -0.4285714), wk =   0.0058309
        k(  288) = (   0.1428571  -0.4285714  -0.3571429), wk =   0.0058309
        k(  289) = (   0.1428571  -0.4285714  -0.2857143), wk =   0.0058309
        k(  290) = (   0.1428571  -0.4285714  -0.2142857), wk =   0.0058309
        k(  291) = (   0.1428571  -0.4285714  -0.1428571), wk =   0.0029155
        k(  292) = (   0.1428571  -0.3571429   0.3571429), wk =   0.0029155
        k(  293) = (   0.1428571  -0.3571429   0.4285714), wk =   0.0058309
        k(  294) = (   0.1428571  -0.3571429  -0.5000000), wk =   0.0058309
        k(  295) = (   0.1428571  -0.3571429  -0.4285714), wk =   0.0058309
        k(  296) = (   0.1428571  -0.3571429  -0.3571429), wk =   0.0058309
        k(  297) = (   0.1428571  -0.3571429  -0.2857143), wk =   0.0058309
        k(  298) = (   0.1428571  -0.3571429  -0.2142857), wk =   0.0058309
        k(  299) = (   0.1428571  -0.3571429  -0.1428571), wk =   0.0029155
        k(  300) = (   0.1428571  -0.2857143   0.2857143), wk =   0.0029155
        k(  301) = (   0.1428571  -0.2857143   0.3571429), wk =   0.0058309
        k(  302) = (   0.1428571  -0.2857143   0.4285714), wk =   0.0058309
        k(  303) = (   0.1428571  -0.2857143  -0.5000000), wk =   0.0058309
        k(  304) = (   0.1428571  -0.2857143  -0.4285714), wk =   0.0058309
        k(  305) = (   0.1428571  -0.2857143  -0.3571429), wk =   0.0058309
        k(  306) = (   0.1428571  -0.2857143  -0.2857143), wk =   0.0058309
        k(  307) = (   0.1428571  -0.2857143  -0.2142857), wk =   0.0058309
        k(  308) = (   0.1428571  -0.2857143  -0.1428571), wk =   0.0029155
        k(  309) = (   0.1428571  -0.2142857   0.2142857), wk =   0.0029155
        k(  310) = (   0.1428571  -0.2142857   0.2857143), wk =   0.0058309
        k(  311) = (   0.1428571  -0.2142857   0.3571429), wk =   0.0058309
        k(  312) = (   0.1428571  -0.2142857   0.4285714), wk =   0.0058309
        k(  313) = (   0.1428571  -0.2142857  -0.5000000), wk =   0.0058309
        k(  314) = (   0.1428571  -0.2142857  -0.4285714), wk =   0.0058309
        k(  315) = (   0.1428571  -0.2142857  -0.3571429), wk =   0.0058309
        k(  316) = (   0.1428571  -0.2142857  -0.2857143), wk =   0.0058309
        k(  317) = (   0.1428571  -0.2142857  -0.2142857), wk =   0.0058309
        k(  318) = (   0.1428571  -0.2142857  -0.1428571), wk =   0.0029155
        k(  319) = (   0.1428571  -0.1428571   0.1428571), wk =   0.0014577
        k(  320) = (   0.1428571  -0.1428571   0.2142857), wk =   0.0029155
        k(  321) = (   0.1428571  -0.1428571   0.2857143), wk =   0.0029155
        k(  322) = (   0.1428571  -0.1428571   0.3571429), wk =   0.0029155
        k(  323) = (   0.1428571  -0.1428571   0.4285714), wk =   0.0029155
        k(  324) = (   0.1428571  -0.1428571  -0.5000000), wk =   0.0029155
        k(  325) = (   0.1428571  -0.1428571  -0.4285714), wk =   0.0029155
        k(  326) = (   0.1428571  -0.1428571  -0.3571429), wk =   0.0029155
        k(  327) = (   0.1428571  -0.1428571  -0.2857143), wk =   0.0029155
        k(  328) = (   0.1428571  -0.1428571  -0.2142857), wk =   0.0029155
        k(  329) = (   0.1428571  -0.1428571  -0.1428571), wk =   0.0014577
        k(  330) = (   0.2142857   0.2142857   0.2142857), wk =   0.0058309
        k(  331) = (   0.2142857   0.2142857   0.2857143), wk =   0.0029155
        k(  332) = (   0.2142857   0.2142857  -0.2142857), wk =   0.0014577
        k(  333) = (   0.2142857   0.2857143   0.2142857), wk =   0.0029155
        k(  334) = (   0.2142857   0.2857143   0.2857143), wk =   0.0029155
        k(  335) = (   0.2142857   0.2857143  -0.2857143), wk =   0.0029155
        k(  336) = (   0.2142857   0.2857143  -0.2142857), wk =   0.0029155
        k(  337) = (   0.2142857   0.3571429  -0.3571429), wk =   0.0029155
        k(  338) = (   0.2142857   0.3571429  -0.2857143), wk =   0.0058309
        k(  339) = (   0.2142857   0.3571429  -0.2142857), wk =   0.0029155
        k(  340) = (   0.2142857   0.4285714  -0.4285714), wk =   0.0029155
        k(  341) = (   0.2142857   0.4285714  -0.3571429), wk =   0.0058309
        k(  342) = (   0.2142857   0.4285714  -0.2857143), wk =   0.0058309
        k(  343) = (   0.2142857   0.4285714  -0.2142857), wk =   0.0029155
        k(  344) = (   0.2142857  -0.5000000  -0.5000000), wk =   0.0029155
        k(  345) = (   0.2142857  -0.5000000  -0.4285714), wk =   0.0058309
        k(  346) = (   0.2142857  -0.5000000  -0.3571429), wk =   0.0058309
        k(  347) = (   0.2142857  -0.5000000  -0.2857143), wk =   0.0058309
        k(  348) = (   0.2142857  -0.5000000  -0.2142857), wk =   0.0029155
        k(  349) = (   0.2142857  -0.4285714   0.4285714), wk =   0.0029155
        k(  350) = (   0.2142857  -0.4285714  -0.5000000), wk =   0.0058309
        k(  351) = (   0.2142857  -0.4285714  -0.4285714), wk =   0.0058309
        k(  352) = (   0.2142857  -0.4285714  -0.3571429), wk =   0.0058309
        k(  353) = (   0.2142857  -0.4285714  -0.2857143), wk =   0.0058309
        k(  354) = (   0.2142857  -0.4285714  -0.2142857), wk =   0.0029155
        k(  355) = (   0.2142857  -0.3571429   0.3571429), wk =   0.0029155
        k(  356) = (   0.2142857  -0.3571429   0.4285714), wk =   0.0058309
        k(  357) = (   0.2142857  -0.3571429  -0.5000000), wk =   0.0058309
        k(  358) = (   0.2142857  -0.3571429  -0.4285714), wk =   0.0058309
        k(  359) = (   0.2142857  -0.3571429  -0.3571429), wk =   0.0058309
        k(  360) = (   0.2142857  -0.3571429  -0.2857143), wk =   0.0058309
        k(  361) = (   0.2142857  -0.3571429  -0.2142857), wk =   0.0029155
        k(  362) = (   0.2142857  -0.2857143   0.2857143), wk =   0.0029155
        k(  363) = (   0.2142857  -0.2857143   0.3571429), wk =   0.0058309
        k(  364) = (   0.2142857  -0.2857143   0.4285714), wk =   0.0058309
        k(  365) = (   0.2142857  -0.2857143  -0.5000000), wk =   0.0058309
        k(  366) = (   0.2142857  -0.2857143  -0.4285714), wk =   0.0058309
        k(  367) = (   0.2142857  -0.2857143  -0.3571429), wk =   0.0058309
        k(  368) = (   0.2142857  -0.2857143  -0.2857143), wk =   0.0058309
        k(  369) = (   0.2142857  -0.2857143  -0.2142857), wk =   0.0029155
        k(  370) = (   0.2142857  -0.2142857   0.2142857), wk =   0.0014577
        k(  371) = (   0.2142857  -0.2142857   0.2857143), wk =   0.0029155
        k(  372) = (   0.2142857  -0.2142857   0.3571429), wk =   0.0029155
        k(  373) = (   0.2142857  -0.2142857   0.4285714), wk =   0.0029155
        k(  374) = (   0.2142857  -0.2142857  -0.5000000), wk =   0.0029155
        k(  375) = (   0.2142857  -0.2142857  -0.4285714), wk =   0.0029155
        k(  376) = (   0.2142857  -0.2142857  -0.3571429), wk =   0.0029155
        k(  377) = (   0.2142857  -0.2142857  -0.2857143), wk =   0.0029155
        k(  378) = (   0.2142857  -0.2142857  -0.2142857), wk =   0.0014577
        k(  379) = (   0.2857143   0.2857143  -0.2857143), wk =   0.0014577
        k(  380) = (   0.2857143   0.3571429  -0.3571429), wk =   0.0029155
        k(  381) = (   0.2857143   0.3571429  -0.2857143), wk =   0.0029155
        k(  382) = (   0.2857143   0.4285714  -0.4285714), wk =   0.0029155
        k(  383) = (   0.2857143   0.4285714  -0.3571429), wk =   0.0058309
        k(  384) = (   0.2857143   0.4285714  -0.2857143), wk =   0.0029155
        k(  385) = (   0.2857143  -0.5000000  -0.5000000), wk =   0.0029155
        k(  386) = (   0.2857143  -0.5000000  -0.4285714), wk =   0.0058309
        k(  387) = (   0.2857143  -0.5000000  -0.3571429), wk =   0.0058309
        k(  388) = (   0.2857143  -0.5000000  -0.2857143), wk =   0.0029155
        k(  389) = (   0.2857143  -0.4285714   0.4285714), wk =   0.0029155
        k(  390) = (   0.2857143  -0.4285714  -0.5000000), wk =   0.0058309
        k(  391) = (   0.2857143  -0.4285714  -0.4285714), wk =   0.0058309
        k(  392) = (   0.2857143  -0.4285714  -0.3571429), wk =   0.0058309
        k(  393) = (   0.2857143  -0.4285714  -0.2857143), wk =   0.0029155
        k(  394) = (   0.2857143  -0.3571429   0.3571429), wk =   0.0029155
        k(  395) = (   0.2857143  -0.3571429   0.4285714), wk =   0.0058309
        k(  396) = (   0.2857143  -0.3571429  -0.5000000), wk =   0.0058309
        k(  397) = (   0.2857143  -0.3571429  -0.4285714), wk =   0.0058309
        k(  398) = (   0.2857143  -0.3571429  -0.3571429), wk =   0.0058309
        k(  399) = (   0.2857143  -0.3571429  -0.2857143), wk =   0.0029155
        k(  400) = (   0.2857143  -0.2857143   0.2857143), wk =   0.0014577
        k(  401) = (   0.2857143  -0.2857143   0.3571429), wk =   0.0029155
        k(  402) = (   0.2857143  -0.2857143   0.4285714), wk =   0.0029155
        k(  403) = (   0.2857143  -0.2857143  -0.5000000), wk =   0.0029155
        k(  404) = (   0.2857143  -0.2857143  -0.4285714), wk =   0.0029155
        k(  405) = (   0.2857143  -0.2857143  -0.3571429), wk =   0.0029155
        k(  406) = (   0.2857143  -0.2857143  -0.2857143), wk =   0.0014577
        k(  407) = (   0.3571429   0.3571429  -0.3571429), wk =   0.0014577
        k(  408) = (   0.3571429   0.4285714  -0.4285714), wk =   0.0029155
        k(  409) = (   0.3571429   0.4285714  -0.3571429), wk =   0.0029155
        k(  410) = (   0.3571429  -0.5000000  -0.5000000), wk =   0.0029155
        k(  411) = (   0.3571429  -0.5000000  -0.4285714), wk =   0.0058309
        k(  412) = (   0.3571429  -0.5000000  -0.3571429), wk =   0.0029155
        k(  413) = (   0.3571429  -0.4285714   0.4285714), wk =   0.0029155
        k(  414) = (   0.3571429  -0.4285714  -0.5000000), wk =   0.0058309
        k(  415) = (   0.3571429  -0.4285714  -0.4285714), wk =   0.0058309
        k(  416) = (   0.3571429  -0.4285714  -0.3571429), wk =   0.0029155
        k(  417) = (   0.3571429  -0.3571429   0.3571429), wk =   0.0014577
        k(  418) = (   0.3571429  -0.3571429   0.4285714), wk =   0.0029155
        k(  419) = (   0.3571429  -0.3571429  -0.5000000), wk =   0.0029155
        k(  420) = (   0.3571429  -0.3571429  -0.4285714), wk =   0.0029155
        k(  421) = (   0.3571429  -0.3571429  -0.3571429), wk =   0.0014577
        k(  422) = (   0.4285714   0.4285714  -0.4285714), wk =   0.0014577
        k(  423) = (   0.4285714  -0.5000000  -0.5000000), wk =   0.0029155
        k(  424) = (   0.4285714  -0.5000000  -0.4285714), wk =   0.0029155
        k(  425) = (   0.4285714  -0.4285714   0.4285714), wk =   0.0014577
        k(  426) = (   0.4285714  -0.4285714  -0.5000000), wk =   0.0029155
        k(  427) = (   0.4285714  -0.4285714  -0.4285714), wk =   0.0014577
        k(  428) = (  -0.5000000  -0.5000000  -0.5000000), wk =   0.0007289

     Dense  grid:    74033 G-vectors     FFT dimensions: (  81,  81,  81)

     Smooth grid:    18773 G-vectors     FFT dimensions: (  54,  54,  54)

     Dynamical RAM for                 wfc:       0.02 MB

     Dynamical RAM for     wfc (w. buffer):       6.60 MB

     Dynamical RAM for           str. fact:       0.07 MB

     Dynamical RAM for           local pot:       0.00 MB

     Dynamical RAM for          nlocal pot:       0.03 MB

     Dynamical RAM for                qrad:       4.82 MB

     Dynamical RAM for          rho,v,vnew:       0.37 MB

     Dynamical RAM for               rhoin:       0.12 MB

     Dynamical RAM for            rho*nmix:       0.38 MB

     Dynamical RAM for           G-vectors:       0.09 MB

     Dynamical RAM for          h,s,v(r/c):       0.08 MB

     Dynamical RAM for          <psi|beta>:       0.01 MB

     Dynamical RAM for                 psi:       0.03 MB

     Dynamical RAM for                hpsi:       0.03 MB

     Dynamical RAM for                spsi:       0.03 MB

     Dynamical RAM for      wfcinit/wfcrot:       0.05 MB

     Dynamical RAM for           addusdens:       4.42 MB

     Dynamical RAM for          addusforce:       4.49 MB

     Dynamical RAM for         addusstress:       4.73 MB

     Estimated static dynamical RAM per process >      13.07 MB

     Estimated max dynamical RAM per process >      17.80 MB

     Estimated total dynamical RAM >     854.50 MB

     Check: negative core charge=   -0.000001

     Initial potential from superposition of free atoms

     starting charge   32.99867, renormalised to   33.00000
     Starting wfcs are   25 randomized atomic wfcs
     Checking if some PAW data can be deallocated... 
       PAW data deallocated on   36 nodes for type:  1
       PAW data deallocated on   24 nodes for type:  2
       PAW data deallocated on   36 nodes for type:  3

     total cpu time spent up to now is        4.8 secs

     Self-consistent Calculation

     iteration #  1     ecut=    40.00 Ry     beta= 0.70
     Davidson diagonalization with overlap
     ethr =  1.00E-02,  avg # of iterations =  2.1

     total cpu time spent up to now is       14.8 secs

     total energy              =    -534.52014308 Ry
     estimated scf accuracy    <       0.75969358 Ry

     iteration #  2     ecut=    40.00 Ry     beta= 0.70
     Davidson diagonalization with overlap
     ethr =  2.30E-03,  avg # of iterations =  3.4

     total cpu time spent up to now is       26.8 secs

     total energy              =    -533.62288547 Ry
     estimated scf accuracy    <       8.34413792 Ry

     iteration #  3     ecut=    40.00 Ry     beta= 0.70
     Davidson diagonalization with overlap
     ethr =  2.30E-03,  avg # of iterations =  3.0

     total cpu time spent up to now is       37.9 secs

     total energy              =    -534.96445832 Ry
     estimated scf accuracy    <       0.12123742 Ry

     iteration #  4     ecut=    40.00 Ry     beta= 0.70
     Davidson diagonalization with overlap
     ethr =  3.67E-04,  avg # of iterations =  1.3

     total cpu time spent up to now is       46.8 secs

     total energy              =    -534.95758544 Ry
     estimated scf accuracy    <       0.05879376 Ry

     iteration #  5     ecut=    40.00 Ry     beta= 0.70
     Davidson diagonalization with overlap
     ethr =  1.78E-04,  avg # of iterations =  1.0

     total cpu time spent up to now is       55.5 secs

     total energy              =    -534.95347896 Ry
     estimated scf accuracy    <       0.02361957 Ry

     iteration #  6     ecut=    40.00 Ry     beta= 0.70
     Davidson diagonalization with overlap
     ethr =  7.16E-05,  avg # of iterations =  2.0

     total cpu time spent up to now is       64.9 secs

     total energy              =    -534.95627954 Ry
     estimated scf accuracy    <       0.00047226 Ry

     iteration #  7     ecut=    40.00 Ry     beta= 0.70
     Davidson diagonalization with overlap
     ethr =  1.43E-06,  avg # of iterations =  3.2

     total cpu time spent up to now is       76.9 secs

     total energy              =    -534.95642515 Ry
     estimated scf accuracy    <       0.00013699 Ry

     iteration #  8     ecut=    40.00 Ry     beta= 0.70
     Davidson diagonalization with overlap
     ethr =  4.15E-07,  avg # of iterations =  1.0

     total cpu time spent up to now is       85.6 secs

     total energy              =    -534.95642124 Ry
     estimated scf accuracy    <       0.00003003 Ry

     iteration #  9     ecut=    40.00 Ry     beta= 0.70
     Davidson diagonalization with overlap
     ethr =  9.10E-08,  avg # of iterations =  2.0

     total cpu time spent up to now is       95.5 secs

     total energy              =    -534.95642793 Ry
     estimated scf accuracy    <       0.00000098 Ry

     iteration # 10     ecut=    40.00 Ry     beta= 0.70
     Davidson diagonalization with overlap
     ethr =  2.96E-09,  avg # of iterations =  2.2

     total cpu time spent up to now is      105.6 secs

     total energy              =    -534.95642810 Ry
     estimated scf accuracy    <       0.00000004 Ry

     iteration # 11     ecut=    40.00 Ry     beta= 0.70
     Davidson diagonalization with overlap
     ethr =  1.15E-10,  avg # of iterations =  3.5

     total cpu time spent up to now is      117.5 secs

     total energy              =    -534.95642812 Ry
     estimated scf accuracy    <       0.00000002 Ry

     iteration # 12     ecut=    40.00 Ry     beta= 0.70
     Davidson diagonalization with overlap
[...]

   -49.8407 -26.1356 -25.7906 -25.7087 -12.3652  -9.2887  -9.0496   1.2975
     2.2536   2.6629   2.6649   2.8611   3.2946   3.5825   3.8679   4.0210
     5.5863   7.3391   7.5827   8.9899  10.0157

     occupation numbers 
     1.0000   1.0000   1.0000   1.0000   1.0000   1.0000   1.0000   1.0000
     1.0000   1.0000   1.0000   1.0000   1.0000   1.0000   1.0000   1.0000
     1.0000  -0.0000  -0.0000  -0.0000  -0.0000

          k = 0.1426 0.0000 0.4255 (  2350 PWs)   bands (ev):

   -49.8402 -26.1254 -25.7891 -25.7198 -12.4190  -9.2792  -9.0377   1.3273
     2.1309   2.6704   2.7814   3.1779   3.3475   3.4876   3.8358   3.9564
     5.7808   7.1429   7.4758   8.8963   9.9034

     occupation numbers 
     1.0000   1.0000   1.0000   1.0000   1.0000   1.0000   1.0000   1.0000
     1.0000   1.0000   1.0000   1.0000   1.0000   1.0000   1.0000   1.0000
     1.0000  -0.0009  -0.0000  -0.0000  -0.0000

          k =-1.9966-0.2453-0.0774 (  2344 PWs)   bands (ev):

   -49.8402 -26.1616 -25.7897 -25.7079 -12.1943  -9.2363  -9.0801   1.3394
     2.1209   2.2461   2.4073   2.6828   3.1667   3.3145   3.9046   4.1448
     5.6038   7.7261   7.8104   9.0026  10.3759

     occupation numbers 
     1.0000   1.0000   1.0000   1.0000   1.0000   1.0000   1.0000   1.0000
     1.0000   1.0000   1.0000   1.0000   1.0000   1.0000   1.0000   1.0000
     1.0000  -0.0000  -0.0000  -0.0000  -0.0000

          k =-1.8540-0.1227-0.0774 (  2351 PWs)   bands (ev):

   -49.8400 -26.1347 -25.7887 -25.7195 -12.3594  -9.2431  -9.0675   1.4067
     2.0442   2.5967   2.6677   3.0236   3.1507   3.5983   3.8764   3.8787
     5.7882   7.2914   7.5571   8.9161  10.0733

     occupation numbers 
     1.0000   1.0000   1.0000   1.0000   1.0000   1.0000   1.0000   1.0000
     1.0000   1.0000   1.0000   1.0000   1.0000   1.0000   1.0000   1.0000
     1.0000  -0.0000  -0.0000  -0.0000  -0.0000

          k =-1.7114 0.0000-0.0774 (  2339 PWs)   bands (ev):

   -49.8382 -26.1230 -25.7837 -25.7500 -12.4030  -9.2138  -9.0196   1.4364
     1.8001   2.6359   2.7790   2.8149   3.4582   3.6797   3.7821   3.8050
     6.2129   7.0214   7.3734   8.7414   9.9542

     occupation numbers 
     1.0000   1.0000   1.0000   1.0000   1.0000   1.0000   1.0000   1.0000
     1.0000   1.0000   1.0000   1.0000   1.0000   1.0000   1.0000   1.0000
     1.0000  -0.0144  -0.0000  -0.0000  -0.0000

          k =-0.0000 1.3493-0.0387 (  2339 PWs)   bands (ev):

   -49.8396 -26.1988 -25.7883 -25.7067 -11.9360  -9.1759  -9.1067   1.2217
     1.5999   1.8376   2.2558   2.6929   2.9682   3.0768   3.8329   4.3208
     5.6279   8.1805   8.2376   8.9997  10.7041

     occupation numbers 
     1.0000   1.0000   1.0000   1.0000   1.0000   1.0000   1.0000   1.0000
     1.0000   1.0000   1.0000   1.0000   1.0000   1.0000   1.0000   1.0000
     1.0000  -0.0000  -0.0000  -0.0000  -0.0000

          k =-1.8540-0.2453-0.0387 (  2349 PWs)   bands (ev):

   -49.8395 -26.1607 -25.7878 -25.7187 -12.1887  -9.1944  -9.0932   1.4212
     2.0019   2.2407   2.2723   2.8878   3.0055   3.3539   3.7269   4.1643
     5.8038   7.6795   7.7843   8.9287  10.4270

     occupation numbers 
     1.0000   1.0000   1.0000   1.0000   1.0000   1.0000   1.0000   1.0000
     1.0000   1.0000   1.0000   1.0000   1.0000   1.0000   1.0000   1.0000
     1.0000  -0.0000  -0.0000  -0.0000  -0.0000

          k =-1.7114-0.1227-0.0387 (  2341 PWs)   bands (ev):

   -49.8380 -26.1323 -25.7834 -25.7496 -12.3435  -9.1900  -9.0358   1.5187
     1.7045   2.5898   2.6506   2.7524   3.2654   3.5415   3.7468   3.9611
     6.2211   7.1691   7.4574   8.7527  10.1114

     occupation numbers 
     1.0000   1.0000   1.0000   1.0000   1.0000   1.0000   1.0000   1.0000
     1.0000   1.0000   1.0000   1.0000   1.0000   1.0000   1.0000   1.0000
     1.0001  -0.0004  -0.0000  -0.0000  -0.0000

          k =-1.5688 0.0000-0.0387 (  2345 PWs)   bands (ev):

   -49.8352 -26.1196 -25.7933 -25.7761 -12.3799  -9.1580  -8.9503   1.3276
     1.6288   2.2564   2.6601   2.8716   3.6019   3.6728   3.7224   3.8685
     6.7241   6.8759   7.2001   8.6767   9.9219

     occupation numbers 
     1.0000   1.0000   1.0000   1.0000   1.0000   1.0000   1.0000   1.0000
     1.0000   1.0000   1.0000   1.0000   1.0000   1.0000   1.0000   1.0000
     0.5172  -0.0130  -0.0002  -0.0000  -0.0000

          k = 0.0000 1.2266 0.0000 (  2344 PWs)   bands (ev):

   -49.8388 -26.2396 -25.7867 -25.7053 -11.6306  -9.1503  -9.0937   0.6135
     1.3479   1.4349   2.3304   2.6934   2.7488   2.9150   3.8203   4.3657
     5.6512   8.6418   8.7704   8.9817  10.8901

     occupation numbers 
     1.0000   1.0000   1.0000   1.0000   1.0000   1.0000   1.0000   1.0000
     1.0000   1.0000   1.0000   1.0000   1.0000   1.0000   1.0000   1.0000
     1.0000  -0.0000  -0.0000  -0.0000  -0.0000

          k = 0.1426 1.3493 0.0000 (  2334 PWs)   bands (ev):

   -49.8388 -26.1979 -25.7864 -25.7174 -11.9305  -9.1394  -9.1134   1.2513
     1.6377   1.8302   2.0577   2.7800   2.8674   3.1973   3.6157   4.3196
     5.8228   8.1550   8.1936   8.9329  10.7560

     occupation numbers 
     1.0000   1.0000   1.0000   1.0000   1.0000   1.0000   1.0000   1.0000
     1.0000   1.0000   1.0000   1.0000   1.0000   1.0000   1.0000   1.0000
     1.0000  -0.0000  -0.0000  -0.0000  -0.0000

          k =-1.7114-0.2453 0.0000 (  2343 PWs)   bands (ev):

   -49.8375 -26.1583 -25.7825 -25.7488 -12.1730  -9.1585  -9.0438   1.5232
     1.6577   2.2644   2.3062   2.6381   3.1203   3.2571   3.5895   4.1940
     6.2313   7.5588   7.7031   8.7739  10.4684

     occupation numbers 
     1.0000   1.0000   1.0000   1.0000   1.0000   1.0000   1.0000   1.0000
     1.0000   1.0000   1.0000   1.0000   1.0000   1.0000   1.0000   1.0000
     1.0001  -0.0000  -0.0000  -0.0000  -0.0000

          k =-1.5688-0.1227 0.0000 (  2347 PWs)   bands (ev):

   -49.8351 -26.1289 -25.7930 -25.7757 -12.3206  -9.1477  -8.9524   1.3450
     1.6071   2.2252   2.5846   2.7555   3.4315   3.4348   3.7254   4.0364
     6.7285   7.0213   7.3003   8.6845  10.0764

     occupation numbers 
     1.0000   1.0000   1.0000   1.0000   1.0000   1.0000   1.0000   1.0000
     1.0000   1.0000   1.0000   1.0000   1.0000   1.0000   1.0000   1.0000
     0.4941  -0.0144  -0.0000  -0.0000  -0.0000

          k =-1.4261 0.0000 0.0000 (  2348 PWs)   bands (ev):

   -49.8320 -26.1158 -25.8410 -25.7675 -12.3544  -9.1100  -8.8562   1.1331
     1.3465   2.0696   2.5785   2.9512   3.6446   3.6486   3.7610   3.8929
     6.7576   6.9863   7.2733   8.8101   9.8229

     occupation numbers 
     1.0000   1.0000   1.0000   1.0000   1.0000   1.0000   1.0000   1.0000
     1.0000   1.0000   1.0000   1.0000   1.0000   1.0000   1.0000   1.0000
     0.3463  -0.0237  -0.0000  -0.0000  -0.0000

          k =-0.0000 0.0000 0.4642 (  2356 PWs)   bands (ev):

   -49.8409 -26.1262 -25.7910 -25.7090 -12.4246  -9.2650  -9.0845   1.3892
     2.1989   2.6792   2.7649   3.3196   3.3380   3.3537   3.8059   4.0626
     5.5808   7.1904   7.5244   9.0125   9.8943

     occupation numbers 
     1.0000   1.0000   1.0000   1.0000   1.0000   1.0000   1.0000   1.0000
     1.0000   1.0000   1.0000   1.0000   1.0000   1.0000   1.0000   1.0000
     1.0000  -0.0002  -0.0000  -0.0000  -0.0000

          k =-1.9966-0.1227-0.0387 (  2352 PWs)   bands (ev):

   -49.8407 -26.1356 -25.7907 -25.7087 -12.3650  -9.2292  -9.1130   1.4390
     2.1433   2.6432   2.6901   2.8376   3.2780   3.6025   3.8203   3.9983
     5.5874   7.3391   7.5993   9.0225  10.0633

     occupation numbers 
     1.0000   1.0000   1.0000   1.0000   1.0000   1.0000   1.0000   1.0000
     1.0000   1.0000   1.0000   1.0000   1.0000   1.0000   1.0000   1.0000
     1.0000  -0.0000  -0.0000  -0.0000  -0.0000

          k =-1.8540 0.0000-0.0387 (  2352 PWs)   bands (ev):

   -49.8402 -26.1254 -25.7891 -25.7198 -12.4189  -9.2271  -9.0934   1.4866
     1.9747   2.6988   2.7753   3.1537   3.4043   3.4609   3.7755   3.9363
     5.7852   7.1422   7.4921   8.9266   9.9301

     occupation numbers 
     1.0000   1.0000   1.0000   1.0000   1.0000   1.0000   1.0000   1.0000
     1.0000   1.0000   1.0000   1.0000   1.0000   1.0000   1.0000   1.0000
     1.0000  -0.0010  -0.0000  -0.0000  -0.0000

          k =-0.0000 1.4719-0.0000 (  2354 PWs)   bands (ev):

   -49.8403 -26.1616 -25.7897 -25.7079 -12.1942  -9.1887  -9.1298   1.4046
     2.1490   2.2236   2.3335   2.6948   3.1615   3.2974   3.8910   4.1480
     5.6051   7.7261   7.8165   9.0180  10.4045

     occupation numbers 
     1.0000   1.0000   1.0000   1.0000   1.0000   1.0000   1.0000   1.0000
     1.0000   1.0000   1.0000   1.0000   1.0000   1.0000   1.0000   1.0000
     1.0000  -0.0000  -0.0000  -0.0000  -0.0000

          k =-1.8540-0.1227-0.0000 (  2357 PWs)   bands (ev):

   -49.8400 -26.1347 -25.7888 -25.7195 -12.3593  -9.2075  -9.1048   1.4990
     1.9572   2.6192   2.6516   3.0376   3.1257   3.6053   3.8564   3.8672
     5.7907   7.2911   7.5642   8.9312  10.0887

     occupation numbers 
     1.0000   1.0000   1.0000   1.0000   1.0000   1.0000   1.0000   1.0000
     1.0000   1.0000   1.0000   1.0000   1.0000   1.0000   1.0000   1.0000
     1.0000  -0.0000  -0.0000  -0.0000  -0.0000

          k =-1.7114 0.0000-0.0000 (  2338 PWs)   bands (ev):

   -49.8382 -26.1230 -25.7838 -25.7499 -12.4029  -9.1926  -9.0420   1.5996
     1.6304   2.6974   2.7215   2.8111   3.4941   3.7033   3.7472   3.7729
     6.2202   7.0196   7.3785   8.7468   9.9530

     occupation numbers 
     1.0000   1.0000   1.0000   1.0000   1.0000   1.0000   1.0000   1.0000
     1.0000   1.0000   1.0000   1.0000   1.0000   1.0000   1.0000   1.0000
     1.0001  -0.0148  -0.0000  -0.0000  -0.0000

          k =-1.9966-1.7173-0.5415 (  2366 PWs)   bands (ev):

   -49.8409 -26.1262 -25.7911 -25.7091 -12.4245  -9.2251  -9.1265   1.4789
     2.1109   2.6928   2.7622   3.3091   3.3207   3.3848   3.7718   4.0521
     5.5808   7.1904   7.5341   9.0295   9.9160

     occupation numbers 
     1.0000   1.0000   1.0000   1.0000   1.0000   1.0000   1.0000   1.0000
     1.0000   1.0000   1.0000   1.0000   1.0000   1.0000   1.0000   1.0000
     1.0000  -0.0002  -0.0000  -0.0000  -0.0000

     the Fermi energy is     6.7274 ev

!    total energy              =    -534.95642812 Ry

     total all-electron energy =     -9636.846671 Ry
     estimated scf accuracy    <          6.2E-11 Ry
     smearing contrib. (-TS)   =      -0.00028466 Ry
     internal energy E=F+TS    =    -534.95614346 Ry

     The total energy is F=E-TS. E is the sum of the following terms:
     one-electron contribution =     -93.91235554 Ry
     hartree contribution      =      61.20000691 Ry
     xc contribution           =     -39.53714512 Ry
     ewald contribution        =    -135.48921389 Ry
     one-center paw contrib.   =    -327.21743582 Ry
      -> PAW hartree energy AE =      28.87203837 Ry
      -> PAW hartree energy PS =     -28.84192064 Ry
      -> PAW xc energy AE      =     -17.00953002 Ry
      -> PAW xc energy PS      =       7.38471777 Ry
      -> total E_H with PAW    =      61.23012464 Ry
      -> total E_XC with PAW   =     -49.16195738 Ry

     convergence has been achieved in  12 iterations

     Forces acting on atoms (cartesian axes, Ry/au):

     atom    1 type  1   force =     0.00000000    0.00000000    0.00000000
     atom    2 type  2   force =     0.00000000    0.00000000    0.03517122
     atom    3 type  2   force =     0.00000000    0.00000000   -0.03517122
     atom    4 type  3   force =    -0.00000000   -0.00000000    0.00000000
     The non-local contrib.  to forces
     atom    1 type  1   force =     0.00000000    0.00000000    0.00000000
     atom    2 type  2   force =     0.00000000    0.00000000    0.14572537
     atom    3 type  2   force =     0.00000000    0.00000000   -0.14572537
     atom    4 type  3   force =    -0.00000000   -0.00000000    0.00000000
     The ionic contribution  to forces
     atom    1 type  1   force =    -0.00000000   -0.00000000    0.00000000
     atom    2 type  2   force =     0.00000001    0.00000000  -10.07462875
     atom    3 type  2   force =    -0.00000001   -0.00000000   10.07462875
     atom    4 type  3   force =    -0.00000000   -0.00000000    0.00000000
     The local contribution  to forces
     atom    1 type  1   force =     0.00000000    0.00000000   -0.00000000
     atom    2 type  2   force =     0.00000002   -0.00000003    9.96385969
     atom    3 type  2   force =    -0.00000002    0.00000003   -9.96385969
     atom    4 type  3   force =    -0.00000000   -0.00000000    0.00000000
     The core correction contribution to forces
     atom    1 type  1   force =     0.00000000    0.00000000    0.00000000
     atom    2 type  2   force =    -0.00000000    0.00000000    0.00019889
     atom    3 type  2   force =     0.00000000   -0.00000000   -0.00019889
     atom    4 type  3   force =     0.00000000    0.00000000    0.00000000
     The Hubbard contrib.    to forces
     atom    1 type  1   force =     0.00000000    0.00000000    0.00000000
     atom    2 type  2   force =     0.00000000    0.00000000    0.00000000
     atom    3 type  2   force =     0.00000000    0.00000000    0.00000000
     atom    4 type  3   force =     0.00000000    0.00000000    0.00000000
     The SCF correction term to forces
     atom    1 type  1   force =    -0.00000000    0.00000000   -0.00000000
     atom    2 type  2   force =    -0.00000000    0.00000000    0.00001601
     atom    3 type  2   force =     0.00000000   -0.00000000   -0.00001601
     atom    4 type  3   force =     0.00000000   -0.00000000   -0.00000000

     Total force =     0.049740     Total SCF correction =     0.000023


     Computing stress (Cartesian axis) and pressure

          total   stress  (Ry/bohr**3)                   (kbar)     P=      -40.09
  -0.00028661   0.00000000   0.00000000          -42.16        0.00        0.00
   0.00000000  -0.00026591   0.00000000            0.00      -39.12        0.00
  -0.00000000  -0.00000000  -0.00026515           -0.00       -0.00      -39.01

     kinetic stress (kbar)  14769.26     -0.00     -0.00
                                0.00  14786.20      0.00
                                0.00     -0.00  14783.14

     local   stress (kbar) -18910.62     -0.00      0.00
                               -0.00 -24155.71      0.00
                                0.00      0.00   4089.85

     nonloc. stress (kbar)   8002.10     -0.00      0.00
                               -0.00   7927.77      0.00
                                0.00      0.00   7999.59

     hartree stress (kbar)   8381.25     -0.00      0.00
                               -0.00  10093.63     -0.00
                                0.00     -0.00  -2044.30

     exc-cor stress (kbar)  -1129.87     -0.00     -0.00
                               -0.00  -1120.92      0.00
                               -0.00      0.00  -1129.45

     corecor stress (kbar)  -2029.16      0.00      0.00
                                0.00  -2028.65      0.00
                                0.00      0.00  -2029.13

     ewald   stress (kbar)  -9125.13     -0.00     -0.00
                               -0.00  -5541.44     -0.00
                               -0.00     -0.00 -21708.70

     hubbard stress (kbar)      0.00      0.00      0.00
                                0.00      0.00      0.00
                                0.00      0.00      0.00

     DFT-D   stress (kbar)      0.00      0.00      0.00
                                0.00      0.00      0.00
                                0.00      0.00      0.00

     XDM     stress (kbar)      0.00      0.00      0.00
                                0.00      0.00      0.00
                                0.00      0.00      0.00

     dft-nl  stress (kbar)      0.00      0.00      0.00
                                0.00      0.00      0.00
                                0.00      0.00      0.00

     TS-vdW  stress (kbar)      0.00      0.00      0.00
                                0.00      0.00      0.00
                                0.00      0.00      0.00



     Writing output data file /zfs_data/gutierre/Scratch/Cl2NbO/convergence/cutoff/14x14x14/40/tmp/Cl2NbO.save/
 
     init_run     :      4.27s CPU      4.54s WALL (       1 calls)
     electrons    :    117.75s CPU    122.31s WALL (       1 calls)
     forces       :      0.38s CPU      0.38s WALL (       1 calls)
     stress       :      0.82s CPU      0.83s WALL (       1 calls)

     Called by init_run:
     wfcinit      :      3.97s CPU      4.16s WALL (       1 calls)
     wfcinit:atom :      0.02s CPU      0.02s WALL (     428 calls)
     wfcinit:wfcr :      3.90s CPU      4.08s WALL (     428 calls)
     potinit      :      0.11s CPU      0.12s WALL (       1 calls)
     hinit0       :      0.14s CPU      0.20s WALL (       1 calls)

     Called by electrons:
     c_bands      :     96.88s CPU    100.65s WALL (      12 calls)
     sum_band     :     19.78s CPU     20.53s WALL (      12 calls)
     v_of_rho     :      0.15s CPU      0.16s WALL (      13 calls)
     v_h          :      0.01s CPU      0.01s WALL (      13 calls)
     v_xc         :      0.16s CPU      0.17s WALL (      15 calls)
     newd         :      0.19s CPU      0.19s WALL (      13 calls)
     PAW_pot      :      0.76s CPU      0.78s WALL (      13 calls)
     mix_rho      :      0.02s CPU      0.02s WALL (      12 calls)

     Called by c_bands:
     init_us_2    :      0.58s CPU      0.61s WALL (   11556 calls)
     cegterg      :     95.12s CPU     98.76s WALL (    5136 calls)

     Called by sum_band:
     sum_band:wei :      0.18s CPU      0.19s WALL (      12 calls)
     sum_band:loo :     19.37s CPU     20.09s WALL (      12 calls)
     sum_band:buf :      0.05s CPU      0.05s WALL (    5136 calls)
     sum_band:ini :      0.25s CPU      0.26s WALL (    5136 calls)
     sum_band:cal :      0.36s CPU      0.38s WALL (    5136 calls)
     sum_band:bec :      0.10s CPU      0.11s WALL (    5136 calls)
     addusdens    :      0.17s CPU      0.18s WALL (      12 calls)
     addusd:skk   :      0.00s CPU      0.00s WALL (      36 calls)
     addusd:dgemm :      0.04s CPU      0.05s WALL (      36 calls)
     addusd:qvan2 :      0.12s CPU      0.12s WALL (      36 calls)

     Called by *egterg:
     cdiaghg      :      8.81s CPU      9.11s WALL (   16576 calls)
     cegterg:over :      0.94s CPU      0.98s WALL (   11440 calls)
     cegterg:upda :      0.23s CPU      0.24s WALL (   11440 calls)
     cegterg:last :      0.32s CPU      0.33s WALL (    9121 calls)
     h_psi        :     86.72s CPU     90.13s WALL (   17004 calls)
     s_psi        :      0.39s CPU      0.41s WALL (   17004 calls)
     g_psi        :      0.07s CPU      0.07s WALL (   11440 calls)

     Called by h_psi:
     h_psi:calbec :      1.13s CPU      1.18s WALL (   17004 calls)
     vloc_psi     :     84.85s CPU     88.18s WALL (   17004 calls)
     add_vuspsi   :      0.50s CPU      0.53s WALL (   17004 calls)

     General routines
     calbec       :      1.50s CPU      1.56s WALL (   24280 calls)
     fft          :      0.14s CPU      0.21s WALL (     192 calls)
     ffts         :      0.01s CPU      0.01s WALL (      25 calls)
     fftw         :     96.98s CPU    100.80s WALL (  627972 calls)
     interpolate  :      0.02s CPU      0.02s WALL (      13 calls)
 
     Parallel routines
     fft_scatt_xy :      8.40s CPU      8.67s WALL (  628189 calls)
     fft_scatt_yz :     45.69s CPU     47.38s WALL (  628189 calls)

     PAW routines
     PAW_pot      :      0.76s CPU      0.78s WALL (      13 calls)
     PAW_symme    :      0.01s CPU      0.01s WALL (      25 calls)
 
     PWSCF        :   2m 5.32s CPU   2m11.70s WALL

 
   This run was terminated on:  16: 0:18  18May2022            

=------------------------------------------------------------------------------=
   JOB DONE.
=------------------------------------------------------------------------------=
