MPI startup(): Warning: I_MPI_PMI_LIBRARY will be ignored since the hydra process manager was found
MPI startup(): Warning: I_MPI_PMI_LIBRARY will be ignored since the hydra process manager was found
MPI startup(): Warning: I_MPI_PMI_LIBRARY will be ignored since the hydra process manager was found
MPI startup(): Warning: I_MPI_PMI_LIBRARY will be ignored since the hydra process manager was found
MPI startup(): Warning: I_MPI_PMI_LIBRARY will be ignored since the hydra process manager was found
MPI startup(): Warning: I_MPI_PMI_LIBRARY will be ignored since the hydra process manager was found
MPI startup(): Warning: I_MPI_PMI_LIBRARY will be ignored since the hydra process manager was found
MPI startup(): Warning: I_MPI_PMI_LIBRARY will be ignored since the hydra process manager was found
MPI startup(): Warning: I_MPI_PMI_LIBRARY will be ignored since the hydra process manager was found
MPI startup(): Warning: I_MPI_PMI_LIBRARY will be ignored since the hydra process manager was found
MPI startup(): Warning: I_MPI_PMI_LIBRARY will be ignored since the hydra process manager was found
MPI startup(): Warning: I_MPI_PMI_LIBRARY will be ignored since the hydra process manager was found
MPI startup(): Warning: I_MPI_PMI_LIBRARY will be ignored since the hydra process manager was found
MPI startup(): Warning: I_MPI_PMI_LIBRARY will be ignored since the hydra process manager was found
MPI startup(): Warning: I_MPI_PMI_LIBRARY will be ignored since the hydra process manager was found
MPI startup(): Warning: I_MPI_PMI_LIBRARY will be ignored since the hydra process manager was found
MPI startup(): Warning: I_MPI_PMI_LIBRARY will be ignored since the hydra process manager was found
MPI startup(): Warning: I_MPI_PMI_LIBRARY will be ignored since the hydra process manager was found
MPI startup(): Warning: I_MPI_PMI_LIBRARY will be ignored since the hydra process manager was found
MPI startup(): Warning: I_MPI_PMI_LIBRARY will be ignored since the hydra process manager was found
MPI startup(): Warning: I_MPI_PMI_LIBRARY will be ignored since the hydra process manager was found
MPI startup(): Warning: I_MPI_PMI_LIBRARY will be ignored since the hydra process manager was found
MPI startup(): Warning: I_MPI_PMI_LIBRARY will be ignored since the hydra process manager was found
MPI startup(): Warning: I_MPI_PMI_LIBRARY will be ignored since the hydra process manager was found

     Program PWSCF v.6.7MaX starts on  1Aug2021 at 12:38:15 

     This program is part of the open-source Quantum ESPRESSO suite
     for quantum simulation of materials; please cite
         "P. Giannozzi et al., J. Phys.:Condens. Matter 21 395502 (2009);
         "P. Giannozzi et al., J. Phys.:Condens. Matter 29 465901 (2017);
          URL http://www.quantum-espresso.org", 
     in publications or presentations arising from this work. More details at
     http://www.quantum-espresso.org/quote

     Parallel version (MPI), running on    24 processors

     MPI processes distributed on     1 nodes
     R & G space division:  proc/nbgrp/npool/nimage =      24
     Waiting for input...
     Reading input from standard input

     Current dimensions of program PWSCF are:
     Max number of different atomic species (ntypx) = 10
     Max number of k-points (npk) =  40000
     Max angular momentum in pseudopotentials (lmaxx) =  3
     file Cr.rel-pbe-spn-kjpaw_psl.1.0.0.UPF: wavefunction(s)  3S 3P 3P 3D 3D renormalized
     file Si.rel-pbe-n-kjpaw_psl.1.0.0.UPF: wavefunction(s)  3S 3P 3P renormalized

     Subspace diagonalization in iterative solution of the eigenvalue problem:
     a serial algorithm will be used

     Message from routine setup:
     using ibrav=0 with symmetry is DISCOURAGED, use correct ibrav instead
 
     Parallelization info
     --------------------
     sticks:   dense  smooth     PW     G-vecs:    dense   smooth      PW
     Min         228      91     25                12702     3210     487
     Max         229      93     26                12704     3214     492
     Sum        5473    2201    621               304867    77053   11753
 


     bravais-lattice index     =            0
     lattice parameter (alat)  =       8.7475  a.u.
     unit-cell volume          =     669.3575 (a.u.)^3
     number of atoms/cell      =            8
     number of atomic types    =            2
     number of electrons       =        72.00
     number of Kohn-Sham states=           86
     kinetic-energy cutoff     =      90.0000  Ry
     charge density cutoff     =     900.0000  Ry
     scf convergence threshold =      1.0E-06
     mixing beta               =       0.7000
     number of iterations used =            8  plain     mixing
     Exchange-correlation= SLA  PW   PBX  PBC
                           (   1   4   3   4   0   0   0)
     Non magnetic calculation with spin-orbit


     celldm(1)=   8.747542  celldm(2)=   0.000000  celldm(3)=   0.000000
     celldm(4)=   0.000000  celldm(5)=   0.000000  celldm(6)=   0.000000

     crystal axes: (cart. coord. in units of alat)
               a(1) = (   1.000000   0.000000   0.000000 )  
               a(2) = (   0.000000   1.000000   0.000000 )  
               a(3) = (   0.000000   0.000000   1.000000 )  

     reciprocal axes: (cart. coord. in units 2 pi/alat)
               b(1) = (  1.000000  0.000000  0.000000 )  
               b(2) = (  0.000000  1.000000  0.000000 )  
               b(3) = (  0.000000  0.000000  1.000000 )  


     PseudoPot. # 1 for Cr read from file:
     ../../../../pseudo/Cr.rel-pbe-spn-kjpaw_psl.1.0.0.UPF
     MD5 check sum: 1e24e2b5251376a8b945118fca0c7981
     Pseudo is Projector augmented-wave + core cor, Zval = 14.0
     Generated using &quot;atomic&quot; code by A. Dal Corso  v.6.3
     Shape of augmentation charge: PSQ
     Using radial grid of 1183 points, 10 beta functions with: 
                l(1) =   0
                l(2) =   0
                l(3) =   1
                l(4) =   1
                l(5) =   1
                l(6) =   1
                l(7) =   2
                l(8) =   2
                l(9) =   2
               l(10) =   2
     Q(r) pseudized with 0 coefficients 


     PseudoPot. # 2 for Si read from file:
     ../../../../pseudo/Si.rel-pbe-n-kjpaw_psl.1.0.0.UPF
     MD5 check sum: d74f6caf6830ea4c2076867160cab1b0
     Pseudo is Projector augmented-wave + core cor, Zval =  4.0
     Generated using &quot;atomic&quot; code by A. Dal Corso  v.6.3
     Shape of augmentation charge: PSQ
     Using radial grid of 1141 points, 10 beta functions with: 
                l(1) =   0
                l(2) =   0
                l(3) =   1
                l(4) =   1
                l(5) =   1
                l(6) =   1
                l(7) =   2
                l(8) =   2
                l(9) =   2
               l(10) =   2
     Q(r) pseudized with 0 coefficients 


     atomic species   valence    mass     pseudopotential
        Cr            14.00    51.99600     Cr( 1.00)
        Si             4.00    28.08500     Si( 1.00)

     12 Sym. Ops. (no inversion) found ( 9 have fractional translation)


                                    s                        frac. trans.

      isym =  1     identity                                     

 cryst.   s( 1) = (     1          0          0      )
                  (     0          1          0      )
                  (     0          0          1      )

 cart.    s( 1) = (  1.0000000  0.0000000  0.0000000 )
                  (  0.0000000  1.0000000  0.0000000 )
                  (  0.0000000  0.0000000  1.0000000 )


      isym =  2     180 deg rotation - cart. axis [0,0,1]        

 cryst.   s( 2) = (    -1          0          0      )    f =(  0.5000000 )
                  (     0         -1          0      )       (  0.0000000 )
                  (     0          0          1      )       ( -0.5000000 )

 cart.    s( 2) = ( -1.0000000  0.0000000  0.0000000 )    f =(  0.5000000 )
                  (  0.0000000 -1.0000000  0.0000000 )       (  0.0000000 )
                  (  0.0000000  0.0000000  1.0000000 )       ( -0.5000000 )


      isym =  3     180 deg rotation - cart. axis [0,1,0]        

 cryst.   s( 3) = (    -1          0          0      )    f =(  0.0000000 )
                  (     0          1          0      )       ( -0.5000000 )
                  (     0          0         -1      )       (  0.5000000 )

 cart.    s( 3) = ( -1.0000000  0.0000000  0.0000000 )    f =(  0.0000000 )
                  (  0.0000000  1.0000000  0.0000000 )       ( -0.5000000 )
                  (  0.0000000  0.0000000 -1.0000000 )       (  0.5000000 )


      isym =  4     180 deg rotation - cart. axis [1,0,0]        

 cryst.   s( 4) = (     1          0          0      )    f =(  0.5000000 )
                  (     0         -1          0      )       (  0.5000000 )
                  (     0          0         -1      )       (  0.0000000 )

 cart.    s( 4) = (  1.0000000  0.0000000  0.0000000 )    f =(  0.5000000 )
                  (  0.0000000 -1.0000000  0.0000000 )       (  0.5000000 )
                  (  0.0000000  0.0000000 -1.0000000 )       (  0.0000000 )


      isym =  5     120 deg rotation - cart. axis [-1,-1,-1]     

 cryst.   s( 5) = (     0          0          1      )
                  (     1          0          0      )
                  (     0          1          0      )

 cart.    s( 5) = (  0.0000000  1.0000000  0.0000000 )
                  (  0.0000000  0.0000000  1.0000000 )
                  (  1.0000000  0.0000000  0.0000000 )


      isym =  6     120 deg rotation - cart. axis [-1,1,1]       

 cryst.   s( 6) = (     0          0         -1      )    f =(  0.0000000 )
                  (    -1          0          0      )       ( -0.5000000 )
                  (     0          1          0      )       (  0.5000000 )

 cart.    s( 6) = (  0.0000000 -1.0000000  0.0000000 )    f =(  0.0000000 )
                  (  0.0000000  0.0000000  1.0000000 )       ( -0.5000000 )
                  ( -1.0000000  0.0000000  0.0000000 )       (  0.5000000 )


      isym =  7     120 deg rotation - cart. axis [1,1,-1]       

 cryst.   s( 7) = (     0          0         -1      )    f =(  0.5000000 )
                  (     1          0          0      )       (  0.5000000 )
                  (     0         -1          0      )       (  0.0000000 )

 cart.    s( 7) = (  0.0000000  1.0000000  0.0000000 )    f =(  0.5000000 )
                  (  0.0000000  0.0000000 -1.0000000 )       (  0.5000000 )
                  ( -1.0000000  0.0000000  0.0000000 )       (  0.0000000 )


      isym =  8     120 deg rotation - cart. axis [1,-1,1]       

 cryst.   s( 8) = (     0          0          1      )    f =(  0.5000000 )
                  (    -1          0          0      )       (  0.0000000 )
                  (     0         -1          0      )       ( -0.5000000 )

 cart.    s( 8) = (  0.0000000 -1.0000000  0.0000000 )    f =(  0.5000000 )
                  (  0.0000000  0.0000000 -1.0000000 )       (  0.0000000 )
                  (  1.0000000  0.0000000  0.0000000 )       ( -0.5000000 )


      isym =  9     120 deg rotation - cart. axis [1,1,1]        

 cryst.   s( 9) = (     0          1          0      )
                  (     0          0          1      )
                  (     1          0          0      )

 cart.    s( 9) = (  0.0000000  0.0000000  1.0000000 )
                  (  1.0000000  0.0000000  0.0000000 )
                  (  0.0000000  1.0000000  0.0000000 )


      isym = 10     120 deg rotation - cart. axis [-1,1,-1]      

 cryst.   s(10) = (     0         -1          0      )    f =(  0.5000000 )
                  (     0          0         -1      )       (  0.5000000 )
                  (     1          0          0      )       (  0.0000000 )

 cart.    s(10) = (  0.0000000  0.0000000  1.0000000 )    f =(  0.5000000 )
                  ( -1.0000000  0.0000000  0.0000000 )       (  0.5000000 )
                  (  0.0000000 -1.0000000  0.0000000 )       (  0.0000000 )


      isym = 11     120 deg rotation - cart. axis [1,-1,-1]      

 cryst.   s(11) = (     0         -1          0      )    f =(  0.5000000 )
                  (     0          0          1      )       (  0.0000000 )
                  (    -1          0          0      )       ( -0.5000000 )

 cart.    s(11) = (  0.0000000  0.0000000 -1.0000000 )    f =(  0.5000000 )
                  ( -1.0000000  0.0000000  0.0000000 )       (  0.0000000 )
                  (  0.0000000  1.0000000  0.0000000 )       ( -0.5000000 )


      isym = 12     120 deg rotation - cart. axis [-1,-1,1]      

 cryst.   s(12) = (     0          1          0      )    f =(  0.0000000 )
                  (     0          0         -1      )       ( -0.5000000 )
                  (    -1          0          0      )       (  0.5000000 )

 cart.    s(12) = (  0.0000000  0.0000000 -1.0000000 )    f =(  0.0000000 )
                  (  1.0000000  0.0000000  0.0000000 )       ( -0.5000000 )
                  (  0.0000000 -1.0000000  0.0000000 )       (  0.5000000 )


   Cartesian axes

     site n.     atom                  positions (alat units)
         1           Cr  tau(   1) = (   0.8640000   0.3640000   0.1360000  )
         2           Cr  tau(   2) = (   0.3640000   0.1360000   0.8640000  )
         3           Cr  tau(   3) = (   0.1360000   0.8640000   0.3640000  )
         4           Cr  tau(   4) = (   0.6360000   0.6360000   0.6360000  )
         5           Si  tau(   5) = (   0.1540000   0.6540000   0.8460000  )
         6           Si  tau(   6) = (   0.6540000   0.8460000   0.1540000  )
         7           Si  tau(   7) = (   0.8460000   0.1540000   0.6540000  )
         8           Si  tau(   8) = (   0.3460000   0.3460000   0.3460000  )

   Crystallographic axes

     site n.     atom                  positions (cryst. coord.)
         1           Cr  tau(   1) = (  0.8640000  0.3640000  0.1360000  )
         2           Cr  tau(   2) = (  0.3640000  0.1360000  0.8640000  )
         3           Cr  tau(   3) = (  0.1360000  0.8640000  0.3640000  )
         4           Cr  tau(   4) = (  0.6360000  0.6360000  0.6360000  )
         5           Si  tau(   5) = (  0.1540000  0.6540000  0.8460000  )
         6           Si  tau(   6) = (  0.6540000  0.8460000  0.1540000  )
         7           Si  tau(   7) = (  0.8460000  0.1540000  0.6540000  )
         8           Si  tau(   8) = (  0.3460000  0.3460000  0.3460000  )

     number of k points=   119  Methfessel-Paxton smearing, width (Ry)=  0.0060
                       cart. coord. in units 2pi/alat
        k(    1) = (   0.0000000   0.0000000   0.0000000), wk =   0.0005787
        k(    2) = (   0.0000000   0.0000000   0.0833333), wk =   0.0034722
        k(    3) = (   0.0000000   0.0000000   0.1666667), wk =   0.0034722
        k(    4) = (   0.0000000   0.0000000   0.2500000), wk =   0.0034722
        k(    5) = (   0.0000000   0.0000000   0.3333333), wk =   0.0034722
        k(    6) = (   0.0000000   0.0000000   0.4166667), wk =   0.0034722
        k(    7) = (   0.0000000   0.0000000  -0.5000000), wk =   0.0017361
        k(    8) = (   0.0000000   0.0833333   0.0833333), wk =   0.0069444
        k(    9) = (   0.0000000   0.0833333   0.1666667), wk =   0.0069444
        k(   10) = (   0.0000000   0.0833333   0.2500000), wk =   0.0069444
        k(   11) = (   0.0000000   0.0833333   0.3333333), wk =   0.0069444
        k(   12) = (   0.0000000   0.0833333   0.4166667), wk =   0.0069444
        k(   13) = (   0.0000000   0.0833333  -0.5000000), wk =   0.0034722
        k(   14) = (   0.0000000   0.1666667   0.1666667), wk =   0.0069444
        k(   15) = (   0.0000000   0.1666667   0.2500000), wk =   0.0069444
        k(   16) = (   0.0000000   0.1666667   0.3333333), wk =   0.0069444
        k(   17) = (   0.0000000   0.1666667   0.4166667), wk =   0.0069444
        k(   18) = (   0.0000000   0.1666667  -0.5000000), wk =   0.0034722
        k(   19) = (   0.0000000   0.2500000   0.2500000), wk =   0.0069444
        k(   20) = (   0.0000000   0.2500000   0.3333333), wk =   0.0069444
        k(   21) = (   0.0000000   0.2500000   0.4166667), wk =   0.0069444
        k(   22) = (   0.0000000   0.2500000  -0.5000000), wk =   0.0034722
        k(   23) = (   0.0000000   0.3333333   0.3333333), wk =   0.0069444
        k(   24) = (   0.0000000   0.3333333   0.4166667), wk =   0.0069444
        k(   25) = (   0.0000000   0.3333333  -0.5000000), wk =   0.0034722
        k(   26) = (   0.0000000   0.4166667   0.4166667), wk =   0.0069444
        k(   27) = (   0.0000000   0.4166667  -0.5000000), wk =   0.0034722
        k(   28) = (   0.0000000  -0.5000000  -0.5000000), wk =   0.0017361
        k(   29) = (   0.0833333   0.0833333   0.0833333), wk =   0.0046296
        k(   30) = (   0.0833333   0.0833333   0.1666667), wk =   0.0138889
        k(   31) = (   0.0833333   0.0833333   0.2500000), wk =   0.0138889
        k(   32) = (   0.0833333   0.0833333   0.3333333), wk =   0.0138889
        k(   33) = (   0.0833333   0.0833333   0.4166667), wk =   0.0138889
        k(   34) = (   0.0833333   0.0833333  -0.5000000), wk =   0.0069444
        k(   35) = (   0.0833333   0.1666667   0.1666667), wk =   0.0138889
        k(   36) = (   0.0833333   0.1666667   0.2500000), wk =   0.0138889
        k(   37) = (   0.0833333   0.1666667   0.3333333), wk =   0.0138889
        k(   38) = (   0.0833333   0.1666667   0.4166667), wk =   0.0138889
        k(   39) = (   0.0833333   0.1666667  -0.5000000), wk =   0.0069444
        k(   40) = (   0.0833333   0.2500000   0.2500000), wk =   0.0138889
        k(   41) = (   0.0833333   0.2500000   0.3333333), wk =   0.0138889
        k(   42) = (   0.0833333   0.2500000   0.4166667), wk =   0.0138889
        k(   43) = (   0.0833333   0.2500000  -0.5000000), wk =   0.0069444
        k(   44) = (   0.0833333   0.3333333   0.3333333), wk =   0.0138889
        k(   45) = (   0.0833333   0.3333333   0.4166667), wk =   0.0138889
        k(   46) = (   0.0833333   0.3333333  -0.5000000), wk =   0.0069444
        k(   47) = (   0.0833333   0.4166667   0.4166667), wk =   0.0138889
        k(   48) = (   0.0833333   0.4166667  -0.5000000), wk =   0.0069444
        k(   49) = (   0.0833333  -0.5000000  -0.5000000), wk =   0.0034722
        k(   50) = (   0.1666667   0.1666667   0.1666667), wk =   0.0046296
        k(   51) = (   0.1666667   0.1666667   0.2500000), wk =   0.0138889
        k(   52) = (   0.1666667   0.1666667   0.3333333), wk =   0.0138889
        k(   53) = (   0.1666667   0.1666667   0.4166667), wk =   0.0138889
        k(   54) = (   0.1666667   0.1666667  -0.5000000), wk =   0.0069444
        k(   55) = (   0.1666667   0.2500000   0.2500000), wk =   0.0138889
        k(   56) = (   0.1666667   0.2500000   0.3333333), wk =   0.0138889
        k(   57) = (   0.1666667   0.2500000   0.4166667), wk =   0.0138889
        k(   58) = (   0.1666667   0.2500000  -0.5000000), wk =   0.0069444
        k(   59) = (   0.1666667   0.3333333   0.3333333), wk =   0.0138889
        k(   60) = (   0.1666667   0.3333333   0.4166667), wk =   0.0138889
        k(   61) = (   0.1666667   0.3333333  -0.5000000), wk =   0.0069444
        k(   62) = (   0.1666667   0.4166667   0.4166667), wk =   0.0138889
        k(   63) = (   0.1666667   0.4166667  -0.5000000), wk =   0.0069444
        k(   64) = (   0.1666667  -0.5000000  -0.5000000), wk =   0.0034722
        k(   65) = (   0.2500000   0.2500000   0.2500000), wk =   0.0046296
        k(   66) = (   0.2500000   0.2500000   0.3333333), wk =   0.0138889
        k(   67) = (   0.2500000   0.2500000   0.4166667), wk =   0.0138889
        k(   68) = (   0.2500000   0.2500000  -0.5000000), wk =   0.0069444
        k(   69) = (   0.2500000   0.3333333   0.3333333), wk =   0.0138889
        k(   70) = (   0.2500000   0.3333333   0.4166667), wk =   0.0138889
        k(   71) = (   0.2500000   0.3333333  -0.5000000), wk =   0.0069444
        k(   72) = (   0.2500000   0.4166667   0.4166667), wk =   0.0138889
        k(   73) = (   0.2500000   0.4166667  -0.5000000), wk =   0.0069444
        k(   74) = (   0.2500000  -0.5000000  -0.5000000), wk =   0.0034722
        k(   75) = (   0.3333333   0.3333333   0.3333333), wk =   0.0046296
        k(   76) = (   0.3333333   0.3333333   0.4166667), wk =   0.0138889
        k(   77) = (   0.3333333   0.3333333  -0.5000000), wk =   0.0069444
        k(   78) = (   0.3333333   0.4166667   0.4166667), wk =   0.0138889
        k(   79) = (   0.3333333   0.4166667  -0.5000000), wk =   0.0069444
        k(   80) = (   0.3333333  -0.5000000  -0.5000000), wk =   0.0034722
        k(   81) = (   0.4166667   0.4166667   0.4166667), wk =   0.0046296
        k(   82) = (   0.4166667   0.4166667  -0.5000000), wk =   0.0069444
        k(   83) = (   0.4166667  -0.5000000  -0.5000000), wk =   0.0034722
        k(   84) = (  -0.5000000  -0.5000000  -0.5000000), wk =   0.0005787
        k(   85) = (   0.0000000   0.1666667   0.0833333), wk =   0.0069444
        k(   86) = (   0.0000000   0.2500000   0.0833333), wk =   0.0069444
        k(   87) = (   0.0000000   0.3333333   0.0833333), wk =   0.0069444
        k(   88) = (   0.0000000   0.4166667   0.0833333), wk =   0.0069444
        k(   89) = (   0.0000000  -0.5000000   0.0833333), wk =   0.0034722
        k(   90) = (   0.0000000   0.2500000   0.1666667), wk =   0.0069444
        k(   91) = (   0.0000000   0.3333333   0.1666667), wk =   0.0069444
        k(   92) = (   0.0000000   0.4166667   0.1666667), wk =   0.0069444
        k(   93) = (   0.0000000  -0.5000000   0.1666667), wk =   0.0034722
        k(   94) = (   0.0000000   0.3333333   0.2500000), wk =   0.0069444
        k(   95) = (   0.0000000   0.4166667   0.2500000), wk =   0.0069444
        k(   96) = (   0.0000000  -0.5000000   0.2500000), wk =   0.0034722
        k(   97) = (   0.0000000   0.4166667   0.3333333), wk =   0.0069444
        k(   98) = (   0.0000000  -0.5000000   0.3333333), wk =   0.0034722
        k(   99) = (   0.0000000  -0.5000000   0.4166667), wk =   0.0034722
        k(  100) = (  -0.0833333   0.2500000   0.1666667), wk =   0.0138889
        k(  101) = (  -0.0833333   0.3333333   0.1666667), wk =   0.0138889
        k(  102) = (  -0.0833333   0.4166667   0.1666667), wk =   0.0138889
        k(  103) = (  -0.0833333  -0.5000000   0.1666667), wk =   0.0069444
        k(  104) = (  -0.0833333   0.3333333   0.2500000), wk =   0.0138889
        k(  105) = (  -0.0833333   0.4166667   0.2500000), wk =   0.0138889
        k(  106) = (  -0.0833333  -0.5000000   0.2500000), wk =   0.0069444
        k(  107) = (  -0.0833333   0.4166667   0.3333333), wk =   0.0138889
        k(  108) = (  -0.0833333  -0.5000000   0.3333333), wk =   0.0069444
        k(  109) = (  -0.0833333  -0.5000000   0.4166667), wk =   0.0069444
        k(  110) = (  -0.1666667   0.3333333   0.2500000), wk =   0.0138889
        k(  111) = (  -0.1666667   0.4166667   0.2500000), wk =   0.0138889
        k(  112) = (  -0.1666667  -0.5000000   0.2500000), wk =   0.0069444
        k(  113) = (  -0.1666667   0.4166667   0.3333333), wk =   0.0138889
        k(  114) = (  -0.1666667  -0.5000000   0.3333333), wk =   0.0069444
        k(  115) = (  -0.1666667  -0.5000000   0.4166667), wk =   0.0069444
        k(  116) = (  -0.2500000   0.4166667   0.3333333), wk =   0.0138889
        k(  117) = (  -0.2500000  -0.5000000   0.3333333), wk =   0.0069444
        k(  118) = (  -0.2500000  -0.5000000   0.4166667), wk =   0.0069444
        k(  119) = (  -0.3333333  -0.5000000   0.4166667), wk =   0.0069444

                       cryst. coord.
        k(    1) = (   0.0000000   0.0000000   0.0000000), wk =   0.0005787
        k(    2) = (   0.0000000   0.0000000   0.0833333), wk =   0.0034722
        k(    3) = (   0.0000000   0.0000000   0.1666667), wk =   0.0034722
        k(    4) = (   0.0000000   0.0000000   0.2500000), wk =   0.0034722
        k(    5) = (   0.0000000   0.0000000   0.3333333), wk =   0.0034722
        k(    6) = (   0.0000000   0.0000000   0.4166667), wk =   0.0034722
        k(    7) = (   0.0000000   0.0000000  -0.5000000), wk =   0.0017361
        k(    8) = (   0.0000000   0.0833333   0.0833333), wk =   0.0069444
        k(    9) = (   0.0000000   0.0833333   0.1666667), wk =   0.0069444
        k(   10) = (   0.0000000   0.0833333   0.2500000), wk =   0.0069444
        k(   11) = (   0.0000000   0.0833333   0.3333333), wk =   0.0069444
        k(   12) = (   0.0000000   0.0833333   0.4166667), wk =   0.0069444
        k(   13) = (   0.0000000   0.0833333  -0.5000000), wk =   0.0034722
        k(   14) = (   0.0000000   0.1666667   0.1666667), wk =   0.0069444
        k(   15) = (   0.0000000   0.1666667   0.2500000), wk =   0.0069444
        k(   16) = (   0.0000000   0.1666667   0.3333333), wk =   0.0069444
        k(   17) = (   0.0000000   0.1666667   0.4166667), wk =   0.0069444
        k(   18) = (   0.0000000   0.1666667  -0.5000000), wk =   0.0034722
        k(   19) = (   0.0000000   0.2500000   0.2500000), wk =   0.0069444
        k(   20) = (   0.0000000   0.2500000   0.3333333), wk =   0.0069444
        k(   21) = (   0.0000000   0.2500000   0.4166667), wk =   0.0069444
        k(   22) = (   0.0000000   0.2500000  -0.5000000), wk =   0.0034722
        k(   23) = (   0.0000000   0.3333333   0.3333333), wk =   0.0069444
        k(   24) = (   0.0000000   0.3333333   0.4166667), wk =   0.0069444
        k(   25) = (   0.0000000   0.3333333  -0.5000000), wk =   0.0034722
        k(   26) = (   0.0000000   0.4166667   0.4166667), wk =   0.0069444
        k(   27) = (   0.0000000   0.4166667  -0.5000000), wk =   0.0034722
        k(   28) = (   0.0000000  -0.5000000  -0.5000000), wk =   0.0017361
        k(   29) = (   0.0833333   0.0833333   0.0833333), wk =   0.0046296
        k(   30) = (   0.0833333   0.0833333   0.1666667), wk =   0.0138889
        k(   31) = (   0.0833333   0.0833333   0.2500000), wk =   0.0138889
        k(   32) = (   0.0833333   0.0833333   0.3333333), wk =   0.0138889
        k(   33) = (   0.0833333   0.0833333   0.4166667), wk =   0.0138889
        k(   34) = (   0.0833333   0.0833333  -0.5000000), wk =   0.0069444
        k(   35) = (   0.0833333   0.1666667   0.1666667), wk =   0.0138889
        k(   36) = (   0.0833333   0.1666667   0.2500000), wk =   0.0138889
        k(   37) = (   0.0833333   0.1666667   0.3333333), wk =   0.0138889
        k(   38) = (   0.0833333   0.1666667   0.4166667), wk =   0.0138889
        k(   39) = (   0.0833333   0.1666667  -0.5000000), wk =   0.0069444
        k(   40) = (   0.0833333   0.2500000   0.2500000), wk =   0.0138889
        k(   41) = (   0.0833333   0.2500000   0.3333333), wk =   0.0138889
        k(   42) = (   0.0833333   0.2500000   0.4166667), wk =   0.0138889
        k(   43) = (   0.0833333   0.2500000  -0.5000000), wk =   0.0069444
        k(   44) = (   0.0833333   0.3333333   0.3333333), wk =   0.0138889
        k(   45) = (   0.0833333   0.3333333   0.4166667), wk =   0.0138889
        k(   46) = (   0.0833333   0.3333333  -0.5000000), wk =   0.0069444
        k(   47) = (   0.0833333   0.4166667   0.4166667), wk =   0.0138889
        k(   48) = (   0.0833333   0.4166667  -0.5000000), wk =   0.0069444
        k(   49) = (   0.0833333  -0.5000000  -0.5000000), wk =   0.0034722
        k(   50) = (   0.1666667   0.1666667   0.1666667), wk =   0.0046296
        k(   51) = (   0.1666667   0.1666667   0.2500000), wk =   0.0138889
        k(   52) = (   0.1666667   0.1666667   0.3333333), wk =   0.0138889
        k(   53) = (   0.1666667   0.1666667   0.4166667), wk =   0.0138889
        k(   54) = (   0.1666667   0.1666667  -0.5000000), wk =   0.0069444
        k(   55) = (   0.1666667   0.2500000   0.2500000), wk =   0.0138889
        k(   56) = (   0.1666667   0.2500000   0.3333333), wk =   0.0138889
        k(   57) = (   0.1666667   0.2500000   0.4166667), wk =   0.0138889
        k(   58) = (   0.1666667   0.2500000  -0.5000000), wk =   0.0069444
        k(   59) = (   0.1666667   0.3333333   0.3333333), wk =   0.0138889
        k(   60) = (   0.1666667   0.3333333   0.4166667), wk =   0.0138889
        k(   61) = (   0.1666667   0.3333333  -0.5000000), wk =   0.0069444
        k(   62) = (   0.1666667   0.4166667   0.4166667), wk =   0.0138889
        k(   63) = (   0.1666667   0.4166667  -0.5000000), wk =   0.0069444
        k(   64) = (   0.1666667  -0.5000000  -0.5000000), wk =   0.0034722
        k(   65) = (   0.2500000   0.2500000   0.2500000), wk =   0.0046296
        k(   66) = (   0.2500000   0.2500000   0.3333333), wk =   0.0138889
        k(   67) = (   0.2500000   0.2500000   0.4166667), wk =   0.0138889
        k(   68) = (   0.2500000   0.2500000  -0.5000000), wk =   0.0069444
        k(   69) = (   0.2500000   0.3333333   0.3333333), wk =   0.0138889
        k(   70) = (   0.2500000   0.3333333   0.4166667), wk =   0.0138889
        k(   71) = (   0.2500000   0.3333333  -0.5000000), wk =   0.0069444
        k(   72) = (   0.2500000   0.4166667   0.4166667), wk =   0.0138889
        k(   73) = (   0.2500000   0.4166667  -0.5000000), wk =   0.0069444
        k(   74) = (   0.2500000  -0.5000000  -0.5000000), wk =   0.0034722
        k(   75) = (   0.3333333   0.3333333   0.3333333), wk =   0.0046296
        k(   76) = (   0.3333333   0.3333333   0.4166667), wk =   0.0138889
        k(   77) = (   0.3333333   0.3333333  -0.5000000), wk =   0.0069444
        k(   78) = (   0.3333333   0.4166667   0.4166667), wk =   0.0138889
        k(   79) = (   0.3333333   0.4166667  -0.5000000), wk =   0.0069444
        k(   80) = (   0.3333333  -0.5000000  -0.5000000), wk =   0.0034722
        k(   81) = (   0.4166667   0.4166667   0.4166667), wk =   0.0046296
        k(   82) = (   0.4166667   0.4166667  -0.5000000), wk =   0.0069444
        k(   83) = (   0.4166667  -0.5000000  -0.5000000), wk =   0.0034722
        k(   84) = (  -0.5000000  -0.5000000  -0.5000000), wk =   0.0005787
        k(   85) = (   0.0000000   0.1666667   0.0833333), wk =   0.0069444
        k(   86) = (   0.0000000   0.2500000   0.0833333), wk =   0.0069444
        k(   87) = (   0.0000000   0.3333333   0.0833333), wk =   0.0069444
        k(   88) = (   0.0000000   0.4166667   0.0833333), wk =   0.0069444
        k(   89) = (   0.0000000  -0.5000000   0.0833333), wk =   0.0034722
        k(   90) = (   0.0000000   0.2500000   0.1666667), wk =   0.0069444
        k(   91) = (   0.0000000   0.3333333   0.1666667), wk =   0.0069444
        k(   92) = (   0.0000000   0.4166667   0.1666667), wk =   0.0069444
        k(   93) = (   0.0000000  -0.5000000   0.1666667), wk =   0.0034722
        k(   94) = (   0.0000000   0.3333333   0.2500000), wk =   0.0069444
        k(   95) = (   0.0000000   0.4166667   0.2500000), wk =   0.0069444
        k(   96) = (   0.0000000  -0.5000000   0.2500000), wk =   0.0034722
        k(   97) = (   0.0000000   0.4166667   0.3333333), wk =   0.0069444
        k(   98) = (   0.0000000  -0.5000000   0.3333333), wk =   0.0034722
        k(   99) = (   0.0000000  -0.5000000   0.4166667), wk =   0.0034722
        k(  100) = (  -0.0833333   0.2500000   0.1666667), wk =   0.0138889
        k(  101) = (  -0.0833333   0.3333333   0.1666667), wk =   0.0138889
        k(  102) = (  -0.0833333   0.4166667   0.1666667), wk =   0.0138889
        k(  103) = (  -0.0833333  -0.5000000   0.1666667), wk =   0.0069444
        k(  104) = (  -0.0833333   0.3333333   0.2500000), wk =   0.0138889
        k(  105) = (  -0.0833333   0.4166667   0.2500000), wk =   0.0138889
        k(  106) = (  -0.0833333  -0.5000000   0.2500000), wk =   0.0069444
        k(  107) = (  -0.0833333   0.4166667   0.3333333), wk =   0.0138889
        k(  108) = (  -0.0833333  -0.5000000   0.3333333), wk =   0.0069444
        k(  109) = (  -0.0833333  -0.5000000   0.4166667), wk =   0.0069444
        k(  110) = (  -0.1666667   0.3333333   0.2500000), wk =   0.0138889
        k(  111) = (  -0.1666667   0.4166667   0.2500000), wk =   0.0138889
        k(  112) = (  -0.1666667  -0.5000000   0.2500000), wk =   0.0069444
        k(  113) = (  -0.1666667   0.4166667   0.3333333), wk =   0.0138889
        k(  114) = (  -0.1666667  -0.5000000   0.3333333), wk =   0.0069444
        k(  115) = (  -0.1666667  -0.5000000   0.4166667), wk =   0.0069444
        k(  116) = (  -0.2500000   0.4166667   0.3333333), wk =   0.0138889
        k(  117) = (  -0.2500000  -0.5000000   0.3333333), wk =   0.0069444
        k(  118) = (  -0.2500000  -0.5000000   0.4166667), wk =   0.0069444
        k(  119) = (  -0.3333333  -0.5000000   0.4166667), wk =   0.0069444

     Dense  grid:   304867 G-vectors     FFT dimensions: (  90,  90,  90)

     Smooth grid:    77053 G-vectors     FFT dimensions: (  54,  54,  54)

     Dynamical RAM for                 wfc:       1.06 MB

     Dynamical RAM for     wfc (w. buffer):     126.61 MB

     Dynamical RAM for           str. fact:       0.39 MB

     Dynamical RAM for           local pot:       0.00 MB

     Dynamical RAM for          nlocal pot:       1.67 MB

     Dynamical RAM for                qrad:      12.61 MB

     Dynamical RAM for          rho,v,vnew:       5.29 MB

     Dynamical RAM for               rhoin:       1.76 MB

     Dynamical RAM for            rho*nmix:      12.41 MB

     Dynamical RAM for           G-vectors:       0.75 MB

     Dynamical RAM for          h,s,v(r/c):       1.35 MB

     Dynamical RAM for          <psi|beta>:       0.71 MB

     Dynamical RAM for                 psi:       2.11 MB

     Dynamical RAM for                hpsi:       2.11 MB

     Dynamical RAM for                spsi:       2.11 MB

     Dynamical RAM for      wfcinit/wfcrot:       2.35 MB

     Dynamical RAM for           addusdens:     119.02 MB

     Dynamical RAM for          addusforce:     120.34 MB

     Dynamical RAM for         addusstress:     121.74 MB

     Estimated static dynamical RAM per process >     164.04 MB

     Estimated max dynamical RAM per process >     285.78 MB

     Estimated total dynamical RAM >       6.70 GB

     Initial potential from superposition of free atoms

     starting charge   71.99469, renormalised to   72.00000
     Starting wfcs are  112 randomized atomic wfcs
     Checking if some PAW data can be deallocated... 
       PAW data deallocated on   12 nodes for type:  1
       PAW data deallocated on   12 nodes for type:  2

     total cpu time spent up to now is       36.4 secs

     Self-consistent Calculation

     iteration #  1     ecut=    90.00 Ry     beta= 0.70
     Davidson diagonalization with overlap
     ethr =  1.00E-02,  avg # of iterations =  2.0

     Threshold (ethr) on eigenvalues was too large:
     Diagonalizing with lowered threshold

     Davidson diagonalization with overlap
     ethr =  2.09E-04,  avg # of iterations =  4.4

     total cpu time spent up to now is      238.2 secs

     total energy              =   -1180.30946666 Ry
     estimated scf accuracy    <       0.18955451 Ry

     iteration #  2     ecut=    90.00 Ry     beta= 0.70
     Davidson diagonalization with overlap
     ethr =  2.63E-04,  avg # of iterations =  3.2

     total cpu time spent up to now is      340.3 secs

     total energy              =   -1180.31334872 Ry
     estimated scf accuracy    <       0.08397016 Ry

     iteration #  3     ecut=    90.00 Ry     beta= 0.70
     Davidson diagonalization with overlap
     ethr =  1.17E-04,  avg # of iterations =  5.0

     total cpu time spent up to now is      464.1 secs

     total energy              =   -1180.32569315 Ry
     estimated scf accuracy    <       0.16526046 Ry

     iteration #  4     ecut=    90.00 Ry     beta= 0.70
     Davidson diagonalization with overlap
     ethr =  1.17E-04,  avg # of iterations =  4.0

     total cpu time spent up to now is      563.2 secs

     total energy              =   -1180.34965490 Ry
     estimated scf accuracy    <       0.00022869 Ry

     iteration #  5     ecut=    90.00 Ry     beta= 0.70
     Davidson diagonalization with overlap
     ethr =  3.18E-07,  avg # of iterations =  8.6

     total cpu time spent up to now is      724.6 secs

     total energy              =   -1180.35031122 Ry
     estimated scf accuracy    <       0.00042654 Ry

     iteration #  6     ecut=    90.00 Ry     beta= 0.70
     Davidson diagonalization with overlap
     ethr =  3.18E-07,  avg # of iterations =  4.1

     total cpu time spent up to now is      824.6 secs

     total energy              =   -1180.35038290 Ry
     estimated scf accuracy    <       0.00000315 Ry

     iteration #  7     ecut=    90.00 Ry     beta= 0.70
     Davidson diagonalization with overlap
     ethr =  4.38E-09,  avg # of iterations =  5.3

     total cpu time spent up to now is      936.2 secs

     total energy              =   -1180.35038354 Ry
     estimated scf accuracy    <       0.00000487 Ry

     iteration #  8     ecut=    90.00 Ry     beta= 0.70
     Davidson diagonalization with overlap
     ethr =  4.38E-09,  avg # of iterations =  4.0

     total cpu time spent up to now is     1034.0 secs

     End of self-consistent calculation

          k = 0.0000 0.0000 0.0000 (  9771 PWs)   bands (ev):

   -56.5159 -56.5159 -56.4812 -56.4812 -56.4812 -56.4812 -56.4812 -56.4812
   -28.5818 -28.5818 -28.5739 -28.5739 -28.5739 -28.5739 -28.4846 -28.4846
   -27.6173 -27.6173 -27.6173 -27.6173 -27.5402 -27.5402 -27.5402 -27.5402
   -27.5319 -27.5319 -27.4505 -27.4505 -27.4505 -27.4505 -27.4490 -27.4490
     2.6988   2.6988   7.4571   7.4571   7.4571   7.4571   7.4663   7.4663
    10.5369  10.5369  10.5448  10.5448  10.5448  10.5448  11.9121  11.9121
    11.9121  11.9121  11.9232  11.9232  12.6034  12.6034  12.7722  12.7722
    12.7722  12.7722  13.1425  13.1425  13.1425  13.1425  13.1437  13.1437
    13.6707  13.6707  13.6707  13.6707  13.6745  13.6745  15.5513  15.5513
    15.5827  15.5827  15.5827  15.5827  15.7639  15.7639  15.7639  15.7639
    16.6660  16.6660  16.6963  16.6963  16.6963  16.6963

     occupation numbers 
     1.0000   1.0000   1.0000   1.0000   1.0000   1.0000   1.0000   1.0000
     1.0000   1.0000   1.0000   1.0000   1.0000   1.0000   1.0000   1.0000
     1.0000   1.0000   1.0000   1.0000   1.0000   1.0000   1.0000   1.0000
     1.0000   1.0000   1.0000   1.0000   1.0000   1.0000   1.0000   1.0000
     1.0000   1.0000   1.0000   1.0000   1.0000   1.0000   1.0000   1.0000
     1.0000   1.0000   1.0000   1.0000   1.0000   1.0000   1.0000   1.0000
     1.0000   1.0000   1.0000   1.0000   1.0000   1.0000   1.0000   1.0000
     1.0000   1.0000   1.0000   1.0000   1.0000   1.0000   1.0000   1.0000
     1.0000   1.0000   1.0000   1.0000   1.0000   1.0000  -0.0000  -0.0000
    -0.0000  -0.0000  -0.0000  -0.0000  -0.0000  -0.0000  -0.0000  -0.0000
    -0.0000  -0.0000  -0.0000  -0.0000  -0.0000  -0.0000

          k = 0.0000 0.0000 0.0833 (  9699 PWs)   bands (ev):

   -56.5155 -56.5155 -56.4838 -56.4838 -56.4811 -56.4811 -56.4793 -56.4793
   -28.5861 -28.5787 -28.5784 -28.5760 -28.5703 -28.5677 -28.4859 -28.4859
   -27.6267 -27.6222 -27.6113 -27.6068 -27.5458 -27.5442 -27.5376 -27.5363
   -27.5353 -27.5240 -27.4549 -27.4541 -27.4522 -27.4489 -27.4484 -27.4449
     2.7471   2.7471   7.0341   7.0382   7.4859   7.4868   7.8142   7.8222
    10.2170  10.2227  10.5746  10.5756  10.8835  10.8869  11.4927  11.4947
    11.7825  11.7854  12.3545  12.3686  12.5858  12.5884  12.7665  12.7742
    12.8426  12.8428  13.1196  13.1211  13.1606  13.1611  13.1848  13.1854
    13.5497  13.5551  13.6643  13.6651  13.8247  13.8256  15.4673  15.4899
    15.4955  15.4990  15.6792  15.6983  15.7441  15.7530  15.7563  15.7676
    16.5419  16.5609  16.6633  16.6649  16.8154  16.8354

     occupation numbers 
     1.0000   1.0000   1.0000   1.0000   1.0000   1.0000   1.0000   1.0000
     1.0000   1.0000   1.0000   1.0000   1.0000   1.0000   1.0000   1.0000
     1.0000   1.0000   1.0000   1.0000   1.0000   1.0000   1.0000   1.0000
     1.0000   1.0000   1.0000   1.0000   1.0000   1.0000   1.0000   1.0000
     1.0000   1.0000   1.0000   1.0000   1.0000   1.0000   1.0000   1.0000
     1.0000   1.0000   1.0000   1.0000   1.0000   1.0000   1.0000   1.0000
     1.0000   1.0000   1.0000   1.0000   1.0000   1.0000   1.0000   1.0000
     1.0000   1.0000   1.0000   1.0000   1.0000   1.0000   1.0000   1.0000
     1.0000   1.0000   1.0000   1.0000   1.0000   1.0000  -0.0000  -0.0000
    -0.0000  -0.0000  -0.0000  -0.0000  -0.0000  -0.0000  -0.0000  -0.0000
    -0.0000  -0.0000  -0.0000  -0.0000  -0.0000  -0.0000

          k = 0.0000 0.0000 0.1667 (  9663 PWs)   bands (ev):

   -56.5142 -56.5142 -56.4868 -56.4868 -56.4807 -56.4807 -56.4779 -56.4779
   -28.5895 -28.5821 -28.5783 -28.5776 -28.5635 -28.5601 -28.4896 -28.4895
   -27.6341 -27.6264 -27.6038 -27.5963 -27.5519 -27.5469 -27.5398 -27.5341
   -27.5318 -27.5149 -27.4610 -27.4585 -27.4553 -27.4488 -27.4475 -27.4418
     2.8909   2.8909   6.5403   6.5428   7.5632   7.5652   8.1198   8.1292
     9.9479   9.9520  10.6626  10.6651  11.0723  11.0752  11.2875  11.2882
    11.5008  11.5056  12.4496  12.4599  12.7397  12.7620  12.8030  12.8096
    13.0116  13.0149  13.1066  13.1091  13.1957  13.1978  13.2267  13.2271
    13.5310  13.5411  13.6317  13.6342  13.9627  13.9632  15.2936  15.3145
    15.4166  15.4241  15.6907  15.7003  15.7458  15.7642  15.7919  15.8175
    16.4075  16.4230  16.5958  16.6033  16.9913  17.0118

     occupation numbers 
     1.0000   1.0000   1.0000   1.0000   1.0000   1.0000   1.0000   1.0000
     1.0000   1.0000   1.0000   1.0000   1.0000   1.0000   1.0000   1.0000
     1.0000   1.0000   1.0000   1.0000   1.0000   1.0000   1.0000   1.0000
     1.0000   1.0000   1.0000   1.0000   1.0000   1.0000   1.0000   1.0000
     1.0000   1.0000   1.0000   1.0000   1.0000   1.0000   1.0000   1.0000
     1.0000   1.0000   1.0000   1.0000   1.0000   1.0000   1.0000   1.0000
     1.0000   1.0000   1.0000   1.0000   1.0000   1.0000   1.0000   1.0000
     1.0000   1.0000   1.0000   1.0000   1.0000   1.0000   1.0000   1.0000
     1.0000   1.0000   1.0000   1.0000   1.0000   1.0000  -0.0000  -0.0000
    -0.0000  -0.0000  -0.0000  -0.0000  -0.0000  -0.0000  -0.0000  -0.0000
    -0.0000  -0.0000  -0.0000  -0.0000  -0.0000  -0.0000

          k = 0.0000 0.0000 0.2500 (  9618 PWs)   bands (ev):

   -56.5120 -56.5120 -56.4904 -56.4904 -56.4800 -56.4800 -56.4772 -56.4772
   -28.5915 -28.5841 -28.5811 -28.5785 -28.5546 -28.5515 -28.4957 -28.4954
   -27.6392 -27.6304 -27.5947 -27.5874 -27.5582 -27.5475 -27.5371 -27.5352
   -27.5302 -27.5052 -27.4692 -27.4614 -27.4594 -27.4497 -27.4470 -27.4402
     3.1274   3.1274   5.9922   5.9936   7.6897   7.6927   8.3703   8.3804
     9.7440   9.7453  10.7561  10.7613  10.8664  10.8751  11.1955  11.2029
    11.5683  11.5689  12.2656  12.2805  12.8665  12.8731  12.9123  12.9341
    13.1195  13.1236  13.1285  13.1338  13.2505  13.2511  13.2816  13.2855
    13.5435  13.5469  13.6976  13.7051  14.0461  14.0466  15.0731  15.1017
    15.3796  15.3801  15.6152  15.6304  15.7376  15.7618  15.8512  15.8752
    16.2857  16.3004  16.4939  16.5054  17.1877  17.2082

     occupation numbers 
     1.0000   1.0000   1.0000   1.0000   1.0000   1.0000   1.0000   1.0000
     1.0000   1.0000   1.0000   1.0000   1.0000   1.0000   1.0000   1.0000
     1.0000   1.0000   1.0000   1.0000   1.0000   1.0000   1.0000   1.0000
     1.0000   1.0000   1.0000   1.0000   1.0000   1.0000   1.0000   1.0000
     1.0000   1.0000   1.0000   1.0000   1.0000   1.0000   1.0000   1.0000
     1.0000   1.0000   1.0000   1.0000   1.0000   1.0000   1.0000   1.0000
     1.0000   1.0000   1.0000   1.0000   1.0000   1.0000   1.0000   1.0000
     1.0000   1.0000   1.0000   1.0000   1.0000   1.0000   1.0000   1.0000
     1.0000   1.0000   1.0000   1.0000   1.0000   1.0000  -0.0267  -0.0118
    -0.0000  -0.0000  -0.0000  -0.0000  -0.0000  -0.0000  -0.0000  -0.0000
    -0.0000  -0.0000  -0.0000  -0.0000  -0.0000  -0.0000

          k = 0.0000 0.0000 0.3333 (  9606 PWs)   bands (ev):

   -56.5092 -56.5092 -56.4942 -56.4942 -56.4792 -56.4792 -56.4769 -56.4769
   -28.5921 -28.5849 -28.5841 -28.5801 -28.5446 -28.5420 -28.5036 -28.5031
   -27.6419 -27.6343 -27.5850 -27.5803 -27.5640 -27.5458 -27.5404 -27.5308
   -27.5292 -27.4956 -27.4795 -27.4645 -27.4617 -27.4515 -27.4462 -27.4401
     3.4514   3.4514   5.4204   5.4212   7.8603   7.8643   8.5099   8.5195
     9.6516   9.6531  10.6595  10.6618  10.7720  10.7844  11.0445  11.0475
    11.8625  11.8645  12.1345  12.1502  12.8381  12.8541  12.9333  12.9428
    13.1131  13.1189  13.1684  13.1736  13.2579  13.2607  13.3935  13.3957
    13.4520  13.4542  13.9153  13.9192  14.1180  14.1248  14.8899  14.9240
    15.3570  15.3654  15.5338  15.5522  15.7422  15.7705  15.8540  15.8781
    16.1948  16.2107  16.3710  16.3846  17.3064  17.3224

     occupation numbers 
     1.0000   1.0000   1.0000   1.0000   1.0000   1.0000   1.0000   1.0000
     1.0000   1.0000   1.0000   1.0000   1.0000   1.0000   1.0000   1.0000
     1.0000   1.0000   1.0000   1.0000   1.0000   1.0000   1.0000   1.0000
     1.0000   1.0000   1.0000   1.0000   1.0000   1.0000   1.0000   1.0000
     1.0000   1.0000   1.0000   1.0000   1.0000   1.0000   1.0000   1.0000
     1.0000   1.0000   1.0000   1.0000   1.0000   1.0000   1.0000   1.0000
     1.0000   1.0000   1.0000   1.0000   1.0000   1.0000   1.0000   1.0000
     1.0000   1.0000   1.0000   1.0000   1.0000   1.0000   1.0000   1.0000
     1.0000   1.0000   1.0000   1.0000   1.0000   1.0000   0.9672   0.7442
    -0.0000  -0.0000  -0.0000  -0.0000  -0.0000  -0.0000  -0.0000  -0.0000
    -0.0000  -0.0000  -0.0000  -0.0000  -0.0000  -0.0000

          k = 0.0000 0.0000 0.4167 (  9666 PWs)   bands (ev):

   -56.5059 -56.5059 -56.4982 -56.4982 -56.4784 -56.4784 -56.4771 -56.4771
   -28.5914 -28.5870 -28.5846 -28.5819 -28.5340 -28.5320 -28.5130 -28.5120
   -27.6424 -27.6380 -27.5782 -27.5713 -27.5690 -27.5490 -27.5422 -27.5336
   -27.5177 -27.4915 -27.4864 -27.4708 -27.4599 -27.4540 -27.4447 -27.4411
     3.8554   3.8555   4.8572   4.8576   8.0650   8.0702   8.4634   8.4714
     9.7545   9.7582  10.3461  10.3485  10.7987  10.8119  11.0008  11.0067
    12.1357  12.1375  12.1479  12.1611  12.6962  12.7114  12.8880  12.8998
    13.0760  13.0804  13.1920  13.1944  13.2271  13.2309  13.2797  13.2832
    13.6257  13.6272  13.9007  13.9048  14.3437  14.3628  14.7376  14.7718
    15.3633  15.3776  15.4593  15.4785  15.7674  15.7974  15.8352  15.8620
    16.1485  16.1636  16.2503  16.2641  17.4016  17.4068

     occupation numbers 
     1.0000   1.0000   1.0000   1.0000   1.0000   1.0000   1.0000   1.0000
     1.0000   1.0000   1.0000   1.0000   1.0000   1.0000   1.0000   1.0000
     1.0000   1.0000   1.0000   1.0000   1.0000   1.0000   1.0000   1.0000
     1.0000   1.0000   1.0000   1.0000   1.0000   1.0000   1.0000   1.0000
     1.0000   1.0000   1.0000   1.0000   1.0000   1.0000   1.0000   1.0000
     1.0000   1.0000   1.0000   1.0000   1.0000   1.0000   1.0000   1.0000
     1.0000   1.0000   1.0000   1.0000   1.0000   1.0000   1.0000   1.0000
     1.0000   1.0000   1.0000   1.0000   1.0000   1.0000   1.0000   1.0000
     1.0000   1.0000   1.0000   1.0000   1.0000   1.0000   1.0008   1.0045
    -0.0000  -0.0000  -0.0000  -0.0000  -0.0000  -0.0000  -0.0000  -0.0000
    -0.0000  -0.0000  -0.0000  -0.0000  -0.0000  -0.0000

          k = 0.0000 0.0000-0.5000 (  9658 PWs)   bands (ev):

   -56.5021 -56.5021 -56.5021 -56.5021 -56.4777 -56.4777 -56.4777 -56.4777
   -28.5896 -28.5896 -28.5835 -28.5835 -28.5233 -28.5233 -28.5218 -28.5218
   -27.6409 -27.6409 -27.5738 -27.5738 -27.5598 -27.5598 -27.5378 -27.5378
   -27.5046 -27.5046 -27.4781 -27.4781 -27.4570 -27.4570 -27.4429 -27.4429
     4.3289   4.3289   4.3291   4.3291   8.2827   8.2827   8.2891   8.2891
    10.0173  10.0173  10.0213  10.0213  10.8982  10.8982  10.9094  10.9094
    12.2474  12.2474  12.2539  12.2539  12.6847  12.6847  12.6971  12.6971
    13.1416  13.1416  13.1420  13.1420  13.2362  13.2362  13.2399  13.2399
    13.7826  13.7826  13.7857  13.7857  14.5659  14.5659  14.5944  14.5944
    15.3999  15.3999  15.4177  15.4177  15.8050  15.8050  15.8347  15.8347
    16.1660  16.1660  16.1796  16.1796  17.5427  17.5437

     occupation numbers 
     1.0000   1.0000   1.0000   1.0000   1.0000   1.0000   1.0000   1.0000
     1.0000   1.0000   1.0000   1.0000   1.0000   1.0000   1.0000   1.0000
     1.0000   1.0000   1.0000   1.0000   1.0000   1.0000   1.0000   1.0000
     1.0000   1.0000   1.0000   1.0000   1.0000   1.0000   1.0000   1.0000
     1.0000   1.0000   1.0000   1.0000   1.0000   1.0000   1.0000   1.0000
     1.0000   1.0000   1.0000   1.0000   1.0000   1.0000   1.0000   1.0000
     1.0000   1.0000   1.0000   1.0000   1.0000   1.0000   1.0000   1.0000
     1.0000   1.0000   1.0000   1.0000   1.0000   1.0000   1.0000   1.0000
     1.0000   1.0000   1.0000   1.0000   1.0000   1.0000   1.0000   1.0000
    -0.0000  -0.0000  -0.0000  -0.0000  -0.0000  -0.0000  -0.0000  -0.0000
    -0.0000  -0.0000  -0.0000  -0.0000  -0.0000  -0.0000

          k = 0.0000 0.0833 0.0833 (  9665 PWs)   bands (ev):

   -56.5150 -56.5150 -56.4848 -56.4848 -56.4812 -56.4812 -56.4786 -56.4786
   -28.5878 -28.5809 -28.5773 -28.5753 -28.5688 -28.5651 -28.4871 -28.4871
   -27.6286 -27.6257 -27.6067 -27.6036 -27.5484 -27.5441 -27.5396 -27.5389
   -27.5309 -27.5200 -27.4573 -27.4570 -27.4533 -27.4490 -27.4468 -27.4433
     2.7952   2.7952   6.9088   6.9141   7.3951   7.3981   7.9863   7.9924
    10.1065  10.1121  10.6055  10.6085  10.9968  11.0020  11.2461  11.2475
    11.8536  11.8549  12.3858  12.4016  12.6050  12.6096  12.8120  12.8211
    12.8789  12.8839  13.1318  13.1342  13.1578  13.1612  13.2137  13.2159
    13.5041  13.5087  13.6654  13.6728  13.8920  13.8950  15.4186  15.4290
    15.4854  15.4872  15.6655  15.6787  15.7434  15.7514  15.7641  15.7753
    16.4768  16.4959  16.6701  16.6744  16.8513  16.8762

     occupation numbers 
     1.0000   1.0000   1.0000   1.0000   1.0000   1.0000   1.0000   1.0000
     1.0000   1.0000   1.0000   1.0000   1.0000   1.0000   1.0000   1.0000
     1.0000   1.0000   1.0000   1.0000   1.0000   1.0000   1.0000   1.0000
     1.0000   1.0000   1.0000   1.0000   1.0000   1.0000   1.0000   1.0000
     1.0000   1.0000   1.0000   1.0000   1.0000   1.0000   1.0000   1.0000
     1.0000   1.0000   1.0000   1.0000   1.0000   1.0000   1.0000   1.0000
     1.0000   1.0000   1.0000   1.0000   1.0000   1.0000   1.0000   1.0000
     1.0000   1.0000   1.0000   1.0000   1.0000   1.0000   1.0000   1.0000
     1.0000   1.0000   1.0000   1.0000   1.0000   1.0000  -0.0000  -0.0000
    -0.0000  -0.0000  -0.0000  -0.0000  -0.0000  -0.0000  -0.0000  -0.0000
    -0.0000  -0.0000  -0.0000  -0.0000  -0.0000  -0.0000

          k = 0.0000 0.0833 0.1667 (  9653 PWs)   bands (ev):

   -56.5137 -56.5137 -56.4873 -56.4873 -56.4810 -56.4810 -56.4776 -56.4776
   -28.5902 -28.5835 -28.5769 -28.5768 -28.5628 -28.5591 -28.4908 -28.4908
   -27.6341 -27.6283 -27.6007 -27.5949 -27.5525 -27.5474 -27.5412 -27.5379
   -27.5276 -27.5121 -27.4639 -27.4609 -27.4553 -27.4502 -27.4452 -27.4405
     2.9386   2.9386   6.5239   6.5275   7.4125   7.4150   8.2331   8.2396
     9.9137   9.9180  10.6959  10.6970  10.8385  10.8413  11.3144  11.3164
    11.6695  11.6735  12.4475  12.4527  12.6191  12.6255  12.9297  12.9372
    13.0461  13.0521  13.1323  13.1327  13.1821  13.1846  13.2616  13.2640
    13.4809  13.4859  13.6755  13.6863  13.9989  14.0043  15.2962  15.3173
    15.3783  15.3926  15.6417  15.6559  15.7224  15.7362  15.8071  15.8288
    16.3631  16.3809  16.6151  16.6248  16.9884  17.0153

     occupation numbers 
     1.0000   1.0000   1.0000   1.0000   1.0000   1.0000   1.0000   1.0000
     1.0000   1.0000   1.0000   1.0000   1.0000   1.0000   1.0000   1.0000
     1.0000   1.0000   1.0000   1.0000   1.0000   1.0000   1.0000   1.0000
     1.0000   1.0000   1.0000   1.0000   1.0000   1.0000   1.0000   1.0000
     1.0000   1.0000   1.0000   1.0000   1.0000   1.0000   1.0000   1.0000
     1.0000   1.0000   1.0000   1.0000   1.0000   1.0000   1.0000   1.0000
     1.0000   1.0000   1.0000   1.0000   1.0000   1.0000   1.0000   1.0000
     1.0000   1.0000   1.0000   1.0000   1.0000   1.0000   1.0000   1.0000
     1.0000   1.0000   1.0000   1.0000   1.0000   1.0000  -0.0000  -0.0000
    -0.0000  -0.0000  -0.0000  -0.0000  -0.0000  -0.0000  -0.0000  -0.0000
    -0.0000  -0.0000  -0.0000  -0.0000  -0.0000  -0.0000

          k = 0.0000 0.0833 0.2500 (  9646 PWs)   bands (ev):

   -56.5116 -56.5116 -56.4905 -56.4905 -56.4804 -56.4804 -56.4771 -56.4771
   -28.5916 -28.5850 -28.5795 -28.5777 -28.5545 -28.5512 -28.4968 -28.4966
   -27.6386 -27.6309 -27.5930 -27.5866 -27.5580 -27.5483 -27.5396 -27.5375
   -27.5267 -27.5030 -27.4723 -27.4639 -27.4583 -27.4522 -27.4440 -27.4388
     3.1742   3.1743   6.0098   6.0118   7.5332   7.5350   8.4346   8.4415
     9.7448   9.7462  10.5621  10.5656  10.8458  10.8485  11.3943  11.4025
    11.5685  11.5703  12.2885  12.3013  12.7224  12.7239  13.0168  13.0312
    13.0876  13.0913  13.1757  13.1817  13.2488  13.2493  13.3325  13.3355
    13.5253  13.5306  13.7537  13.7668  14.0709  14.0762  15.0809  15.1089
    15.3416  15.3519  15.5643  15.5799  15.7103  15.7321  15.8492  15.8736
    16.2535  16.2692  16.5139  16.5265  17.1638  17.1917

     occupation numbers 
     1.0000   1.0000   1.0000   1.0000   1.0000   1.0000   1.0000   1.0000
     1.0000   1.0000   1.0000   1.0000   1.0000   1.0000   1.0000   1.0000
     1.0000   1.0000   1.0000   1.0000   1.0000   1.0000   1.0000   1.0000
     1.0000   1.0000   1.0000   1.0000   1.0000   1.0000   1.0000   1.0000
     1.0000   1.0000   1.0000   1.0000   1.0000   1.0000   1.0000   1.0000
     1.0000   1.0000   1.0000   1.0000   1.0000   1.0000   1.0000   1.0000
     1.0000   1.0000   1.0000   1.0000   1.0000   1.0000   1.0000   1.0000
     1.0000   1.0000   1.0000   1.0000   1.0000   1.0000   1.0000   1.0000
     1.0000   1.0000   1.0000   1.0000   1.0000   1.0000  -0.0222  -0.0091
    -0.0000  -0.0000  -0.0000  -0.0000  -0.0000  -0.0000  -0.0000  -0.0000
    -0.0000  -0.0000  -0.0000  -0.0000  -0.0000  -0.0000

          k = 0.0000 0.0833 0.3333 (  9649 PWs)   bands (ev):

   -56.5089 -56.5089 -56.4942 -56.4942 -56.4796 -56.4796 -56.4770 -56.4770
   -28.5919 -28.5857 -28.5824 -28.5793 -28.5448 -28.5422 -28.5046 -28.5041
   -27.6410 -27.6340 -27.5844 -27.5795 -27.5637 -27.5468 -27.5423 -27.5318
   -27.5277 -27.4939 -27.4824 -27.4659 -27.4614 -27.4546 -27.4429 -27.4383
     3.4970   3.4972   5.4517   5.4528   7.7142   7.7164   8.5121   8.5184
     9.6730   9.6750  10.3916  10.3959  10.9572  10.9601  11.1471  11.1596
    11.8087  11.8124  12.1756  12.1890  12.7437  12.7482  12.9867  12.9935
    13.0251  13.0300  13.2292  13.2341  13.2968  13.2984  13.4268  13.4321
    13.4958  13.5062  13.9328  13.9410  14.1522  14.1604  14.8959  14.9293
    15.3225  15.3348  15.4781  15.4938  15.7121  15.7379  15.8531  15.8788
    16.1743  16.1871  16.3941  16.4078  17.2784  17.3019

     occupation numbers 
     1.0000   1.0000   1.0000   1.0000   1.0000   1.0000   1.0000   1.0000
     1.0000   1.0000   1.0000   1.0000   1.0000   1.0000   1.0000   1.0000
     1.0000   1.0000   1.0000   1.0000   1.0000   1.0000   1.0000   1.0000
     1.0000   1.0000   1.0000   1.0000   1.0000   1.0000   1.0000   1.0000
     1.0000   1.0000   1.0000   1.0000   1.0000   1.0000   1.0000   1.0000
     1.0000   1.0000   1.0000   1.0000   1.0000   1.0000   1.0000   1.0000
     1.0000   1.0000   1.0000   1.0000   1.0000   1.0000   1.0000   1.0000
     1.0000   1.0000   1.0000   1.0000   1.0000   1.0000   1.0000   1.0000
     1.0000   1.0000   1.0000   1.0000   1.0000   1.0000   0.9403   0.6958
    -0.0000  -0.0000  -0.0000  -0.0000  -0.0000  -0.0000  -0.0000  -0.0000
    -0.0000  -0.0000  -0.0000  -0.0000  -0.0000  -0.0000

          k = 0.0000 0.0833 0.4167 (  9647 PWs)   bands (ev):

   -56.5056 -56.5056 -56.4980 -56.4980 -56.4787 -56.4787 -56.4773 -56.4773
   -28.5909 -28.5867 -28.5839 -28.5812 -28.5345 -28.5325 -28.5138 -28.5129
   -27.6413 -27.6372 -27.5782 -27.5707 -27.5690 -27.5506 -27.5422 -27.5329
   -27.5194 -27.4946 -27.4846 -27.4702 -27.4615 -27.4570 -27.4417 -27.4390
     3.8994   3.8996   4.8951   4.8957   7.9379   7.9409   8.4044   8.4096
     9.7774   9.7810  10.2247  10.2286  10.9623  10.9680  11.0305  11.0358
    12.0233  12.0293  12.2039  12.2113  12.6464  12.6511  12.8360  12.8437
    13.0724  13.0764  13.2588  13.2618  13.2900  13.2929  13.3199  13.3225
    13.6491  13.6523  13.9194  13.9240  14.3705  14.3913  14.7450  14.7790
    15.3259  15.3409  15.4054  15.4212  15.7389  15.7662  15.8298  15.8576
    16.1459  16.1556  16.2755  16.2881  17.3826  17.3964

     occupation numbers 
     1.0000   1.0000   1.0000   1.0000   1.0000   1.0000   1.0000   1.0000
     1.0000   1.0000   1.0000   1.0000   1.0000   1.0000   1.0000   1.0000
     1.0000   1.0000   1.0000   1.0000   1.0000   1.0000   1.0000   1.0000
     1.0000   1.0000   1.0000   1.0000   1.0000   1.0000   1.0000   1.0000
     1.0000   1.0000   1.0000   1.0000   1.0000   1.0000   1.0000   1.0000
     1.0000   1.0000   1.0000   1.0000   1.0000   1.0000   1.0000   1.0000
     1.0000   1.0000   1.0000   1.0000   1.0000   1.0000   1.0000   1.0000
     1.0000   1.0000   1.0000   1.0000   1.0000   1.0000   1.0000   1.0000
     1.0000   1.0000   1.0000   1.0000   1.0000   1.0000   1.0012   1.0061
    -0.0000  -0.0000  -0.0000  -0.0000  -0.0000  -0.0000  -0.0000  -0.0000
    -0.0000  -0.0000  -0.0000  -0.0000  -0.0000  -0.0000

          k = 0.0000 0.0833-0.5000 (  9688 PWs)   bands (ev):

   -56.5019 -56.5019 -56.5019 -56.5019 -56.4779 -56.4779 -56.4779 -56.4779
   -28.5890 -28.5890 -28.5829 -28.5829 -28.5243 -28.5243 -28.5223 -28.5223
   -27.6399 -27.6399 -27.5737 -27.5737 -27.5602 -27.5602 -27.5375 -27.5375
   -27.5070 -27.5070 -27.4768 -27.4768 -27.4595 -27.4595 -27.4403 -27.4403
     4.3705   4.3705   4.3708   4.3708   8.1815   8.1815   8.1882   8.1882
     9.9986   9.9986  10.0031  10.0031  10.9696  10.9696  10.9828  10.9828
    12.1975  12.1975  12.2036  12.2036  12.6440  12.6440  12.6598  12.6598
    13.1819  13.1819  13.1862  13.1862  13.2822  13.2822  13.2842  13.2842
    13.8037  13.8037  13.8072  13.8072  14.5813  14.5813  14.6108  14.6108
    15.3535  15.3535  15.3703  15.3703  15.7853  15.7853  15.8150  15.8150
    16.1820  16.1820  16.1941  16.1941  17.5402  17.5449

     occupation numbers 
     1.0000   1.0000   1.0000   1.0000   1.0000   1.0000   1.0000   1.0000
     1.0000   1.0000   1.0000   1.0000   1.0000   1.0000   1.0000   1.0000
     1.0000   1.0000   1.0000   1.0000   1.0000   1.0000   1.0000   1.0000
     1.0000   1.0000   1.0000   1.0000   1.0000   1.0000   1.0000   1.0000
     1.0000   1.0000   1.0000   1.0000   1.0000   1.0000   1.0000   1.0000
     1.0000   1.0000   1.0000   1.0000   1.0000   1.0000   1.0000   1.0000
     1.0000   1.0000   1.0000   1.0000   1.0000   1.0000   1.0000   1.0000
     1.0000   1.0000   1.0000   1.0000   1.0000   1.0000   1.0000   1.0000
     1.0000   1.0000   1.0000   1.0000   1.0000   1.0000   1.0000   1.0000
    -0.0000  -0.0000  -0.0000  -0.0000  -0.0000  -0.0000  -0.0000  -0.0000
    -0.0000  -0.0000  -0.0000  -0.0000  -0.0000  -0.0000

          k = 0.0000 0.1667 0.1667 (  9657 PWs)   bands (ev):

   -56.5125 -56.5125 -56.4887 -56.4887 -56.4812 -56.4812 -56.4771 -56.4771
   -28.5913 -28.5851 -28.5759 -28.5759 -28.5598 -28.5558 -28.4944 -28.4943
   -27.6350 -27.6310 -27.5945 -27.5908 -27.5534 -27.5503 -27.5430 -27.5398
   -27.5238 -27.5057 -27.4696 -27.4659 -27.4580 -27.4501 -27.4426 -27.4382
     3.0805   3.0806   6.3977   6.4020   7.2079   7.2123   8.4069   8.4123
     9.8324   9.8357  10.5107  10.5132  10.7867  10.7879  11.3570  11.3600
    11.7805  11.7809  12.4122  12.4178  12.5881  12.5959  12.9947  12.9961
    13.0904  13.0986  13.1706  13.1713  13.2429  13.2495  13.3344  13.3395
    13.4666  13.4745  13.7319  13.7461  14.0750  14.0823  15.2514  15.2731
    15.3008  15.3201  15.5337  15.5457  15.6931  15.7141  15.8132  15.8378
    16.2775  16.2945  16.6074  16.6171  17.0334  17.0679

     occupation numbers 
     1.0000   1.0000   1.0000   1.0000   1.0000   1.0000   1.0000   1.0000
     1.0000   1.0000   1.0000   1.0000   1.0000   1.0000   1.0000   1.0000
     1.0000   1.0000   1.0000   1.0000   1.0000   1.0000   1.0000   1.0000
     1.0000   1.0000   1.0000   1.0000   1.0000   1.0000   1.0000   1.0000
     1.0000   1.0000   1.0000   1.0000   1.0000   1.0000   1.0000   1.0000
     1.0000   1.0000   1.0000   1.0000   1.0000   1.0000   1.0000   1.0000
     1.0000   1.0000   1.0000   1.0000   1.0000   1.0000   1.0000   1.0000
     1.0000   1.0000   1.0000   1.0000   1.0000   1.0000   1.0000   1.0000
     1.0000   1.0000   1.0000   1.0000   1.0000   1.0000  -0.0000  -0.0000
    -0.0000  -0.0000  -0.0000  -0.0000  -0.0000  -0.0000  -0.0000  -0.0000
    -0.0000  -0.0000  -0.0000  -0.0000  -0.0000  -0.0000

          k = 0.0000 0.1667 0.2500 (  9644 PWs)   bands (ev):

   -56.5105 -56.5105 -56.4912 -56.4912 -56.4810 -56.4810 -56.4769 -56.4769
   -28.5917 -28.5858 -28.5772 -28.5761 -28.5536 -28.5501 -28.5001 -28.4999
   -27.6370 -27.6320 -27.5887 -27.5844 -27.5575 -27.5515 -27.5424 -27.5396
   -27.5229 -27.4984 -27.4782 -27.4693 -27.4614 -27.4507 -27.4407 -27.4362
     3.3138   3.3139   6.0387   6.0418   7.2042   7.2079   8.5048   8.5091
     9.7419   9.7438  10.2899  10.2941  10.8765  10.8776  11.4819  11.4826
    11.6896  11.6907  12.3246  12.3301  12.5676  12.5730  12.9872  12.9945
    13.1248  13.1378  13.2043  13.2098  13.3291  13.3303  13.4421  13.4500
    13.5202  13.5277  13.8631  13.8786  14.1363  14.1437  15.0963  15.1215
    15.2382  15.2572  15.4365  15.4496  15.6638  15.6868  15.8196  15.8465
    16.1947  16.2087  16.5338  16.5454  17.1533  17.1921

     occupation numbers 
     1.0000   1.0000   1.0000   1.0000   1.0000   1.0000   1.0000   1.0000
     1.0000   1.0000   1.0000   1.0000   1.0000   1.0000   1.0000   1.0000
     1.0000   1.0000   1.0000   1.0000   1.0000   1.0000   1.0000   1.0000
     1.0000   1.0000   1.0000   1.0000   1.0000   1.0000   1.0000   1.0000
     1.0000   1.0000   1.0000   1.0000   1.0000   1.0000   1.0000   1.0000
     1.0000   1.0000   1.0000   1.0000   1.0000   1.0000   1.0000   1.0000
     1.0000   1.0000   1.0000   1.0000   1.0000   1.0000   1.0000   1.0000
     1.0000   1.0000   1.0000   1.0000   1.0000   1.0000   1.0000   1.0000
     1.0000   1.0000   1.0000   1.0000   1.0000   1.0000  -0.0142  -0.0054
    -0.0000  -0.0000  -0.0000  -0.0000  -0.0000  -0.0000  -0.0000  -0.0000
    -0.0000  -0.0000  -0.0000  -0.0000  -0.0000  -0.0000

          k = 0.0000 0.1667 0.3333 (  9647 PWs)   bands (ev):

   -56.5079 -56.5079 -56.4943 -56.4943 -56.4803 -56.4803 -56.4771 -56.4771
   -28.5911 -28.5857 -28.5797 -28.5775 -28.5452 -28.5426 -28.5075 -28.5072
   -27.6383 -27.6331 -27.5833 -27.5776 -27.5631 -27.5504 -27.5436 -27.5342
   -27.5249 -27.4923 -27.4872 -27.4717 -27.4634 -27.4527 -27.4389 -27.4352
     3.6330   3.6332   5.5381   5.5398   7.3632   7.3658   8.4327   8.4360
     9.7332   9.7364  10.1896  10.1939  10.9872  10.9903  11.3856  11.3953
    11.7521  11.7565  12.1888  12.1976  12.5943  12.6020  12.8753  12.8842
    13.1118  13.1211  13.2498  13.2556  13.3781  13.3794  13.5252  13.5352
    13.5894  13.6025  13.9882  13.9988  14.2440  14.2565  14.9095  14.9405
    15.2237  15.2423  15.3432  15.3532  15.6518  15.6768  15.8052  15.8356
    16.1515  16.1610  16.4395  16.4525  17.2363  17.2692

     occupation numbers 
     1.0000   1.0000   1.0000   1.0000   1.0000   1.0000   1.0000   1.0000
     1.0000   1.0000   1.0000   1.0000   1.0000   1.0000   1.0000   1.0000
     1.0000   1.0000   1.0000   1.0000   1.0000   1.0000   1.0000   1.0000
     1.0000   1.0000   1.0000   1.0000   1.0000   1.0000   1.0000   1.0000
     1.0000   1.0000   1.0000   1.0000   1.0000   1.0000   1.0000   1.0000
     1.0000   1.0000   1.0000   1.0000   1.0000   1.0000   1.0000   1.0000
     1.0000   1.0000   1.0000   1.0000   1.0000   1.0000   1.0000   1.0000
     1.0000   1.0000   1.0000   1.0000   1.0000   1.0000   1.0000   1.0000
     1.0000   1.0000   1.0000   1.0000   1.0000   1.0000   0.8597   0.5857
    -0.0000  -0.0000  -0.0000  -0.0000  -0.0000  -0.0000  -0.0000  -0.0000
    -0.0000  -0.0000  -0.0000  -0.0000  -0.0000  -0.0000

          k = 0.0000 0.1667 0.4167 (  9668 PWs)   bands (ev):

   -56.5047 -56.5047 -56.4977 -56.4977 -56.4794 -56.4794 -56.4777 -56.4777
   -28.5895 -28.5855 -28.5819 -28.5795 -28.5358 -28.5339 -28.5163 -28.5156
   -27.6380 -27.6348 -27.5789 -27.5717 -27.5666 -27.5532 -27.5419 -27.5314
   -27.5228 -27.5002 -27.4841 -27.4748 -27.4624 -27.4558 -27.4374 -27.4353
     4.0302   4.0306   5.0056   5.0066   7.6069   7.6091   8.1966   8.1991
     9.8544   9.8579  10.1271  10.1306  11.0543  11.0630  11.2133  11.2272
    11.9235  11.9286  12.1473  12.1530  12.5356  12.5450  12.7019  12.7125
    13.1759  13.1803  13.2849  13.2897  13.3737  13.3760  13.4816  13.4829
    13.7241  13.7283  13.9708  13.9769  14.4435  14.4685  14.7616  14.7945
    15.2226  15.2389  15.2755  15.2840  15.6685  15.6953  15.7662  15.7977
    16.1695  16.1754  16.3385  16.3512  17.3267  17.3480

     occupation numbers 
     1.0000   1.0000   1.0000   1.0000   1.0000   1.0000   1.0000   1.0000
     1.0000   1.0000   1.0000   1.0000   1.0000   1.0000   1.0000   1.0000
     1.0000   1.0000   1.0000   1.0000   1.0000   1.0000   1.0000   1.0000
     1.0000   1.0000   1.0000   1.0000   1.0000   1.0000   1.0000   1.0000
     1.0000   1.0000   1.0000   1.0000   1.0000   1.0000   1.0000   1.0000
     1.0000   1.0000   1.0000   1.0000   1.0000   1.0000   1.0000   1.0000
     1.0000   1.0000   1.0000   1.0000   1.0000   1.0000   1.0000   1.0000
     1.0000   1.0000   1.0000   1.0000   1.0000   1.0000   1.0000   1.0000
     1.0000   1.0000   1.0000   1.0000   1.0000   1.0000   1.0028   1.0112
    -0.0000  -0.0000  -0.0000  -0.0000  -0.0000  -0.0000  -0.0000  -0.0000
    -0.0000  -0.0000  -0.0000  -0.0000  -0.0000  -0.0000

          k = 0.0000 0.1667-0.5000 (  9654 PWs)   bands (ev):

   -56.5013 -56.5013 -56.5013 -56.5013 -56.4785 -56.4785 -56.4785 -56.4785
   -28.5872 -28.5872 -28.5814 -28.5814 -28.5267 -28.5267 -28.5240 -28.5240
   -27.6367 -27.6367 -27.5746 -27.5746 -27.5602 -27.5602 -27.5368 -27.5368
   -27.5118 -27.5118 -27.4789 -27.4789 -27.4593 -27.4593 -27.4361 -27.4361
     4.4936   4.4936   4.4943   4.4943   7.8952   7.8952   7.9021   7.9021
    10.0150  10.0150  10.0190  10.0190  11.1035  11.1035  11.1176  11.1176
    12.0900  12.0900  12.0945  12.0945  12.5393  12.5393  12.5551  12.5551
    13.2747  13.2747  13.2757  13.2757  13.3901  13.3901  13.3912  13.3912
    13.8667  13.8667  13.8706  13.8706  14.6210  14.6210  14.6523  14.6523
    15.2359  15.2359  15.2506  15.2506  15.7130  15.7130  15.7427  15.7427
    16.2395  16.2395  16.2501  16.2501  17.4851  17.4927

     occupation numbers 
     1.0000   1.0000   1.0000   1.0000   1.0000   1.0000   1.0000   1.0000
     1.0000   1.0000   1.0000   1.0000   1.0000   1.0000   1.0000   1.0000
     1.0000   1.0000   1.0000   1.0000   1.0000   1.0000   1.0000   1.0000
     1.0000   1.0000   1.0000   1.0000   1.0000   1.0000   1.0000   1.0000
     1.0000   1.0000   1.0000   1.0000   1.0000   1.0000   1.0000   1.0000
     1.0000   1.0000   1.0000   1.0000   1.0000   1.0000   1.0000   1.0000
     1.0000   1.0000   1.0000   1.0000   1.0000   1.0000   1.0000   1.0000
     1.0000   1.0000   1.0000   1.0000   1.0000   1.0000   1.0000   1.0000
     1.0000   1.0000   1.0000   1.0000   1.0000   1.0000   1.0000   1.0000
    -0.0000  -0.0000  -0.0000  -0.0000  -0.0000  -0.0000  -0.0000  -0.0000
    -0.0000  -0.0000  -0.0000  -0.0000  -0.0000  -0.0000

          k = 0.0000 0.2500 0.2500 (  9661 PWs)   bands (ev):

   -56.5087 -56.5087 -56.4925 -56.4925 -56.4813 -56.4813 -56.4771 -56.4771
   -28.5911 -28.5857 -28.5760 -28.5753 -28.5507 -28.5472 -28.5054 -28.5050
   -27.6354 -27.6322 -27.5841 -27.5817 -27.5581 -27.5542 -27.5423 -27.5410
   -27.5213 -27.4950 -27.4847 -27.4749 -27.4645 -27.4483 -27.4381 -27.4342
     3.5428   3.5430   5.9655   5.9687   6.9414   6.9454   8.4364   8.4415
     9.7518   9.7550  10.1865  10.1917  10.9259  10.9283  11.3506  11.3517
    11.8600  11.8638  12.2864  12.2899  12.5059  12.5152  12.9035  12.9111
    13.1472  13.1565  13.2697  13.2792  13.4412  13.4426  13.5196  13.5288
    13.5706  13.5811  13.9841  13.9964  14.2201  14.2257  15.0461  15.0665
    15.1395  15.1642  15.2931  15.3046  15.6139  15.6391  15.7622  15.7911
    16.1596  16.1706  16.5124  16.5231  17.1854  17.2284

     occupation numbers 
     1.0000   1.0000   1.0000   1.0000   1.0000   1.0000   1.0000   1.0000
     1.0000   1.0000   1.0000   1.0000   1.0000   1.0000   1.0000   1.0000
     1.0000   1.0000   1.0000   1.0000   1.0000   1.0000   1.0000   1.0000
     1.0000   1.0000   1.0000   1.0000   1.0000   1.0000   1.0000   1.0000
     1.0000   1.0000   1.0000   1.0000   1.0000   1.0000   1.0000   1.0000
     1.0000   1.0000   1.0000   1.0000   1.0000   1.0000   1.0000   1.0000
     1.0000   1.0000   1.0000   1.0000   1.0000   1.0000   1.0000   1.0000
     1.0000   1.0000   1.0000   1.0000   1.0000   1.0000   1.0000   1.0000
     1.0000   1.0000   1.0000   1.0000   1.0000   1.0000  -0.0353  -0.0301
    -0.0023  -0.0006  -0.0000  -0.0000  -0.0000  -0.0000  -0.0000  -0.0000
    -0.0000  -0.0000  -0.0000  -0.0000  -0.0000  -0.0000

          k = 0.0000 0.2500 0.3333 (  9636 PWs)   bands (ev):

   -56.5063 -56.5063 -56.4947 -56.4947 -56.4810 -56.4810 -56.4776 -56.4776
   -28.5895 -28.5847 -28.5772 -28.5757 -28.5450 -28.5423 -28.5122 -28.5118
   -27.6342 -27.6312 -27.5832 -27.5767 -27.5622 -27.5525 -27.5426 -27.5366
   -27.5232 -27.4952 -27.4921 -27.4792 -27.4630 -27.4480 -27.4361 -27.4329
     3.8558   3.8561   5.6434   5.6458   6.9527   6.9562   8.1881   8.1920
     9.8431   9.8467  10.1797  10.1836  10.9892  10.9914  11.3885  11.3920
    11.8760  11.8782  12.1108  12.1121  12.4497  12.4600  12.7482  12.7566
    13.1964  13.2064  13.3023  13.3092  13.4484  13.4519  13.6453  13.6487
    13.7125  13.7173  14.0563  14.0673  14.3686  14.3884  14.9103  14.9350
    15.0746  15.0985  15.1864  15.1938  15.5820  15.6064  15.7075  15.7392
    16.1729  16.1808  16.4785  16.4884  17.1843  17.2198

     occupation numbers 
     1.0000   1.0000   1.0000   1.0000   1.0000   1.0000   1.0000   1.0000
     1.0000   1.0000   1.0000   1.0000   1.0000   1.0000   1.0000   1.0000
     1.0000   1.0000   1.0000   1.0000   1.0000   1.0000   1.0000   1.0000
     1.0000   1.0000   1.0000   1.0000   1.0000   1.0000   1.0000   1.0000
     1.0000   1.0000   1.0000   1.0000   1.0000   1.0000   1.0000   1.0000
     1.0000   1.0000   1.0000   1.0000   1.0000   1.0000   1.0000   1.0000
     1.0000   1.0000   1.0000   1.0000   1.0000   1.0000   1.0000   1.0000
     1.0000   1.0000   1.0000   1.0000   1.0000   1.0000   1.0000   1.0000
     1.0000   1.0000   1.0000   1.0000   1.0000   1.0000   0.8539   0.6410
    -0.0258  -0.0132  -0.0002  -0.0001  -0.0000  -0.0000  -0.0000  -0.0000
    -0.0000  -0.0000  -0.0000  -0.0000  -0.0000  -0.0000

          k = 0.0000 0.2500 0.4167 (  9659 PWs)   bands (ev):

   -56.5035 -56.5035 -56.4974 -56.4974 -56.4803 -56.4803 -56.4784 -56.4784
   -28.5872 -28.5835 -28.5792 -28.5772 -28.5375 -28.5357 -28.5201 -28.5195
   -27.6329 -27.6307 -27.5820 -27.5762 -27.5616 -27.5530 -27.5410 -27.5304
   -27.5257 -27.5054 -27.4903 -27.4836 -27.4585 -27.4498 -27.4344 -27.4326
     4.2435   4.2441   5.1762   5.1776   7.1710   7.1739   7.8424   7.8455
     9.9965   9.9995  10.1861  10.1891  11.0742  11.0807  11.3416  11.3527
    11.9082  11.9109  11.9804  11.9855  12.4122  12.4238  12.5557  12.5671
    13.2753  13.2835  13.3653  13.3673  13.4290  13.4308  13.6286  13.6309
    13.8636  13.8665  14.0587  14.0663  14.5326  14.5615  14.7627  14.7909
    15.0724  15.0896  15.1186  15.1220  15.5763  15.6016  15.6512  15.6828
    16.2386  16.2458  16.4217  16.4329  17.2188  17.2410

     occupation numbers 
     1.0000   1.0000   1.0000   1.0000   1.0000   1.0000   1.0000   1.0000
     1.0000   1.0000   1.0000   1.0000   1.0000   1.0000   1.0000   1.0000
     1.0000   1.0000   1.0000   1.0000   1.0000   1.0000   1.0000   1.0000
     1.0000   1.0000   1.0000   1.0000   1.0000   1.0000   1.0000   1.0000
     1.0000   1.0000   1.0000   1.0000   1.0000   1.0000   1.0000   1.0000
     1.0000   1.0000   1.0000   1.0000   1.0000   1.0000   1.0000   1.0000
     1.0000   1.0000   1.0000   1.0000   1.0000   1.0000   1.0000   1.0000
     1.0000   1.0000   1.0000   1.0000   1.0000   1.0000   1.0000   1.0000
     1.0000   1.0000   1.0000   1.0000   1.0000   1.0000   1.0029   1.0098
    -0.0270  -0.0175  -0.0061  -0.0053  -0.0000  -0.0000  -0.0000  -0.0000
    -0.0000  -0.0000  -0.0000  -0.0000  -0.0000  -0.0000

          k = 0.0000 0.2500-0.5000 (  9686 PWs)   bands (ev):

   -56.5004 -56.5004 -56.5004 -56.5004 -56.4793 -56.4793 -56.4793 -56.4793
   -28.5846 -28.5846 -28.5791 -28.5791 -28.5299 -28.5299 -28.5267 -28.5267
   -27.6315 -27.6315 -27.5794 -27.5794 -27.5571 -27.5571 -27.5356 -27.5356
   -27.5164 -27.5164 -27.4874 -27.4874 -27.4536 -27.4536 -27.4331 -27.4331
     4.6919   4.6919   4.6929   4.6929   7.4838   7.4838   7.4900   7.4900
    10.1295  10.1295  10.1325  10.1325  11.2001  11.2001  11.2118  11.2118
    11.9552  11.9552  11.9571  11.9571  12.4184  12.4184  12.4308  12.4308
    13.3460  13.3460  13.3525  13.3525  13.5155  13.5155  13.5216  13.5216
    13.9874  13.9874  13.9929  13.9929  14.6544  14.6544  14.6849  14.6849
    15.0842  15.0842  15.0959  15.0959  15.6023  15.6023  15.6311  15.6311
    16.3327  16.3327  16.3437  16.3437  17.3589  17.3600

     occupation numbers 
     1.0000   1.0000   1.0000   1.0000   1.0000   1.0000   1.0000   1.0000
     1.0000   1.0000   1.0000   1.0000   1.0000   1.0000   1.0000   1.0000
     1.0000   1.0000   1.0000   1.0000   1.0000   1.0000   1.0000   1.0000
     1.0000   1.0000   1.0000   1.0000   1.0000   1.0000   1.0000   1.0000
     1.0000   1.0000   1.0000   1.0000   1.0000   1.0000   1.0000   1.0000
     1.0000   1.0000   1.0000   1.0000   1.0000   1.0000   1.0000   1.0000
     1.0000   1.0000   1.0000   1.0000   1.0000   1.0000   1.0000   1.0000
     1.0000   1.0000   1.0000   1.0000   1.0000   1.0000   1.0000   1.0000
     1.0000   1.0000   1.0000   1.0000   1.0000   1.0000   1.0000   1.0000
    -0.0204  -0.0204  -0.0144  -0.0144  -0.0000  -0.0000  -0.0000  -0.0000
    -0.0000  -0.0000  -0.0000  -0.0000  -0.0000  -0.0000

          k = 0.0000 0.3333 0.3333 (  9619 PWs)   bands (ev):

   -56.5042 -56.5042 -56.4957 -56.4957 -56.4813 -56.4813 -56.4784 -56.4784
   -28.5871 -28.5830 -28.5759 -28.5750 -28.5430 -28.5405 -28.5184 -28.5176
   -27.6298 -27.6286 -27.5849 -27.5793 -27.5593 -27.5514 -27.5400 -27.5369
   -27.5238 -27.5004 -27.4982 -27.4870 -27.4579 -27.4444 -27.4346 -27.4316
     4.1586   4.1590   5.6403   5.6424   6.6787   6.6814   7.8200   7.8238
    10.0316  10.0343  10.3051  10.3081  10.9405  10.9422  11.2582  11.2604
    11.8942  11.9008  12.1586  12.1630  12.3090  12.3185  12.6281  12.6359
    13.1776  13.1860  13.3902  13.3952  13.5583  13.5611  13.7200  13.7253
    13.8832  13.8948  14.0941  14.1068  14.4879  14.5137  14.8479  14.8595
    14.9400  14.9600  15.0561  15.0729  15.5198  15.5430  15.6013  15.6313
    16.2320  16.2408  16.4898  16.4967  17.1461  17.1767

     occupation numbers 
     1.0000   1.0000   1.0000   1.0000   1.0000   1.0000   1.0000   1.0000
     1.0000   1.0000   1.0000   1.0000   1.0000   1.0000   1.0000   1.0000
     1.0000   1.0000   1.0000   1.0000   1.0000   1.0000   1.0000   1.0000
     1.0000   1.0000   1.0000   1.0000   1.0000   1.0000   1.0000   1.0000
     1.0000   1.0000   1.0000   1.0000   1.0000   1.0000   1.0000   1.0000
     1.0000   1.0000   1.0000   1.0000   1.0000   1.0000   1.0000   1.0000
     1.0000   1.0000   1.0000   1.0000   1.0000   1.0000   1.0000   1.0000
     1.0000   1.0000   1.0000   1.0000   1.0000   1.0000   1.0000   1.0000
     1.0000   1.0000   1.0000   1.0000   1.0000   1.0000   1.0354   1.0323
     0.5906   0.3847  -0.0344  -0.0267  -0.0000  -0.0000  -0.0000  -0.0000
    -0.0000  -0.0000  -0.0000  -0.0000  -0.0000  -0.0000

          k = 0.0000 0.3333 0.4167 (  9633 PWs)   bands (ev):

   -56.5019 -56.5019 -56.4973 -56.4973 -56.4810 -56.4810 -56.4793 -56.4793
   -28.5842 -28.5810 -28.5768 -28.5754 -28.5384 -28.5368 -28.5250 -28.5243
   -27.6264 -27.6255 -27.5876 -27.5837 -27.5551 -27.5496 -27.5390 -27.5301
   -27.5276 -27.5089 -27.5001 -27.4933 -27.4518 -27.4439 -27.4334 -27.4313
     4.5305   4.5311   5.3665   5.3683   6.7397   6.7426   7.4121   7.4151
    10.2064  10.2082  10.3657  10.3678  11.0317  11.0346  11.3562  11.3632
    11.7473  11.7503  11.9381  11.9433  12.3001  12.3063  12.4378  12.4464
    13.2736  13.2818  13.4169  13.4191  13.5829  13.5853  13.7586  13.7637
    14.0548  14.0621  14.1737  14.1817  14.5737  14.5973  14.7021  14.7206
    14.9165  14.9334  14.9741  14.9932  15.4930  15.5135  15.5340  15.5625
    16.3318  16.3418  16.5035  16.5098  17.0965  17.1156

     occupation numbers 
     1.0000   1.0000   1.0000   1.0000   1.0000   1.0000   1.0000   1.0000
     1.0000   1.0000   1.0000   1.0000   1.0000   1.0000   1.0000   1.0000
     1.0000   1.0000   1.0000   1.0000   1.0000   1.0000   1.0000   1.0000
     1.0000   1.0000   1.0000   1.0000   1.0000   1.0000   1.0000   1.0000
     1.0000   1.0000   1.0000   1.0000   1.0000   1.0000   1.0000   1.0000
     1.0000   1.0000   1.0000   1.0000   1.0000   1.0000   1.0000   1.0000
     1.0000   1.0000   1.0000   1.0000   1.0000   1.0000   1.0000   1.0000
     1.0000   1.0000   1.0000   1.0000   1.0000   1.0000   1.0000   1.0000
     1.0000   1.0000   1.0000   1.0000   1.0000   1.0000   1.0001   1.0003
     0.8078   0.6569   0.2510   0.1067  -0.0000  -0.0000  -0.0000  -0.0000
    -0.0000  -0.0000  -0.0000  -0.0000  -0.0000  -0.0000

          k = 0.0000 0.3333-0.5000 (  9646 PWs)   bands (ev):

   -56.4995 -56.4995 -56.4995 -56.4995 -56.4803 -56.4803 -56.4803 -56.4803
   -28.5813 -28.5813 -28.5768 -28.5768 -28.5330 -28.5330 -28.5300 -28.5300
   -27.6245 -27.6245 -27.5873 -27.5873 -27.5512 -27.5512 -27.5345 -27.5345
   -27.5195 -27.5195 -27.4977 -27.4977 -27.4467 -27.4467 -27.4320 -27.4320
     4.9498   4.9498   4.9512   4.9512   7.0288   7.0288   7.0337   7.0337
    10.3304  10.3304  10.3325  10.3325  11.2378  11.2378  11.2462  11.2462
    11.7603  11.7603  11.7658  11.7658  12.3339  12.3339  12.3413  12.3413
    13.3652  13.3652  13.3723  13.3723  13.6742  13.6742  13.6829  13.6829
    14.1706  14.1706  14.1761  14.1761  14.6102  14.6102  14.6292  14.6292
    14.9428  14.9428  14.9578  14.9578  15.4961  15.4961  15.5204  15.5204
    16.4402  16.4402  16.4509  16.4509  17.1940  17.1959

     occupation numbers 
     1.0000   1.0000   1.0000   1.0000   1.0000   1.0000   1.0000   1.0000
     1.0000   1.0000   1.0000   1.0000   1.0000   1.0000   1.0000   1.0000
     1.0000   1.0000   1.0000   1.0000   1.0000   1.0000   1.0000   1.0000
     1.0000   1.0000   1.0000   1.0000   1.0000   1.0000   1.0000   1.0000
     1.0000   1.0000   1.0000   1.0000   1.0000   1.0000   1.0000   1.0000
     1.0000   1.0000   1.0000   1.0000   1.0000   1.0000   1.0000   1.0000
     1.0000   1.0000   1.0000   1.0000   1.0000   1.0000   1.0000   1.0000
     1.0000   1.0000   1.0000   1.0000   1.0000   1.0000   1.0000   1.0000
     1.0000   1.0000   1.0000   1.0000   1.0000   1.0000   1.0000   1.0000
     0.5618   0.5618   0.4071   0.4071  -0.0000  -0.0000  -0.0000  -0.0000
    -0.0000  -0.0000  -0.0000  -0.0000  -0.0000  -0.0000

          k = 0.0000 0.4167 0.4167 (  9620 PWs)   bands (ev):

[...]
    12.1172  12.1172  12.1240  12.1240  12.4602  12.4602  12.4692  12.4692
    13.2032  13.2032  13.2078  13.2078  13.7312  13.7312  13.7448  13.7448
    14.3181  14.3181  14.3228  14.3228  14.7067  14.7067  14.7330  14.7330
    14.8545  14.8545  14.8934  14.8934  15.3745  15.3745  15.3857  15.3857
    16.4338  16.4338  16.4433  16.4433  17.0289  17.0323

     occupation numbers 
     1.0000   1.0000   1.0000   1.0000   1.0000   1.0000   1.0000   1.0000
     1.0000   1.0000   1.0000   1.0000   1.0000   1.0000   1.0000   1.0000
     1.0000   1.0000   1.0000   1.0000   1.0000   1.0000   1.0000   1.0000
     1.0000   1.0000   1.0000   1.0000   1.0000   1.0000   1.0000   1.0000
     1.0000   1.0000   1.0000   1.0000   1.0000   1.0000   1.0000   1.0000
     1.0000   1.0000   1.0000   1.0000   1.0000   1.0000   1.0000   1.0000
     1.0000   1.0000   1.0000   1.0000   1.0000   1.0000   1.0000   1.0000
     1.0000   1.0000   1.0000   1.0000   1.0000   1.0000   1.0000   1.0000
     1.0000   1.0000   1.0000   1.0000   1.0001   1.0001   1.0006   1.0006
     1.0346   1.0346   0.9523   0.9523  -0.0000  -0.0000  -0.0000  -0.0000
    -0.0000  -0.0000  -0.0000  -0.0000  -0.0000  -0.0000

          k =-0.2500 0.4167 0.3333 (  9646 PWs)   bands (ev):

   -56.4995 -56.4995 -56.4955 -56.4955 -56.4832 -56.4832 -56.4813 -56.4813
   -28.5794 -28.5764 -28.5716 -28.5704 -28.5438 -28.5418 -28.5322 -28.5306
   -27.6201 -27.6179 -27.5833 -27.5794 -27.5688 -27.5655 -27.5414 -27.5320
   -27.5241 -27.5114 -27.4831 -27.4758 -27.4591 -27.4546 -27.4355 -27.4331
     4.8890   4.8895   5.6569   5.6596   6.8104   6.8158   7.3892   7.3924
     8.9986   9.0029   9.5182   9.5230  10.7774  10.7806  11.2113  11.2131
    12.0004  12.0030  12.3392  12.3429  12.7068  12.7132  12.8287  12.8357
    13.1067  13.1145  13.1621  13.1739  13.4047  13.4126  13.5758  13.5862
    14.1364  14.1441  14.4443  14.4564  14.6830  14.6973  14.8319  14.8514
    14.9668  14.9784  15.1292  15.1625  15.2838  15.2918  15.4291  15.4424
    16.2779  16.2860  16.3853  16.3924  17.0192  17.0285

     occupation numbers 
     1.0000   1.0000   1.0000   1.0000   1.0000   1.0000   1.0000   1.0000
     1.0000   1.0000   1.0000   1.0000   1.0000   1.0000   1.0000   1.0000
     1.0000   1.0000   1.0000   1.0000   1.0000   1.0000   1.0000   1.0000
     1.0000   1.0000   1.0000   1.0000   1.0000   1.0000   1.0000   1.0000
     1.0000   1.0000   1.0000   1.0000   1.0000   1.0000   1.0000   1.0000
     1.0000   1.0000   1.0000   1.0000   1.0000   1.0000   1.0000   1.0000
     1.0000   1.0000   1.0000   1.0000   1.0000   1.0000   1.0000   1.0000
     1.0000   1.0000   1.0000   1.0000   1.0000   1.0000   1.0000   1.0000
     1.0000   1.0000   1.0000   1.0000   1.0000   1.0001   1.0306   1.0353
     0.3186   0.2148  -0.0038  -0.0007  -0.0000  -0.0000  -0.0000  -0.0000
    -0.0000  -0.0000  -0.0000  -0.0000  -0.0000  -0.0000

          k =-0.2500-0.5000 0.3333 (  9656 PWs)   bands (ev):

   -56.4973 -56.4973 -56.4973 -56.4973 -56.4824 -56.4824 -56.4824 -56.4824
   -28.5762 -28.5762 -28.5719 -28.5719 -28.5394 -28.5394 -28.5358 -28.5358
   -27.6175 -27.6175 -27.5827 -27.5827 -27.5673 -27.5673 -27.5373 -27.5373
   -27.5169 -27.5169 -27.4806 -27.4806 -27.4555 -27.4555 -27.4346 -27.4346
     5.2808   5.2808   5.2822   5.2822   7.0734   7.0734   7.0786   7.0786
     9.2473   9.2473   9.2519   9.2519  10.9387  10.9387  10.9413  10.9413
    12.1896  12.1896  12.1977  12.1977  12.7740  12.7740  12.7842  12.7842
    13.1170  13.1170  13.1282  13.1282  13.4999  13.4999  13.5102  13.5102
    14.3077  14.3077  14.3162  14.3162  14.7796  14.7796  14.7973  14.7973
    15.0296  15.0296  15.0548  15.0548  15.3552  15.3552  15.3704  15.3704
    16.3334  16.3334  16.3437  16.3437  17.0862  17.0871

     occupation numbers 
     1.0000   1.0000   1.0000   1.0000   1.0000   1.0000   1.0000   1.0000
     1.0000   1.0000   1.0000   1.0000   1.0000   1.0000   1.0000   1.0000
     1.0000   1.0000   1.0000   1.0000   1.0000   1.0000   1.0000   1.0000
     1.0000   1.0000   1.0000   1.0000   1.0000   1.0000   1.0000   1.0000
     1.0000   1.0000   1.0000   1.0000   1.0000   1.0000   1.0000   1.0000
     1.0000   1.0000   1.0000   1.0000   1.0000   1.0000   1.0000   1.0000
     1.0000   1.0000   1.0000   1.0000   1.0000   1.0000   1.0000   1.0000
     1.0000   1.0000   1.0000   1.0000   1.0000   1.0000   1.0000   1.0000
     1.0000   1.0000   1.0000   1.0000   1.0063   1.0063   1.0124   1.0124
    -0.0240  -0.0240  -0.0347  -0.0347  -0.0000  -0.0000  -0.0000  -0.0000
    -0.0000  -0.0000  -0.0000  -0.0000  -0.0000  -0.0000

          k =-0.2500-0.5000 0.4167 (  9646 PWs)   bands (ev):

   -56.4964 -56.4964 -56.4964 -56.4964 -56.4834 -56.4834 -56.4834 -56.4834
   -28.5729 -28.5729 -28.5702 -28.5702 -28.5417 -28.5417 -28.5393 -28.5393
   -27.6105 -27.6105 -27.5909 -27.5909 -27.5650 -27.5650 -27.5402 -27.5402
   -27.5125 -27.5125 -27.4853 -27.4853 -27.4503 -27.4503 -27.4373 -27.4373
     5.5375   5.5375   5.5393   5.5393   6.7778   6.7778   6.7821   6.7821
     9.3213   9.3213   9.3263   9.3263  10.6408  10.6408  10.6437  10.6437
    12.3614  12.3614  12.3697  12.3697  12.6610  12.6610  12.6705  12.6705
    13.1093  13.1093  13.1156  13.1156  13.5444  13.5444  13.5569  13.5569
    14.4440  14.4440  14.4505  14.4505  14.8161  14.8161  14.8424  14.8424
    14.9538  14.9538  14.9915  14.9915  15.3190  15.3190  15.3305  15.3305
    16.3805  16.3805  16.3890  16.3890  16.9293  16.9313

     occupation numbers 
     1.0000   1.0000   1.0000   1.0000   1.0000   1.0000   1.0000   1.0000
     1.0000   1.0000   1.0000   1.0000   1.0000   1.0000   1.0000   1.0000
     1.0000   1.0000   1.0000   1.0000   1.0000   1.0000   1.0000   1.0000
     1.0000   1.0000   1.0000   1.0000   1.0000   1.0000   1.0000   1.0000
     1.0000   1.0000   1.0000   1.0000   1.0000   1.0000   1.0000   1.0000
     1.0000   1.0000   1.0000   1.0000   1.0000   1.0000   1.0000   1.0000
     1.0000   1.0000   1.0000   1.0000   1.0000   1.0000   1.0000   1.0000
     1.0000   1.0000   1.0000   1.0000   1.0000   1.0000   1.0000   1.0000
     1.0000   1.0000   1.0000   1.0000   1.0219   1.0219   1.0346   1.0346
     0.4487   0.4487   0.1176   0.1176  -0.0000  -0.0000  -0.0000  -0.0000
    -0.0000  -0.0000  -0.0000  -0.0000  -0.0000  -0.0000

          k =-0.3333-0.5000 0.4167 (  9664 PWs)   bands (ev):

   -56.4947 -56.4947 -56.4947 -56.4947 -56.4850 -56.4850 -56.4850 -56.4850
   -28.5692 -28.5692 -28.5666 -28.5666 -28.5459 -28.5459 -28.5436 -28.5436
   -27.6059 -27.6059 -27.5883 -27.5883 -27.5733 -27.5733 -27.5445 -27.5445
   -27.5062 -27.5062 -27.4764 -27.4764 -27.4553 -27.4553 -27.4415 -27.4415
     5.7602   5.7602   5.7627   5.7627   6.7872   6.7872   6.7927   6.7927
     9.0480   9.0480   9.0544   9.0544  10.2140  10.2140  10.2176  10.2176
    12.5360  12.5360  12.5438  12.5438  12.8187  12.8187  12.8269  12.8269
    13.0616  13.0616  13.0712  13.0712  13.3558  13.3558  13.3663  13.3663
    14.5887  14.5887  14.5956  14.5956  14.9404  14.9404  14.9677  14.9677
    15.0539  15.0539  15.0884  15.0884  15.2575  15.2575  15.2760  15.2760
    16.3425  16.3425  16.3507  16.3507  16.7818  16.7871

     occupation numbers 
     1.0000   1.0000   1.0000   1.0000   1.0000   1.0000   1.0000   1.0000
     1.0000   1.0000   1.0000   1.0000   1.0000   1.0000   1.0000   1.0000
     1.0000   1.0000   1.0000   1.0000   1.0000   1.0000   1.0000   1.0000
     1.0000   1.0000   1.0000   1.0000   1.0000   1.0000   1.0000   1.0000
     1.0000   1.0000   1.0000   1.0000   1.0000   1.0000   1.0000   1.0000
     1.0000   1.0000   1.0000   1.0000   1.0000   1.0000   1.0000   1.0000
     1.0000   1.0000   1.0000   1.0000   1.0000   1.0000   1.0000   1.0000
     1.0000   1.0000   1.0000   1.0000   1.0000   1.0000   1.0000   1.0000
     1.0000   1.0000   1.0000   1.0000   0.5870   0.5870   0.3100   0.3100
    -0.0349  -0.0349  -0.0181  -0.0181  -0.0000  -0.0000  -0.0000  -0.0000
    -0.0000  -0.0000  -0.0000  -0.0000  -0.0000  -0.0000

     the Fermi energy is    14.9488 ev

!    total energy              =   -1180.35038440 Ry

     total all-electron energy =    -10727.811221 Ry
     estimated scf accuracy    <       0.00000012 Ry
     smearing contrib. (-TS)   =      -0.00007889 Ry
     internal energy E=F+TS    =   -1180.35030551 Ry

     The total energy is F=E-TS. E is the sum of the following terms:
     one-electron contribution =    -336.79129074 Ry
     hartree contribution      =     207.03519103 Ry
     xc contribution           =    -114.36144616 Ry
     ewald contribution        =    -496.51183961 Ry
     one-center paw contrib.   =    -439.72092003 Ry
      -> PAW hartree energy AE =     126.71312082 Ry
      -> PAW hartree energy PS =    -125.74578043 Ry
      -> PAW xc energy AE      =     -96.23959431 Ry
      -> PAW xc energy PS      =      20.93223752 Ry
      -> total E_H with PAW    =     208.00253143 Ry
      -> total E_XC with PAW   =    -189.66880295 Ry

     convergence has been achieved in   8 iterations

     Forces acting on atoms (cartesian axes, Ry/au):

     atom    1 type  1   force =    -0.00269392   -0.00269392    0.00269392
     atom    2 type  1   force =    -0.00269392    0.00269392   -0.00269392
     atom    3 type  1   force =     0.00269392   -0.00269392   -0.00269392
     atom    4 type  1   force =     0.00269392    0.00269392    0.00269392
     atom    5 type  2   force =    -0.00429759   -0.00429759    0.00429759
     atom    6 type  2   force =    -0.00429759    0.00429759   -0.00429759
     atom    7 type  2   force =     0.00429759   -0.00429759   -0.00429759
     atom    8 type  2   force =     0.00429759    0.00429759    0.00429759
     The non-local contrib.  to forces
     atom    1 type  1   force =     0.05132938    0.05132938   -0.05132938
     atom    2 type  1   force =     0.05132938   -0.05132938    0.05132938
     atom    3 type  1   force =    -0.05132938    0.05132938    0.05132938
     atom    4 type  1   force =    -0.05132938   -0.05132938   -0.05132938
     atom    5 type  2   force =    -0.00807831   -0.00807831    0.00807831
     atom    6 type  2   force =    -0.00807831    0.00807831   -0.00807831
     atom    7 type  2   force =     0.00807831   -0.00807831   -0.00807831
     atom    8 type  2   force =     0.00807831    0.00807831    0.00807831
     The ionic contribution  to forces
     atom    1 type  1   force =    -0.85044630   -0.85044630    0.85044630
     atom    2 type  1   force =    -0.85044630    0.85044630   -0.85044630
     atom    3 type  1   force =     0.85044630   -0.85044630   -0.85044630
     atom    4 type  1   force =     0.85044630    0.85044630    0.85044630
     atom    5 type  2   force =    -0.24524978   -0.24524978    0.24524978
     atom    6 type  2   force =    -0.24524978    0.24524978   -0.24524978
     atom    7 type  2   force =     0.24524978   -0.24524978   -0.24524978
     atom    8 type  2   force =     0.24524978    0.24524978    0.24524978
     The local contribution  to forces
     atom    1 type  1   force =     0.79741266    0.79741266   -0.79741266
     atom    2 type  1   force =     0.79741266   -0.79741266    0.79741266
     atom    3 type  1   force =    -0.79741266    0.79741266    0.79741266
     atom    4 type  1   force =    -0.79741266   -0.79741266   -0.79741266
     atom    5 type  2   force =     0.24824108    0.24824108   -0.24824108
     atom    6 type  2   force =     0.24824108   -0.24824108    0.24824108
     atom    7 type  2   force =    -0.24824108    0.24824108    0.24824108
     atom    8 type  2   force =    -0.24824108   -0.24824108   -0.24824108
     The core correction contribution to forces
     atom    1 type  1   force =    -0.00103366   -0.00103366    0.00103366
     atom    2 type  1   force =    -0.00103366    0.00103366   -0.00103366
     atom    3 type  1   force =     0.00103366   -0.00103366   -0.00103366
     atom    4 type  1   force =     0.00103366    0.00103366    0.00103366
     atom    5 type  2   force =     0.00079634    0.00079634   -0.00079634
     atom    6 type  2   force =     0.00079634   -0.00079634    0.00079634
     atom    7 type  2   force =    -0.00079634    0.00079634    0.00079634
     atom    8 type  2   force =    -0.00079634   -0.00079634   -0.00079634
     The Hubbard contrib.    to forces
     atom    1 type  1   force =     0.00000000    0.00000000    0.00000000
     atom    2 type  1   force =     0.00000000    0.00000000    0.00000000
     atom    3 type  1   force =     0.00000000    0.00000000    0.00000000
     atom    4 type  1   force =     0.00000000    0.00000000    0.00000000
     atom    5 type  2   force =     0.00000000    0.00000000    0.00000000
     atom    6 type  2   force =     0.00000000    0.00000000    0.00000000
     atom    7 type  2   force =     0.00000000    0.00000000    0.00000000
     atom    8 type  2   force =     0.00000000    0.00000000    0.00000000
     The SCF correction term to forces
     atom    1 type  1   force =     0.00004400    0.00004400   -0.00004400
     atom    2 type  1   force =     0.00004400   -0.00004400    0.00004400
     atom    3 type  1   force =    -0.00004400    0.00004400    0.00004400
     atom    4 type  1   force =    -0.00004400   -0.00004400   -0.00004400
     atom    5 type  2   force =    -0.00000693   -0.00000693    0.00000693
     atom    6 type  2   force =    -0.00000693    0.00000693   -0.00000693
     atom    7 type  2   force =     0.00000693   -0.00000693   -0.00000693
     atom    8 type  2   force =     0.00000693    0.00000693    0.00000693

     Total force =     0.017570     Total SCF correction =     0.000154


     Computing stress (Cartesian axis) and pressure

          total   stress  (Ry/bohr**3)                   (kbar)     P=      -42.48
  -0.00028880   0.00000000   0.00000000          -42.48        0.00        0.00
   0.00000000  -0.00028880   0.00000000            0.00      -42.48        0.00
   0.00000000   0.00000000  -0.00028880            0.00        0.00      -42.48

     kinetic stress (kbar)  35759.69      0.00      0.00
                                0.00  35759.69      0.00
                                0.00      0.00  35759.69

     local   stress (kbar) -10012.22     -0.00     -0.00
                               -0.00 -10012.22     -0.00
                               -0.00     -0.00 -10012.22

     nonloc. stress (kbar)   2427.14      0.00      0.00
                                0.00   2427.14      0.00
                                0.00      0.00   2427.14

     hartree stress (kbar)  15166.75     -0.00     -0.00
                               -0.00  15166.75      0.00
                               -0.00      0.00  15166.75

     exc-cor stress (kbar)  -1706.56      0.00     -0.00
                                0.00  -1706.56     -0.00
                               -0.00     -0.00  -1706.56

     corecor stress (kbar)  -5304.38      0.00      0.00
                                0.00  -5304.38     -0.00
                               -0.00     -0.00  -5304.38

     ewald   stress (kbar) -36372.90      0.00      0.00
                                0.00 -36372.90      0.00
                                0.00      0.00 -36372.90

     hubbard stress (kbar)      0.00      0.00      0.00
                                0.00      0.00      0.00
                                0.00      0.00      0.00

     DFT-D   stress (kbar)      0.00      0.00      0.00
                                0.00      0.00      0.00
                                0.00      0.00      0.00

     XDM     stress (kbar)      0.00      0.00      0.00
                                0.00      0.00      0.00
                                0.00      0.00      0.00

     dft-nl  stress (kbar)      0.00      0.00      0.00
                                0.00      0.00      0.00
                                0.00      0.00      0.00

     TS-vdW  stress (kbar)      0.00      0.00      0.00
                                0.00      0.00      0.00
                                0.00      0.00      0.00



     Writing output data file /zfs_data/vergnior/martin/Scratch/OAL/CrSi/convergence/smearing/12x12x12/0.006/tmp/CrSi.save/
 
     init_run     :     32.56s CPU     33.38s WALL (       1 calls)
     electrons    :    982.10s CPU    997.74s WALL (       1 calls)
     forces       :     28.55s CPU     28.78s WALL (       1 calls)
     stress       :     77.83s CPU     78.33s WALL (       1 calls)

     Called by init_run:
     wfcinit      :     30.93s CPU     31.56s WALL (       1 calls)
     wfcinit:atom :      0.28s CPU      0.28s WALL (     119 calls)
     wfcinit:wfcr :     29.71s CPU     30.33s WALL (     119 calls)
     potinit      :      0.28s CPU      0.37s WALL (       1 calls)
     hinit0       :      0.24s CPU      0.25s WALL (       1 calls)

     Called by electrons:
     c_bands      :    795.53s CPU    806.73s WALL (       9 calls)
     sum_band     :    179.20s CPU    182.74s WALL (       9 calls)
     v_of_rho     :      0.40s CPU      0.42s WALL (       9 calls)
     v_h          :      0.03s CPU      0.03s WALL (       9 calls)
     v_xc         :      0.45s CPU      0.47s WALL (      11 calls)
     newd         :      5.71s CPU      6.58s WALL (       9 calls)
     PAW_pot      :      1.66s CPU      1.69s WALL (       9 calls)
     mix_rho      :      0.25s CPU      0.26s WALL (       9 calls)

     Called by c_bands:
     init_us_2    :      4.35s CPU      4.41s WALL (    2499 calls)
     cegterg      :    741.42s CPU    752.00s WALL (    1071 calls)

     Called by sum_band:
     sum_band:wei :      0.17s CPU      0.19s WALL (       9 calls)
     sum_band:loo :    174.19s CPU    176.71s WALL (       9 calls)
     sum_band:buf :      1.09s CPU      1.37s WALL (    1071 calls)
     sum_band:ini :      1.93s CPU      1.95s WALL (    1071 calls)
     sum_band:cal :      8.56s CPU      8.60s WALL (    1071 calls)
     sum_band:bec :     17.27s CPU     17.32s WALL (    1071 calls)
     addusdens    :      4.64s CPU      5.64s WALL (       9 calls)
     addusd:skk   :      0.01s CPU      0.01s WALL (      18 calls)
     addusd:dgemm :      1.94s CPU      2.90s WALL (      18 calls)
     addusd:qvan2 :      2.64s CPU      2.65s WALL (      18 calls)

     Called by *egterg:
     cdiaghg      :     51.36s CPU     51.58s WALL (    5785 calls)
     cegterg:over :     39.47s CPU     39.64s WALL (    4833 calls)
     cegterg:upda :     15.75s CPU     15.85s WALL (    4833 calls)
     cegterg:last :     28.44s CPU     28.57s WALL (    2803 calls)
     h_psi        :    561.30s CPU    571.61s WALL (    6023 calls)
     s_psi        :     56.54s CPU     56.76s WALL (    6023 calls)
     g_psi        :      1.04s CPU      1.05s WALL (    4833 calls)

     Called by h_psi:
     h_psi:calbec :     29.17s CPU     29.38s WALL (    6023 calls)
     vloc_psi     :    477.72s CPU    487.48s WALL (    6023 calls)
     add_vuspsi   :     51.33s CPU     51.64s WALL (    6023 calls)

     General routines
     calbec       :     42.10s CPU     42.41s WALL (    7689 calls)
     fft          :      0.51s CPU      0.52s WALL (     216 calls)
     ffts         :      0.04s CPU      0.10s WALL (      72 calls)
     fftw         :    344.97s CPU    351.00s WALL ( 1409052 calls)
     interpolate  :      0.12s CPU      0.19s WALL (      36 calls)
 
     Parallel routines
     fft_scatt_xy :     41.34s CPU     42.07s WALL ( 1409340 calls)
     fft_scatt_yz :    134.17s CPU    136.66s WALL ( 1409340 calls)

     PAW routines
     PAW_pot      :      1.66s CPU      1.69s WALL (       9 calls)
     PAW_symme    :      0.03s CPU      0.03s WALL (      18 calls)
 
     PWSCF        :  18m47.34s CPU  19m 9.63s WALL

 
   This run was terminated on:  12:57:25   1Aug2021            

=------------------------------------------------------------------------------=
   JOB DONE.
=------------------------------------------------------------------------------=
