MPI startup(): Warning: I_MPI_PMI_LIBRARY will be ignored since the hydra process manager was found
MPI startup(): Warning: I_MPI_PMI_LIBRARY will be ignored since the hydra process manager was found
MPI startup(): Warning: I_MPI_PMI_LIBRARY will be ignored since the hydra process manager was found
MPI startup(): Warning: I_MPI_PMI_LIBRARY will be ignored since the hydra process manager was found
MPI startup(): Warning: I_MPI_PMI_LIBRARY will be ignored since the hydra process manager was found
MPI startup(): Warning: I_MPI_PMI_LIBRARY will be ignored since the hydra process manager was found
MPI startup(): Warning: I_MPI_PMI_LIBRARY will be ignored since the hydra process manager was found
MPI startup(): Warning: I_MPI_PMI_LIBRARY will be ignored since the hydra process manager was found
MPI startup(): Warning: I_MPI_PMI_LIBRARY will be ignored since the hydra process manager was found
MPI startup(): Warning: I_MPI_PMI_LIBRARY will be ignored since the hydra process manager was found
MPI startup(): Warning: I_MPI_PMI_LIBRARY will be ignored since the hydra process manager was found
MPI startup(): Warning: I_MPI_PMI_LIBRARY will be ignored since the hydra process manager was found
MPI startup(): Warning: I_MPI_PMI_LIBRARY will be ignored since the hydra process manager was found
MPI startup(): Warning: I_MPI_PMI_LIBRARY will be ignored since the hydra process manager was found
MPI startup(): Warning: I_MPI_PMI_LIBRARY will be ignored since the hydra process manager was found
MPI startup(): Warning: I_MPI_PMI_LIBRARY will be ignored since the hydra process manager was found
MPI startup(): Warning: I_MPI_PMI_LIBRARY will be ignored since the hydra process manager was found
MPI startup(): Warning: I_MPI_PMI_LIBRARY will be ignored since the hydra process manager was found
MPI startup(): Warning: I_MPI_PMI_LIBRARY will be ignored since the hydra process manager was found
MPI startup(): Warning: I_MPI_PMI_LIBRARY will be ignored since the hydra process manager was found
MPI startup(): Warning: I_MPI_PMI_LIBRARY will be ignored since the hydra process manager was found
MPI startup(): Warning: I_MPI_PMI_LIBRARY will be ignored since the hydra process manager was found
MPI startup(): Warning: I_MPI_PMI_LIBRARY will be ignored since the hydra process manager was found
MPI startup(): Warning: I_MPI_PMI_LIBRARY will be ignored since the hydra process manager was found

     Program PWSCF v.6.7MaX starts on 30Jul2021 at 18:30:35 

     This program is part of the open-source Quantum ESPRESSO suite
     for quantum simulation of materials; please cite
         "P. Giannozzi et al., J. Phys.:Condens. Matter 21 395502 (2009);
         "P. Giannozzi et al., J. Phys.:Condens. Matter 29 465901 (2017);
          URL http://www.quantum-espresso.org", 
     in publications or presentations arising from this work. More details at
     http://www.quantum-espresso.org/quote

     Parallel version (MPI), running on    24 processors

     MPI processes distributed on     1 nodes
     R & G space division:  proc/nbgrp/npool/nimage =      24
     Waiting for input...
     Reading input from standard input

     Current dimensions of program PWSCF are:
     Max number of different atomic species (ntypx) = 10
     Max number of k-points (npk) =  40000
     Max angular momentum in pseudopotentials (lmaxx) =  3
     file Cr.rel-pbe-spn-kjpaw_psl.1.0.0.UPF: wavefunction(s)  3S 3P 3P 3D 3D renormalized
     file Si.rel-pbe-n-kjpaw_psl.1.0.0.UPF: wavefunction(s)  3S 3P 3P renormalized

     Subspace diagonalization in iterative solution of the eigenvalue problem:
     a serial algorithm will be used

     Message from routine setup:
     using ibrav=0 with symmetry is DISCOURAGED, use correct ibrav instead
 
     Parallelization info
     --------------------
     sticks:   dense  smooth     PW     G-vecs:    dense   smooth      PW
     Min         304     122     33                19574     4958     725
     Max         305     123     34                19579     4961     732
     Sum        7305    2933    805               469825   119009   17461
 


     bravais-lattice index     =            0
     lattice parameter (alat)  =       8.7475  a.u.
     unit-cell volume          =     669.3575 (a.u.)^3
     number of atoms/cell      =            8
     number of atomic types    =            2
     number of electrons       =        72.00
     number of Kohn-Sham states=           86
     kinetic-energy cutoff     =     120.0000  Ry
     charge density cutoff     =    1200.0000  Ry
     scf convergence threshold =      1.0E-06
     mixing beta               =       0.7000
     number of iterations used =            8  plain     mixing
     Exchange-correlation= SLA  PW   PBX  PBC
                           (   1   4   3   4   0   0   0)
     Non magnetic calculation with spin-orbit


     celldm(1)=   8.747542  celldm(2)=   0.000000  celldm(3)=   0.000000
     celldm(4)=   0.000000  celldm(5)=   0.000000  celldm(6)=   0.000000

     crystal axes: (cart. coord. in units of alat)
               a(1) = (   1.000000   0.000000   0.000000 )  
               a(2) = (   0.000000   1.000000   0.000000 )  
               a(3) = (   0.000000   0.000000   1.000000 )  

     reciprocal axes: (cart. coord. in units 2 pi/alat)
               b(1) = (  1.000000  0.000000  0.000000 )  
               b(2) = (  0.000000  1.000000  0.000000 )  
               b(3) = (  0.000000  0.000000  1.000000 )  


     PseudoPot. # 1 for Cr read from file:
     ../../../../pseudo/Cr.rel-pbe-spn-kjpaw_psl.1.0.0.UPF
     MD5 check sum: 1e24e2b5251376a8b945118fca0c7981
     Pseudo is Projector augmented-wave + core cor, Zval = 14.0
     Generated using &quot;atomic&quot; code by A. Dal Corso  v.6.3
     Shape of augmentation charge: PSQ
     Using radial grid of 1183 points, 10 beta functions with: 
                l(1) =   0
                l(2) =   0
                l(3) =   1
                l(4) =   1
                l(5) =   1
                l(6) =   1
                l(7) =   2
                l(8) =   2
                l(9) =   2
               l(10) =   2
     Q(r) pseudized with 0 coefficients 


     PseudoPot. # 2 for Si read from file:
     ../../../../pseudo/Si.rel-pbe-n-kjpaw_psl.1.0.0.UPF
     MD5 check sum: d74f6caf6830ea4c2076867160cab1b0
     Pseudo is Projector augmented-wave + core cor, Zval =  4.0
     Generated using &quot;atomic&quot; code by A. Dal Corso  v.6.3
     Shape of augmentation charge: PSQ
     Using radial grid of 1141 points, 10 beta functions with: 
                l(1) =   0
                l(2) =   0
                l(3) =   1
                l(4) =   1
                l(5) =   1
                l(6) =   1
                l(7) =   2
                l(8) =   2
                l(9) =   2
               l(10) =   2
     Q(r) pseudized with 0 coefficients 


     atomic species   valence    mass     pseudopotential
        Cr            14.00    51.99600     Cr( 1.00)
        Si             4.00    28.08500     Si( 1.00)

     12 Sym. Ops. (no inversion) found ( 9 have fractional translation)


                                    s                        frac. trans.

      isym =  1     identity                                     

 cryst.   s( 1) = (     1          0          0      )
                  (     0          1          0      )
                  (     0          0          1      )

 cart.    s( 1) = (  1.0000000  0.0000000  0.0000000 )
                  (  0.0000000  1.0000000  0.0000000 )
                  (  0.0000000  0.0000000  1.0000000 )


      isym =  2     180 deg rotation - cart. axis [0,0,1]        

 cryst.   s( 2) = (    -1          0          0      )    f =(  0.5000000 )
                  (     0         -1          0      )       (  0.0000000 )
                  (     0          0          1      )       ( -0.5000000 )

 cart.    s( 2) = ( -1.0000000  0.0000000  0.0000000 )    f =(  0.5000000 )
                  (  0.0000000 -1.0000000  0.0000000 )       (  0.0000000 )
                  (  0.0000000  0.0000000  1.0000000 )       ( -0.5000000 )


      isym =  3     180 deg rotation - cart. axis [0,1,0]        

 cryst.   s( 3) = (    -1          0          0      )    f =(  0.0000000 )
                  (     0          1          0      )       ( -0.5000000 )
                  (     0          0         -1      )       (  0.5000000 )

 cart.    s( 3) = ( -1.0000000  0.0000000  0.0000000 )    f =(  0.0000000 )
                  (  0.0000000  1.0000000  0.0000000 )       ( -0.5000000 )
                  (  0.0000000  0.0000000 -1.0000000 )       (  0.5000000 )


      isym =  4     180 deg rotation - cart. axis [1,0,0]        

 cryst.   s( 4) = (     1          0          0      )    f =(  0.5000000 )
                  (     0         -1          0      )       (  0.5000000 )
                  (     0          0         -1      )       (  0.0000000 )

 cart.    s( 4) = (  1.0000000  0.0000000  0.0000000 )    f =(  0.5000000 )
                  (  0.0000000 -1.0000000  0.0000000 )       (  0.5000000 )
                  (  0.0000000  0.0000000 -1.0000000 )       (  0.0000000 )


      isym =  5     120 deg rotation - cart. axis [-1,-1,-1]     

 cryst.   s( 5) = (     0          0          1      )
                  (     1          0          0      )
                  (     0          1          0      )

 cart.    s( 5) = (  0.0000000  1.0000000  0.0000000 )
                  (  0.0000000  0.0000000  1.0000000 )
                  (  1.0000000  0.0000000  0.0000000 )


      isym =  6     120 deg rotation - cart. axis [-1,1,1]       

 cryst.   s( 6) = (     0          0         -1      )    f =(  0.0000000 )
                  (    -1          0          0      )       ( -0.5000000 )
                  (     0          1          0      )       (  0.5000000 )

 cart.    s( 6) = (  0.0000000 -1.0000000  0.0000000 )    f =(  0.0000000 )
                  (  0.0000000  0.0000000  1.0000000 )       ( -0.5000000 )
                  ( -1.0000000  0.0000000  0.0000000 )       (  0.5000000 )


      isym =  7     120 deg rotation - cart. axis [1,1,-1]       

 cryst.   s( 7) = (     0          0         -1      )    f =(  0.5000000 )
                  (     1          0          0      )       (  0.5000000 )
                  (     0         -1          0      )       (  0.0000000 )

 cart.    s( 7) = (  0.0000000  1.0000000  0.0000000 )    f =(  0.5000000 )
                  (  0.0000000  0.0000000 -1.0000000 )       (  0.5000000 )
                  ( -1.0000000  0.0000000  0.0000000 )       (  0.0000000 )


      isym =  8     120 deg rotation - cart. axis [1,-1,1]       

 cryst.   s( 8) = (     0          0          1      )    f =(  0.5000000 )
                  (    -1          0          0      )       (  0.0000000 )
                  (     0         -1          0      )       ( -0.5000000 )

 cart.    s( 8) = (  0.0000000 -1.0000000  0.0000000 )    f =(  0.5000000 )
                  (  0.0000000  0.0000000 -1.0000000 )       (  0.0000000 )
                  (  1.0000000  0.0000000  0.0000000 )       ( -0.5000000 )


      isym =  9     120 deg rotation - cart. axis [1,1,1]        

 cryst.   s( 9) = (     0          1          0      )
                  (     0          0          1      )
                  (     1          0          0      )

 cart.    s( 9) = (  0.0000000  0.0000000  1.0000000 )
                  (  1.0000000  0.0000000  0.0000000 )
                  (  0.0000000  1.0000000  0.0000000 )


      isym = 10     120 deg rotation - cart. axis [-1,1,-1]      

 cryst.   s(10) = (     0         -1          0      )    f =(  0.5000000 )
                  (     0          0         -1      )       (  0.5000000 )
                  (     1          0          0      )       (  0.0000000 )

 cart.    s(10) = (  0.0000000  0.0000000  1.0000000 )    f =(  0.5000000 )
                  ( -1.0000000  0.0000000  0.0000000 )       (  0.5000000 )
                  (  0.0000000 -1.0000000  0.0000000 )       (  0.0000000 )


      isym = 11     120 deg rotation - cart. axis [1,-1,-1]      

 cryst.   s(11) = (     0         -1          0      )    f =(  0.5000000 )
                  (     0          0          1      )       (  0.0000000 )
                  (    -1          0          0      )       ( -0.5000000 )

 cart.    s(11) = (  0.0000000  0.0000000 -1.0000000 )    f =(  0.5000000 )
                  ( -1.0000000  0.0000000  0.0000000 )       (  0.0000000 )
                  (  0.0000000  1.0000000  0.0000000 )       ( -0.5000000 )


      isym = 12     120 deg rotation - cart. axis [-1,-1,1]      

 cryst.   s(12) = (     0          1          0      )    f =(  0.0000000 )
                  (     0          0         -1      )       ( -0.5000000 )
                  (    -1          0          0      )       (  0.5000000 )

 cart.    s(12) = (  0.0000000  0.0000000 -1.0000000 )    f =(  0.0000000 )
                  (  1.0000000  0.0000000  0.0000000 )       ( -0.5000000 )
                  (  0.0000000 -1.0000000  0.0000000 )       (  0.5000000 )


   Cartesian axes

     site n.     atom                  positions (alat units)
         1           Cr  tau(   1) = (   0.8640000   0.3640000   0.1360000  )
         2           Cr  tau(   2) = (   0.3640000   0.1360000   0.8640000  )
         3           Cr  tau(   3) = (   0.1360000   0.8640000   0.3640000  )
         4           Cr  tau(   4) = (   0.6360000   0.6360000   0.6360000  )
         5           Si  tau(   5) = (   0.1540000   0.6540000   0.8460000  )
         6           Si  tau(   6) = (   0.6540000   0.8460000   0.1540000  )
         7           Si  tau(   7) = (   0.8460000   0.1540000   0.6540000  )
         8           Si  tau(   8) = (   0.3460000   0.3460000   0.3460000  )

   Crystallographic axes

     site n.     atom                  positions (cryst. coord.)
         1           Cr  tau(   1) = (  0.8640000  0.3640000  0.1360000  )
         2           Cr  tau(   2) = (  0.3640000  0.1360000  0.8640000  )
         3           Cr  tau(   3) = (  0.1360000  0.8640000  0.3640000  )
         4           Cr  tau(   4) = (  0.6360000  0.6360000  0.6360000  )
         5           Si  tau(   5) = (  0.1540000  0.6540000  0.8460000  )
         6           Si  tau(   6) = (  0.6540000  0.8460000  0.1540000  )
         7           Si  tau(   7) = (  0.8460000  0.1540000  0.6540000  )
         8           Si  tau(   8) = (  0.3460000  0.3460000  0.3460000  )

     number of k points=    24  Methfessel-Paxton smearing, width (Ry)=  0.0200
                       cart. coord. in units 2pi/alat
        k(    1) = (   0.0000000   0.0000000   0.0000000), wk =   0.0046296
        k(    2) = (   0.0000000   0.0000000   0.1666667), wk =   0.0277778
        k(    3) = (   0.0000000   0.0000000   0.3333333), wk =   0.0277778
        k(    4) = (   0.0000000   0.0000000  -0.5000000), wk =   0.0138889
        k(    5) = (   0.0000000   0.1666667   0.1666667), wk =   0.0555556
        k(    6) = (   0.0000000   0.1666667   0.3333333), wk =   0.0555556
        k(    7) = (   0.0000000   0.1666667  -0.5000000), wk =   0.0277778
        k(    8) = (   0.0000000   0.3333333   0.3333333), wk =   0.0555556
        k(    9) = (   0.0000000   0.3333333  -0.5000000), wk =   0.0277778
        k(   10) = (   0.0000000  -0.5000000  -0.5000000), wk =   0.0138889
        k(   11) = (   0.1666667   0.1666667   0.1666667), wk =   0.0370370
        k(   12) = (   0.1666667   0.1666667   0.3333333), wk =   0.1111111
        k(   13) = (   0.1666667   0.1666667  -0.5000000), wk =   0.0555556
        k(   14) = (   0.1666667   0.3333333   0.3333333), wk =   0.1111111
        k(   15) = (   0.1666667   0.3333333  -0.5000000), wk =   0.0555556
        k(   16) = (   0.1666667  -0.5000000  -0.5000000), wk =   0.0277778
        k(   17) = (   0.3333333   0.3333333   0.3333333), wk =   0.0370370
        k(   18) = (   0.3333333   0.3333333  -0.5000000), wk =   0.0555556
        k(   19) = (   0.3333333  -0.5000000  -0.5000000), wk =   0.0277778
        k(   20) = (  -0.5000000  -0.5000000  -0.5000000), wk =   0.0046296
        k(   21) = (   0.0000000   0.3333333   0.1666667), wk =   0.0555556
        k(   22) = (   0.0000000  -0.5000000   0.1666667), wk =   0.0277778
        k(   23) = (   0.0000000  -0.5000000   0.3333333), wk =   0.0277778
        k(   24) = (  -0.1666667  -0.5000000   0.3333333), wk =   0.0555556

                       cryst. coord.
        k(    1) = (   0.0000000   0.0000000   0.0000000), wk =   0.0046296
        k(    2) = (   0.0000000   0.0000000   0.1666667), wk =   0.0277778
        k(    3) = (   0.0000000   0.0000000   0.3333333), wk =   0.0277778
        k(    4) = (   0.0000000   0.0000000  -0.5000000), wk =   0.0138889
        k(    5) = (   0.0000000   0.1666667   0.1666667), wk =   0.0555556
        k(    6) = (   0.0000000   0.1666667   0.3333333), wk =   0.0555556
        k(    7) = (   0.0000000   0.1666667  -0.5000000), wk =   0.0277778
        k(    8) = (   0.0000000   0.3333333   0.3333333), wk =   0.0555556
        k(    9) = (   0.0000000   0.3333333  -0.5000000), wk =   0.0277778
        k(   10) = (   0.0000000  -0.5000000  -0.5000000), wk =   0.0138889
        k(   11) = (   0.1666667   0.1666667   0.1666667), wk =   0.0370370
        k(   12) = (   0.1666667   0.1666667   0.3333333), wk =   0.1111111
        k(   13) = (   0.1666667   0.1666667  -0.5000000), wk =   0.0555556
        k(   14) = (   0.1666667   0.3333333   0.3333333), wk =   0.1111111
        k(   15) = (   0.1666667   0.3333333  -0.5000000), wk =   0.0555556
        k(   16) = (   0.1666667  -0.5000000  -0.5000000), wk =   0.0277778
        k(   17) = (   0.3333333   0.3333333   0.3333333), wk =   0.0370370
        k(   18) = (   0.3333333   0.3333333  -0.5000000), wk =   0.0555556
        k(   19) = (   0.3333333  -0.5000000  -0.5000000), wk =   0.0277778
        k(   20) = (  -0.5000000  -0.5000000  -0.5000000), wk =   0.0046296
        k(   21) = (   0.0000000   0.3333333   0.1666667), wk =   0.0555556
        k(   22) = (   0.0000000  -0.5000000   0.1666667), wk =   0.0277778
        k(   23) = (   0.0000000  -0.5000000   0.3333333), wk =   0.0277778
        k(   24) = (  -0.1666667  -0.5000000   0.3333333), wk =   0.0555556

     Dense  grid:   469825 G-vectors     FFT dimensions: ( 100, 100, 100)

     Smooth grid:   119009 G-vectors     FFT dimensions: (  64,  64,  64)

     Dynamical RAM for                 wfc:       1.62 MB

     Dynamical RAM for     wfc (w. buffer):      40.61 MB

     Dynamical RAM for           str. fact:       0.60 MB

     Dynamical RAM for           local pot:       0.00 MB

     Dynamical RAM for          nlocal pot:       2.57 MB

     Dynamical RAM for                qrad:      14.55 MB

     Dynamical RAM for          rho,v,vnew:       8.16 MB

     Dynamical RAM for               rhoin:       2.72 MB

     Dynamical RAM for            rho*nmix:      19.12 MB

     Dynamical RAM for           G-vectors:       1.16 MB

     Dynamical RAM for          h,s,v(r/c):       1.35 MB

     Dynamical RAM for          <psi|beta>:       0.71 MB

     Dynamical RAM for                 psi:       3.25 MB

     Dynamical RAM for                hpsi:       3.25 MB

     Dynamical RAM for                spsi:       3.25 MB

     Dynamical RAM for      wfcinit/wfcrot:       3.46 MB

     Dynamical RAM for           addusdens:     183.41 MB

     Estimated static dynamical RAM per process >      93.44 MB

     Estimated max dynamical RAM per process >     276.84 MB

     Estimated total dynamical RAM >       6.49 GB

     Initial potential from superposition of free atoms

     starting charge   71.99469, renormalised to   72.00000
     Starting wfcs are  112 randomized atomic wfcs
     Checking if some PAW data can be deallocated... 
       PAW data deallocated on   12 nodes for type:  1
       PAW data deallocated on   12 nodes for type:  2

     total cpu time spent up to now is        8.9 secs

     Self-consistent Calculation

     iteration #  1     ecut=   120.00 Ry     beta= 0.70
     Davidson diagonalization with overlap
     ethr =  1.00E-02,  avg # of iterations =  2.0

     Threshold (ethr) on eigenvalues was too large:
     Diagonalizing with lowered threshold

     Davidson diagonalization with overlap
     ethr =  2.09E-04,  avg # of iterations =  4.4

     total cpu time spent up to now is       41.5 secs

     total energy              =   -1180.31147535 Ry
     estimated scf accuracy    <       0.18866177 Ry

     iteration #  2     ecut=   120.00 Ry     beta= 0.70
     Davidson diagonalization with overlap
     ethr =  2.62E-04,  avg # of iterations =  3.2

     total cpu time spent up to now is       58.4 secs

     total energy              =   -1180.31742505 Ry
     estimated scf accuracy    <       0.07831467 Ry

     iteration #  3     ecut=   120.00 Ry     beta= 0.70
     Davidson diagonalization with overlap
     ethr =  1.09E-04,  avg # of iterations =  5.0

     total cpu time spent up to now is       78.4 secs

     total energy              =   -1180.32771989 Ry
     estimated scf accuracy    <       0.15975276 Ry

     iteration #  4     ecut=   120.00 Ry     beta= 0.70
     Davidson diagonalization with overlap
     ethr =  1.09E-04,  avg # of iterations =  4.1

     total cpu time spent up to now is       95.1 secs

     total energy              =   -1180.35143606 Ry
     estimated scf accuracy    <       0.00043485 Ry

     iteration #  5     ecut=   120.00 Ry     beta= 0.70
     Davidson diagonalization with overlap
     ethr =  6.04E-07,  avg # of iterations =  7.7

     total cpu time spent up to now is      118.5 secs

     total energy              =   -1180.35202342 Ry
     estimated scf accuracy    <       0.00023146 Ry

     iteration #  6     ecut=   120.00 Ry     beta= 0.70
     Davidson diagonalization with overlap
     ethr =  3.21E-07,  avg # of iterations =  3.0

     total cpu time spent up to now is      133.5 secs

     End of self-consistent calculation

          k = 0.0000 0.0000 0.0000 ( 14795 PWs)   bands (ev):

   -56.5085 -56.5085 -56.4738 -56.4738 -56.4738 -56.4738 -56.4738 -56.4738
   -28.5747 -28.5747 -28.5673 -28.5673 -28.5673 -28.5673 -28.4780 -28.4780
   -27.6088 -27.6088 -27.6088 -27.6088 -27.5323 -27.5323 -27.5323 -27.5323
   -27.5286 -27.5286 -27.4463 -27.4463 -27.4455 -27.4455 -27.4455 -27.4455
     2.6976   2.6976   7.4561   7.4561   7.4561   7.4561   7.4653   7.4653
    10.5373  10.5373  10.5452  10.5452  10.5452  10.5452  11.9118  11.9118
    11.9118  11.9118  11.9229  11.9229  12.6045  12.6045  12.7736  12.7736
    12.7736  12.7736  13.1475  13.1475  13.1475  13.1475  13.1486  13.1486
    13.6747  13.6747  13.6747  13.6747  13.6784  13.6784  15.5559  15.5559
    15.5872  15.5872  15.5872  15.5872  15.7720  15.7720  15.7720  15.7720
    16.6693  16.6693  16.6996  16.6996  16.6996  16.6996

     occupation numbers 
     1.0000   1.0000   1.0000   1.0000   1.0000   1.0000   1.0000   1.0000
     1.0000   1.0000   1.0000   1.0000   1.0000   1.0000   1.0000   1.0000
     1.0000   1.0000   1.0000   1.0000   1.0000   1.0000   1.0000   1.0000
     1.0000   1.0000   1.0000   1.0000   1.0000   1.0000   1.0000   1.0000
     1.0000   1.0000   1.0000   1.0000   1.0000   1.0000   1.0000   1.0000
     1.0000   1.0000   1.0000   1.0000   1.0000   1.0000   1.0000   1.0000
     1.0000   1.0000   1.0000   1.0000   1.0000   1.0000   1.0000   1.0000
     1.0000   1.0000   1.0000   1.0000   1.0000   1.0000   1.0000   1.0000
     1.0000   1.0000   1.0000   1.0000   1.0000   1.0000  -0.0038  -0.0038
    -0.0024  -0.0024  -0.0024  -0.0024  -0.0001  -0.0001  -0.0001  -0.0001
    -0.0000  -0.0000  -0.0000  -0.0000  -0.0000  -0.0000

          k = 0.0000 0.0000 0.1667 ( 14867 PWs)   bands (ev):

   -56.5067 -56.5067 -56.4794 -56.4794 -56.4732 -56.4732 -56.4705 -56.4705
   -28.5824 -28.5756 -28.5716 -28.5709 -28.5568 -28.5536 -28.4830 -28.4830
   -27.6255 -27.6174 -27.5957 -27.5880 -27.5451 -27.5391 -27.5359 -27.5259
   -27.5232 -27.5116 -27.4564 -27.4542 -27.4513 -27.4443 -27.4433 -27.4382
     2.8897   2.8897   6.5390   6.5416   7.5623   7.5642   8.1191   8.1285
     9.9484   9.9525  10.6629  10.6655  11.0718  11.0747  11.2877  11.2885
    11.5006  11.5054  12.4508  12.4611  12.7404  12.7627  12.8043  12.8109
    13.0133  13.0166  13.1116  13.1141  13.2010  13.2030  13.2318  13.2321
    13.5344  13.5444  13.6347  13.6373  13.9663  13.9667  15.2978  15.3187
    15.4217  15.4292  15.6987  15.7082  15.7539  15.7723  15.7961  15.8217
    16.4111  16.4266  16.5992  16.6067  16.9938  17.0144

     occupation numbers 
     1.0000   1.0000   1.0000   1.0000   1.0000   1.0000   1.0000   1.0000
     1.0000   1.0000   1.0000   1.0000   1.0000   1.0000   1.0000   1.0000
     1.0000   1.0000   1.0000   1.0000   1.0000   1.0000   1.0000   1.0000
     1.0000   1.0000   1.0000   1.0000   1.0000   1.0000   1.0000   1.0000
     1.0000   1.0000   1.0000   1.0000   1.0000   1.0000   1.0000   1.0000
     1.0000   1.0000   1.0000   1.0000   1.0000   1.0000   1.0000   1.0000
     1.0000   1.0000   1.0000   1.0000   1.0000   1.0000   1.0000   1.0000
     1.0000   1.0000   1.0000   1.0000   1.0000   1.0000   1.0000   1.0000
     1.0000   1.0000   1.0000   1.0000   1.0000   1.0000  -0.0353  -0.0338
    -0.0178  -0.0166  -0.0004  -0.0003  -0.0001  -0.0001  -0.0001  -0.0000
    -0.0000  -0.0000  -0.0000  -0.0000  -0.0000  -0.0000

          k = 0.0000 0.0000 0.3333 ( 14874 PWs)   bands (ev):

   -56.5018 -56.5018 -56.4867 -56.4867 -56.4718 -56.4718 -56.4695 -56.4695
   -28.5850 -28.5784 -28.5772 -28.5735 -28.5379 -28.5354 -28.4970 -28.4965
   -27.6332 -27.6253 -27.5775 -27.5730 -27.5577 -27.5376 -27.5325 -27.5240
   -27.5218 -27.4923 -27.4735 -27.4608 -27.4579 -27.4469 -27.4425 -27.4364
     3.4501   3.4501   5.4191   5.4199   7.8596   7.8636   8.5096   8.5192
     9.6514   9.6530  10.6591  10.6614  10.7710  10.7834  11.0445  11.0475
    11.8641  11.8661  12.1357  12.1514  12.8398  12.8560  12.9348  12.9442
    13.1180  13.1239  13.1738  13.1789  13.2616  13.2644  13.3965  13.3989
    13.4544  13.4564  13.9189  13.9227  14.1202  14.1270  14.8931  14.9273
    15.3629  15.3714  15.5415  15.5598  15.7496  15.7779  15.8586  15.8827
    16.1989  16.2148  16.3746  16.3882  17.3088  17.3248

     occupation numbers 
     1.0000   1.0000   1.0000   1.0000   1.0000   1.0000   1.0000   1.0000
     1.0000   1.0000   1.0000   1.0000   1.0000   1.0000   1.0000   1.0000
     1.0000   1.0000   1.0000   1.0000   1.0000   1.0000   1.0000   1.0000
     1.0000   1.0000   1.0000   1.0000   1.0000   1.0000   1.0000   1.0000
     1.0000   1.0000   1.0000   1.0000   1.0000   1.0000   1.0000   1.0000
     1.0000   1.0000   1.0000   1.0000   1.0000   1.0000   1.0000   1.0000
     1.0000   1.0000   1.0000   1.0000   1.0000   1.0000   1.0000   1.0000
     1.0000   1.0000   1.0000   1.0000   1.0000   1.0000   1.0000   1.0000
     1.0000   1.0000   1.0000   1.0000   1.0001   1.0001   0.6855   0.5841
    -0.0276  -0.0262  -0.0047  -0.0036  -0.0001  -0.0001  -0.0000  -0.0000
    -0.0000  -0.0000  -0.0000  -0.0000  -0.0000  -0.0000

          k = 0.0000 0.0000-0.5000 ( 14862 PWs)   bands (ev):

   -56.4946 -56.4946 -56.4946 -56.4946 -56.4702 -56.4702 -56.4702 -56.4702
   -28.5826 -28.5826 -28.5770 -28.5770 -28.5167 -28.5167 -28.5153 -28.5153
   -27.6321 -27.6321 -27.5675 -27.5675 -27.5522 -27.5522 -27.5290 -27.5290
   -27.4987 -27.4987 -27.4747 -27.4747 -27.4527 -27.4527 -27.4393 -27.4393
     4.3276   4.3276   4.3278   4.3278   8.2823   8.2823   8.2887   8.2887
    10.0166  10.0166  10.0206  10.0206  10.8978  10.8978  10.9090  10.9090
    12.2488  12.2488  12.2554  12.2554  12.6869  12.6869  12.6993  12.6993
    13.1450  13.1450  13.1454  13.1454  13.2409  13.2409  13.2445  13.2445
    13.7853  13.7853  13.7885  13.7885  14.5686  14.5686  14.5971  14.5971
    15.4068  15.4068  15.4246  15.4246  15.8109  15.8110  15.8406  15.8406
    16.1701  16.1702  16.1838  16.1839  17.5461  17.5491

     occupation numbers 
     1.0000   1.0000   1.0000   1.0000   1.0000   1.0000   1.0000   1.0000
     1.0000   1.0000   1.0000   1.0000   1.0000   1.0000   1.0000   1.0000
     1.0000   1.0000   1.0000   1.0000   1.0000   1.0000   1.0000   1.0000
     1.0000   1.0000   1.0000   1.0000   1.0000   1.0000   1.0000   1.0000
     1.0000   1.0000   1.0000   1.0000   1.0000   1.0000   1.0000   1.0000
     1.0000   1.0000   1.0000   1.0000   1.0000   1.0000   1.0000   1.0000
     1.0000   1.0000   1.0000   1.0000   1.0000   1.0000   1.0000   1.0000
     1.0000   1.0000   1.0000   1.0000   1.0000   1.0000   1.0000   1.0000
     1.0000   1.0000   1.0000   1.0000   1.0311   1.0311   1.0344   1.0344
    -0.0202  -0.0202  -0.0174  -0.0174  -0.0000  -0.0000  -0.0000  -0.0000
    -0.0000  -0.0000  -0.0000  -0.0000  -0.0000  -0.0000

          k = 0.0000 0.1667 0.1667 ( 14881 PWs)   bands (ev):

   -56.5050 -56.5050 -56.4813 -56.4813 -56.4738 -56.4738 -56.4697 -56.4697
   -28.5842 -28.5785 -28.5693 -28.5691 -28.5530 -28.5493 -28.4878 -28.4877
   -27.6263 -27.6221 -27.5865 -27.5826 -27.5463 -27.5430 -27.5391 -27.5315
   -27.5151 -27.5024 -27.4651 -27.4615 -27.4542 -27.4453 -27.4387 -27.4345
     3.0793   3.0794   6.3963   6.4007   7.2069   7.2113   8.4065   8.4119
     9.8327   9.8360  10.5097  10.5122  10.7876  10.7888  11.3579  11.3608
    11.7803  11.7807  12.4131  12.4188  12.5892  12.5969  12.9965  12.9978
    13.0931  13.1013  13.1755  13.1762  13.2469  13.2536  13.3392  13.3442
    13.4697  13.4775  13.7352  13.7493  14.0777  14.0851  15.2558  15.2775
    15.3054  15.3248  15.5407  15.5527  15.7010  15.7220  15.8184  15.8428
    16.2814  16.2983  16.6108  16.6205  17.0364  17.0712

     occupation numbers 
     1.0000   1.0000   1.0000   1.0000   1.0000   1.0000   1.0000   1.0000
     1.0000   1.0000   1.0000   1.0000   1.0000   1.0000   1.0000   1.0000
     1.0000   1.0000   1.0000   1.0000   1.0000   1.0000   1.0000   1.0000
     1.0000   1.0000   1.0000   1.0000   1.0000   1.0000   1.0000   1.0000
     1.0000   1.0000   1.0000   1.0000   1.0000   1.0000   1.0000   1.0000
     1.0000   1.0000   1.0000   1.0000   1.0000   1.0000   1.0000   1.0000
     1.0000   1.0000   1.0000   1.0000   1.0000   1.0000   1.0000   1.0000
     1.0000   1.0000   1.0000   1.0000   1.0000   1.0000   1.0000   1.0000
     1.0000   1.0000   1.0000   1.0000   1.0000   1.0000  -0.0330  -0.0352
    -0.0349  -0.0331  -0.0047  -0.0040  -0.0004  -0.0002  -0.0000  -0.0000
    -0.0000  -0.0000  -0.0000  -0.0000  -0.0000  -0.0000

          k = 0.0000 0.1667 0.3333 ( 14865 PWs)   bands (ev):

   -56.5004 -56.5004 -56.4868 -56.4868 -56.4728 -56.4728 -56.4697 -56.4697
   -28.5841 -28.5790 -28.5730 -28.5709 -28.5385 -28.5360 -28.5009 -28.5006
   -27.6295 -27.6241 -27.5756 -27.5701 -27.5563 -27.5428 -27.5362 -27.5286
   -27.5164 -27.4885 -27.4825 -27.4668 -27.4600 -27.4484 -27.4351 -27.4313
     3.6318   3.6320   5.5367   5.5384   7.3622   7.3649   8.4323   8.4356
     9.7328   9.7360  10.1893  10.1936  10.9880  10.9910  11.3853  11.3949
    11.7533  11.7576  12.1902  12.1990  12.5958  12.6035  12.8782  12.8870
    13.1151  13.1245  13.2549  13.2607  13.3820  13.3833  13.5289  13.5389
    13.5914  13.6045  13.9915  14.0022  14.2461  14.2586  14.9129  14.9439
    15.2292  15.2479  15.3501  15.3601  15.6592  15.6842  15.8103  15.8405
    16.1559  16.1654  16.4433  16.4563  17.2396  17.2726

     occupation numbers 
     1.0000   1.0000   1.0000   1.0000   1.0000   1.0000   1.0000   1.0000
     1.0000   1.0000   1.0000   1.0000   1.0000   1.0000   1.0000   1.0000
     1.0000   1.0000   1.0000   1.0000   1.0000   1.0000   1.0000   1.0000
     1.0000   1.0000   1.0000   1.0000   1.0000   1.0000   1.0000   1.0000
     1.0000   1.0000   1.0000   1.0000   1.0000   1.0000   1.0000   1.0000
     1.0000   1.0000   1.0000   1.0000   1.0000   1.0000   1.0000   1.0000
     1.0000   1.0000   1.0000   1.0000   1.0000   1.0000   1.0000   1.0000
     1.0000   1.0000   1.0000   1.0000   1.0000   1.0000   1.0000   1.0000
     1.0000   1.0000   1.0000   1.0000   1.0007   1.0009   0.6277   0.5329
    -0.0261  -0.0315  -0.0297  -0.0281  -0.0008  -0.0005  -0.0000  -0.0000
    -0.0000  -0.0000  -0.0000  -0.0000  -0.0000  -0.0000

          k = 0.0000 0.1667-0.5000 ( 14838 PWs)   bands (ev):

   -56.4938 -56.4938 -56.4938 -56.4938 -56.4710 -56.4710 -56.4710 -56.4710
   -28.5803 -28.5803 -28.5748 -28.5748 -28.5200 -28.5200 -28.5174 -28.5174
   -27.6278 -27.6278 -27.5675 -27.5675 -27.5529 -27.5529 -27.5285 -27.5285
   -27.5066 -27.5066 -27.4748 -27.4748 -27.4554 -27.4554 -27.4322 -27.4322
     4.4923   4.4923   4.4930   4.4930   7.8945   7.8945   7.9014   7.9014
    10.0149  10.0149  10.0189  10.0189  11.1032  11.1032  11.1173  11.1173
    12.0916  12.0916  12.0962  12.0962  12.5415  12.5415  12.5572  12.5572
    13.2788  13.2788  13.2797  13.2797  13.3940  13.3940  13.3952  13.3952
    13.8691  13.8691  13.8731  13.8731  14.6237  14.6237  14.6551  14.6551
    15.2424  15.2424  15.2572  15.2572  15.7190  15.7190  15.7487  15.7487
    16.2438  16.2438  16.2544  16.2544  17.4908  17.4944

     occupation numbers 
     1.0000   1.0000   1.0000   1.0000   1.0000   1.0000   1.0000   1.0000
     1.0000   1.0000   1.0000   1.0000   1.0000   1.0000   1.0000   1.0000
     1.0000   1.0000   1.0000   1.0000   1.0000   1.0000   1.0000   1.0000
     1.0000   1.0000   1.0000   1.0000   1.0000   1.0000   1.0000   1.0000
     1.0000   1.0000   1.0000   1.0000   1.0000   1.0000   1.0000   1.0000
     1.0000   1.0000   1.0000   1.0000   1.0000   1.0000   1.0000   1.0000
     1.0000   1.0000   1.0000   1.0000   1.0000   1.0000   1.0000   1.0000
     1.0000   1.0000   1.0000   1.0000   1.0000   1.0000   1.0000   1.0000
     1.0000   1.0000   1.0000   1.0000   1.0354   1.0354   1.0326   1.0326
    -0.0302  -0.0302  -0.0332  -0.0332  -0.0003  -0.0003  -0.0001  -0.0001
    -0.0000  -0.0000  -0.0000  -0.0000  -0.0000  -0.0000

          k = 0.0000 0.3333 0.3333 ( 14896 PWs)   bands (ev):

   -56.4968 -56.4968 -56.4882 -56.4882 -56.4738 -56.4738 -56.4709 -56.4709
   -28.5802 -28.5763 -28.5693 -28.5683 -28.5362 -28.5340 -28.5117 -28.5110
   -27.6210 -27.6198 -27.5766 -27.5709 -27.5522 -27.5445 -27.5333 -27.5315
   -27.5152 -27.4964 -27.4941 -27.4826 -27.4539 -27.4400 -27.4308 -27.4275
     4.1573   4.1577   5.6388   5.6409   6.6777   6.6805   7.8192   7.8230
    10.0316  10.0343  10.3053  10.3083  10.9415  10.9433  11.2587  11.2609
    11.8954  11.9021  12.1592  12.1637  12.3109  12.3205  12.6298  12.6377
    13.1822  13.1905  13.3934  13.3984  13.5631  13.5659  13.7227  13.7281
    13.8862  13.8979  14.0970  14.1097  14.4908  14.5164  14.8516  14.8633
    14.9447  14.9650  15.0617  15.0784  15.5271  15.5502  15.6070  15.6369
    16.2367  16.2455  16.4936  16.5005  17.1507  17.1814

     occupation numbers 
     1.0000   1.0000   1.0000   1.0000   1.0000   1.0000   1.0000   1.0000
     1.0000   1.0000   1.0000   1.0000   1.0000   1.0000   1.0000   1.0000
     1.0000   1.0000   1.0000   1.0000   1.0000   1.0000   1.0000   1.0000
     1.0000   1.0000   1.0000   1.0000   1.0000   1.0000   1.0000   1.0000
     1.0000   1.0000   1.0000   1.0000   1.0000   1.0000   1.0000   1.0000
     1.0000   1.0000   1.0000   1.0000   1.0000   1.0000   1.0000   1.0000
     1.0000   1.0000   1.0000   1.0000   1.0000   1.0000   1.0000   1.0000
     1.0000   1.0000   1.0000   1.0000   1.0000   1.0000   1.0000   1.0000
     1.0000   1.0000   1.0000   1.0001   1.0184   1.0226   0.7959   0.7667
     0.5303   0.4672   0.1934   0.1554  -0.0056  -0.0041  -0.0018  -0.0011
    -0.0000  -0.0000  -0.0000  -0.0000  -0.0000  -0.0000

          k = 0.0000 0.3333-0.5000 ( 14832 PWs)   bands (ev):

   -56.4920 -56.4920 -56.4920 -56.4920 -56.4728 -56.4728 -56.4728 -56.4728
   -28.5744 -28.5744 -28.5702 -28.5702 -28.5263 -28.5263 -28.5235 -28.5235
   -27.6157 -27.6157 -27.5788 -27.5788 -27.5445 -27.5445 -27.5265 -27.5265
   -27.5149 -27.5149 -27.4936 -27.4936 -27.4426 -27.4426 -27.4280 -27.4280
     4.9484   4.9484   4.9498   4.9498   7.0278   7.0278   7.0327   7.0327
    10.3309  10.3309  10.3329  10.3329  11.2383  11.2383  11.2467  11.2467
    11.7618  11.7618  11.7673  11.7673  12.3352  12.3353  12.3426  12.3426
    13.3695  13.3695  13.3766  13.3766  13.6777  13.6777  13.6864  13.6864
    14.1734  14.1734  14.1789  14.1789  14.6143  14.6143  14.6334  14.6334
    14.9471  14.9471  14.9620  14.9620  15.5026  15.5026  15.5268  15.5268
    16.4444  16.4444  16.4551  16.4551  17.1991  17.2024

     occupation numbers 
     1.0000   1.0000   1.0000   1.0000   1.0000   1.0000   1.0000   1.0000
     1.0000   1.0000   1.0000   1.0000   1.0000   1.0000   1.0000   1.0000
     1.0000   1.0000   1.0000   1.0000   1.0000   1.0000   1.0000   1.0000
     1.0000   1.0000   1.0000   1.0000   1.0000   1.0000   1.0000   1.0000
     1.0000   1.0000   1.0000   1.0000   1.0000   1.0000   1.0000   1.0000
     1.0000   1.0000   1.0000   1.0000   1.0000   1.0000   1.0000   1.0000
     1.0000   1.0000   1.0000   1.0000   1.0000   1.0000   1.0000   1.0000
     1.0000   1.0000   1.0000   1.0000   1.0000   1.0000   1.0000   1.0000
     1.0002   1.0002   1.0002   1.0002   1.0354   1.0354   1.0351   1.0351
     0.5228   0.5228   0.4765   0.4765  -0.0076  -0.0076  -0.0056  -0.0056
    -0.0000  -0.0000  -0.0000  -0.0000  -0.0000  -0.0000

          k = 0.0000-0.5000-0.5000 ( 14932 PWs)   bands (ev):

   -56.4910 -56.4910 -56.4910 -56.4910 -56.4738 -56.4738 -56.4738 -56.4738
   -28.5692 -28.5692 -28.5692 -28.5692 -28.5286 -28.5286 -28.5286 -28.5286
   -27.5980 -27.5980 -27.5980 -27.5980 -27.5309 -27.5309 -27.5309 -27.5309
   -27.5115 -27.5115 -27.5115 -27.5115 -27.4317 -27.4317 -27.4317 -27.4317
     5.3702   5.3702   5.3702   5.3702   6.4271   6.4271   6.4271   6.4271
    10.7062  10.7062  10.7062  10.7062  11.2440  11.2440  11.2440  11.2440
    11.3855  11.3855  11.3855  11.3855  12.2856  12.2856  12.2856  12.2856
    13.3645  13.3645  13.3645  13.3645  14.0101  14.0101  14.0101  14.0101
    14.2979  14.2979  14.2979  14.2979  14.5284  14.5284  14.5284  14.5284
    14.7608  14.7608  14.7608  14.7608  15.4221  15.4221  15.4221  15.4221
    16.5911  16.5911  16.5911  16.5911  16.9884  16.9885

     occupation numbers 
     1.0000   1.0000   1.0000   1.0000   1.0000   1.0000   1.0000   1.0000
     1.0000   1.0000   1.0000   1.0000   1.0000   1.0000   1.0000   1.0000
     1.0000   1.0000   1.0000   1.0000   1.0000   1.0000   1.0000   1.0000
     1.0000   1.0000   1.0000   1.0000   1.0000   1.0000   1.0000   1.0000
     1.0000   1.0000   1.0000   1.0000   1.0000   1.0000   1.0000   1.0000
     1.0000   1.0000   1.0000   1.0000   1.0000   1.0000   1.0000   1.0000
     1.0000   1.0000   1.0000   1.0000   1.0000   1.0000   1.0000   1.0000
     1.0000   1.0000   1.0000   1.0000   1.0000   1.0000   1.0000   1.0000
     1.0017   1.0017   1.0017   1.0017   1.0247   1.0247   1.0247   1.0247
     0.9639   0.9639   0.9639   0.9639  -0.0177  -0.0177  -0.0177  -0.0177
    -0.0000  -0.0000  -0.0000  -0.0000  -0.0000  -0.0000

          k = 0.1667 0.1667 0.1667 ( 14834 PWs)   bands (ev):

   -56.5035 -56.5035 -56.4824 -56.4824 -56.4744 -56.4744 -56.4695 -56.4695
   -28.5846 -28.5792 -28.5673 -28.5673 -28.5509 -28.5470 -28.4924 -28.4921
   -27.6257 -27.6232 -27.5841 -27.5751 -27.5467 -27.5424 -27.5420 -27.5387
   -27.5093 -27.4971 -27.4746 -27.4618 -27.4548 -27.4508 -27.4336 -27.4331
     3.2664   3.2665   6.3440   6.3507   7.0375   7.0462   8.3229   8.3252
     9.7321   9.7348  10.5179  10.5187  10.5472  10.5485  11.3861  11.3916
    11.9884  11.9890  12.3210  12.3291  12.8300  12.8353  12.8359  12.8422
    13.1048  13.1102  13.1367  13.1368  13.2127  13.2187  13.5242  13.5293
    13.6031  13.6125  13.7858  13.7913  14.1547  14.1633  15.2083  15.2229
    15.2762  15.2910  15.4749  15.4760  15.5276  15.5432  15.7964  15.8111
    16.2277  16.2446  16.6063  16.6178  17.0504  17.0906

     occupation numbers 
     1.0000   1.0000   1.0000   1.0000   1.0000   1.0000   1.0000   1.0000
     1.0000   1.0000   1.0000   1.0000   1.0000   1.0000   1.0000   1.0000
     1.0000   1.0000   1.0000   1.0000   1.0000   1.0000   1.0000   1.0000
     1.0000   1.0000   1.0000   1.0000   1.0000   1.0000   1.0000   1.0000
     1.0000   1.0000   1.0000   1.0000   1.0000   1.0000   1.0000   1.0000
     1.0000   1.0000   1.0000   1.0000   1.0000   1.0000   1.0000   1.0000
     1.0000   1.0000   1.0000   1.0000   1.0000   1.0000   1.0000   1.0000
     1.0000   1.0000   1.0000   1.0000   1.0000   1.0000   1.0000   1.0000
     1.0000   1.0000   1.0000   1.0000   1.0001   1.0002  -0.0167  -0.0237
    -0.0352  -0.0354  -0.0105  -0.0104  -0.0056  -0.0046  -0.0001  -0.0000
    -0.0000  -0.0000  -0.0000  -0.0000  -0.0000  -0.0000

          k = 0.1667 0.1667 0.3333 ( 14860 PWs)   bands (ev):

   -56.4991 -56.4991 -56.4867 -56.4867 -56.4738 -56.4738 -56.4701 -56.4701
   -28.5827 -28.5782 -28.5700 -28.5685 -28.5395 -28.5369 -28.5050 -28.5042
   -27.6263 -27.6220 -27.5752 -27.5669 -27.5549 -27.5457 -27.5386 -27.5342
   -27.5110 -27.4983 -27.4759 -27.4658 -27.4635 -27.4519 -27.4313 -27.4297
     3.8107   3.8109   5.6512   5.6534   7.1819   7.1859   8.2385   8.2420
     9.3518   9.3543  10.2216  10.2240  10.9247  10.9284  11.4683  11.4716
    11.8296  11.8338  12.2187  12.2208  12.7521  12.7610  12.9463  12.9525
    13.0801  13.0888  13.1980  13.2065  13.2949  13.2984  13.5463  13.5531
    13.7644  13.7696  14.0149  14.0239  14.3544  14.3717  14.9094  14.9369
    15.1936  15.2088  15.2861  15.2961  15.5063  15.5209  15.7166  15.7374
    16.1695  16.1789  16.4562  16.4701  17.2205  17.2520

     occupation numbers 
     1.0000   1.0000   1.0000   1.0000   1.0000   1.0000   1.0000   1.0000
     1.0000   1.0000   1.0000   1.0000   1.0000   1.0000   1.0000   1.0000
     1.0000   1.0000   1.0000   1.0000   1.0000   1.0000   1.0000   1.0000
     1.0000   1.0000   1.0000   1.0000   1.0000   1.0000   1.0000   1.0000
     1.0000   1.0000   1.0000   1.0000   1.0000   1.0000   1.0000   1.0000
     1.0000   1.0000   1.0000   1.0000   1.0000   1.0000   1.0000   1.0000
     1.0000   1.0000   1.0000   1.0000   1.0000   1.0000   1.0000   1.0000
     1.0000   1.0000   1.0000   1.0000   1.0000   1.0000   1.0000   1.0000
     1.0000   1.0000   1.0000   1.0000   1.0039   1.0049   0.6380   0.5546
    -0.0075  -0.0169  -0.0355  -0.0353  -0.0073  -0.0061  -0.0003  -0.0002
    -0.0000  -0.0000  -0.0000  -0.0000  -0.0000  -0.0000

          k = 0.1667 0.1667-0.5000 ( 14866 PWs)   bands (ev):

   -56.4930 -56.4930 -56.4930 -56.4930 -56.4719 -56.4719 -56.4719 -56.4719
   -28.5780 -28.5780 -28.5727 -28.5727 -28.5231 -28.5231 -28.5198 -28.5198
   -27.6239 -27.6239 -27.5657 -27.5657 -27.5566 -27.5566 -27.5273 -27.5273
   -27.5127 -27.5127 -27.4710 -27.4710 -27.4583 -27.4583 -27.4296 -27.4296
     4.6535   4.6535   4.6543   4.6543   7.7176   7.7176   7.7239   7.7239
     9.6724   9.6724   9.6737   9.6737  11.3993  11.3993  11.4075  11.4075
    11.8740  11.8740  11.8776  11.8776  12.7989  12.7989  12.8109  12.8109
    13.1832  13.1832  13.1937  13.1937  13.4198  13.4198  13.4239  13.4239
    13.9247  13.9247  13.9326  13.9326  14.6752  14.6752  14.7091  14.7091
    15.1661  15.1661  15.1861  15.1861  15.6071  15.6071  15.6298  15.6298
    16.2631  16.2631  16.2728  16.2728  17.5735  17.5783

     occupation numbers 
     1.0000   1.0000   1.0000   1.0000   1.0000   1.0000   1.0000   1.0000
     1.0000   1.0000   1.0000   1.0000   1.0000   1.0000   1.0000   1.0000
     1.0000   1.0000   1.0000   1.0000   1.0000   1.0000   1.0000   1.0000
     1.0000   1.0000   1.0000   1.0000   1.0000   1.0000   1.0000   1.0000
     1.0000   1.0000   1.0000   1.0000   1.0000   1.0000   1.0000   1.0000
     1.0000   1.0000   1.0000   1.0000   1.0000   1.0000   1.0000   1.0000
     1.0000   1.0000   1.0000   1.0000   1.0000   1.0000   1.0000   1.0000
     1.0000   1.0000   1.0000   1.0000   1.0000   1.0000   1.0000   1.0000
     1.0000   1.0000   1.0000   1.0000   1.0276   1.0276   1.0117   1.0117
     0.0159   0.0159  -0.0020  -0.0020  -0.0018  -0.0018  -0.0013  -0.0013
    -0.0000  -0.0000  -0.0000  -0.0000  -0.0000  -0.0000

          k = 0.1667 0.3333 0.3333 ( 14877 PWs)   bands (ev):

   -56.4956 -56.4956 -56.4876 -56.4876 -56.4749 -56.4749 -56.4717 -56.4717
   -28.5783 -28.5745 -28.5667 -28.5658 -28.5382 -28.5360 -28.5153 -28.5143
   -27.6187 -27.6159 -27.5758 -27.5684 -27.5568 -27.5482 -27.5376 -27.5303
   -27.5148 -27.5052 -27.4822 -27.4738 -27.4578 -27.4462 -27.4305 -27.4272
     4.3273   4.3276   5.7570   5.7604   6.7206   6.7261   7.7761   7.7797
     9.2002   9.2035  10.0628  10.0664  10.9686  10.9708  11.5789  11.5832
    11.7453  11.7475  12.2601  12.2637  12.4944  12.5007  12.8127  12.8192
    13.1533  13.1575  13.2541  13.2663  13.4018  13.4092  13.6941  13.7093
    13.9193  13.9355  14.2307  14.2415  14.5666  14.5948  14.8663  14.8805
    14.9507  14.9618  15.1263  15.1531  15.4095  15.4123  15.5559  15.5713
    16.2318  16.2393  16.4605  16.4685  17.0998  17.1247

     occupation numbers 
     1.0000   1.0000   1.0000   1.0000   1.0000   1.0000   1.0000   1.0000
     1.0000   1.0000   1.0000   1.0000   1.0000   1.0000   1.0000   1.0000
     1.0000   1.0000   1.0000   1.0000   1.0000   1.0000   1.0000   1.0000
     1.0000   1.0000   1.0000   1.0000   1.0000   1.0000   1.0000   1.0000
     1.0000   1.0000   1.0000   1.0000   1.0000   1.0000   1.0000   1.0000
     1.0000   1.0000   1.0000   1.0000   1.0000   1.0000   1.0000   1.0000
     1.0000   1.0000   1.0000   1.0000   1.0000   1.0000   1.0000   1.0000
     1.0000   1.0000   1.0000   1.0000   1.0000   1.0000   1.0000   1.0000
     1.0000   1.0000   1.0006   1.0007   1.0308   1.0342   0.7588   0.7210
     0.5118   0.4773   0.0663   0.0301  -0.0198  -0.0193  -0.0038  -0.0031
    -0.0000  -0.0000  -0.0000  -0.0000  -0.0000  -0.0000

          k = 0.1667 0.3333-0.5000 ( 14856 PWs)   bands (ev):

   -56.4910 -56.4910 -56.4910 -56.4910 -56.4738 -56.4738 -56.4738 -56.4738
   -28.5721 -28.5721 -28.5680 -28.5680 -28.5293 -28.5293 -28.5262 -28.5262
   -27.6125 -27.6125 -27.5766 -27.5766 -27.5523 -27.5523 -27.5288 -27.5288
   -27.5144 -27.5144 -27.4834 -27.4834 -27.4472 -27.4472 -27.4289 -27.4289
     5.0991   5.0991   5.1005   5.1005   7.0724   7.0724   7.0778   7.0778
     9.6225   9.6225   9.6262   9.6262  11.2874  11.2874  11.2892  11.2892
    11.9350  11.9350  11.9439  11.9439  12.5648  12.5648  12.5741  12.5741
    13.2670  13.2670  13.2731  13.2731  13.5508  13.5508  13.5657  13.5657
    14.2368  14.2368  14.2457  14.2457  14.7119  14.7119  14.7332  14.7332
    14.9649  14.9649  14.9828  14.9828  15.4465  15.4465  15.4634  15.4634
    16.3873  16.3874  16.3947  16.3948  17.1616  17.1671

     occupation numbers 
     1.0000   1.0000   1.0000   1.0000   1.0000   1.0000   1.0000   1.0000
     1.0000   1.0000   1.0000   1.0000   1.0000   1.0000   1.0000   1.0000
     1.0000   1.0000   1.0000   1.0000   1.0000   1.0000   1.0000   1.0000
     1.0000   1.0000   1.0000   1.0000   1.0000   1.0000   1.0000   1.0000
     1.0000   1.0000   1.0000   1.0000   1.0000   1.0000   1.0000   1.0000
     1.0000   1.0000   1.0000   1.0000   1.0000   1.0000   1.0000   1.0000
     1.0000   1.0000   1.0000   1.0000   1.0000   1.0000   1.0000   1.0000
     1.0000   1.0000   1.0000   1.0000   1.0000   1.0000   1.0000   1.0000
     1.0006   1.0006   1.0007   1.0007   1.0099   1.0099   0.9934   0.9934
     0.4675   0.4675   0.4124   0.4124  -0.0141  -0.0141  -0.0119  -0.0119
    -0.0000  -0.0000  -0.0000  -0.0000  -0.0000  -0.0000

          k = 0.1667-0.5000-0.5000 ( 14896 PWs)   bands (ev):

   -56.4899 -56.4899 -56.4899 -56.4899 -56.4750 -56.4750 -56.4750 -56.4750
   -28.5668 -28.5668 -28.5667 -28.5667 -28.5317 -28.5317 -28.5314 -28.5314
   -27.5987 -27.5987 -27.5919 -27.5919 -27.5467 -27.5467 -27.5330 -27.5330
   -27.5087 -27.5087 -27.4943 -27.4943 -27.4381 -27.4381 -27.4323 -27.4323
     5.5067   5.5067   5.5081   5.5081   6.5298   6.5298   6.5325   6.5325
     9.8341   9.8341   9.8383   9.8383  10.8962  10.8962  10.8984  10.8984
    12.1901  12.1901  12.1927  12.1927  12.3756  12.3756  12.3787  12.3787
    13.2235  13.2235  13.2242  13.2242  13.7580  13.7580  13.7719  13.7719
    14.3939  14.3939  14.4009  14.4009  14.6983  14.6983  14.7157  14.7157
    14.8396  14.8396  14.8415  14.8415  15.3687  15.3688  15.3689  15.3689
    16.4879  16.4879  16.4895  16.4895  16.9543  16.9570

     occupation numbers 
     1.0000   1.0000   1.0000   1.0000   1.0000   1.0000   1.0000   1.0000
     1.0000   1.0000   1.0000   1.0000   1.0000   1.0000   1.0000   1.0000
     1.0000   1.0000   1.0000   1.0000   1.0000   1.0000   1.0000   1.0000
     1.0000   1.0000   1.0000   1.0000   1.0000   1.0000   1.0000   1.0000
     1.0000   1.0000   1.0000   1.0000   1.0000   1.0000   1.0000   1.0000
     1.0000   1.0000   1.0000   1.0000   1.0000   1.0000   1.0000   1.0000
     1.0000   1.0000   1.0000   1.0000   1.0000   1.0000   1.0000   1.0000
     1.0000   1.0000   1.0000   1.0000   1.0000   1.0000   1.0000   1.0000
     1.0066   1.0066   1.0071   1.0071   1.0180   1.0179   1.0073   1.0073
     0.8243   0.8243   0.8201   0.8201  -0.0266  -0.0266  -0.0266  -0.0266
    -0.0000  -0.0000  -0.0000  -0.0000  -0.0000  -0.0000

          k = 0.3333 0.3333 0.3333 ( 14835 PWs)   bands (ev):

   -56.4924 -56.4924 -56.4867 -56.4867 -56.4768 -56.4768 -56.4738 -56.4738
   -28.5727 -28.5696 -28.5618 -28.5616 -28.5409 -28.5391 -28.5245 -28.5231
   -27.6111 -27.6074 -27.5744 -27.5644 -27.5642 -27.5627 -27.5417 -27.5285
   -27.5178 -27.4975 -27.4779 -27.4596 -27.4592 -27.4584 -27.4328 -27.4294
     4.8134   4.8138   5.9655   5.9720   6.6618   6.6722   7.5010   7.5037
     8.7479   8.7529   9.4977   9.5041  10.5489  10.5534  11.1930  11.1949
    12.0062  12.0080  12.4976  12.5007  12.7690  12.7731  12.8492  12.8509
    13.1391  13.1508  13.1960  13.2028  13.2663  13.2685  13.5453  13.5484
    14.1409  14.1455  14.4925  14.5008  14.7930  14.8298  14.8518  14.8635
    14.9966  15.0076  15.1378  15.1437  15.2643  15.2913  15.4146  15.4338
    16.2560  16.2629  16.3898  16.3925  16.9562  16.9645

     occupation numbers 
     1.0000   1.0000   1.0000   1.0000   1.0000   1.0000   1.0000   1.0000
     1.0000   1.0000   1.0000   1.0000   1.0000   1.0000   1.0000   1.0000
     1.0000   1.0000   1.0000   1.0000   1.0000   1.0000   1.0000   1.0000
     1.0000   1.0000   1.0000   1.0000   1.0000   1.0000   1.0000   1.0000
     1.0000   1.0000   1.0000   1.0000   1.0000   1.0000   1.0000   1.0000
     1.0000   1.0000   1.0000   1.0000   1.0000   1.0000   1.0000   1.0000
     1.0000   1.0000   1.0000   1.0000   1.0000   1.0000   1.0000   1.0000
     1.0000   1.0000   1.0000   1.0000   1.0000   1.0000   1.0000   1.0000
     1.0001   1.0001   1.0186   1.0200   0.9170   0.8463   0.7955   0.7663
     0.3706   0.3383   0.0496   0.0417  -0.0342  -0.0354  -0.0189  -0.0159
    -0.0000  -0.0000  -0.0000  -0.0000  -0.0000  -0.0000

          k = 0.3333 0.3333-0.5000 ( 14870 PWs)   bands (ev):

   -56.4885 -56.4885 -56.4885 -56.4885 -56.4763 -56.4763 -56.4763 -56.4763
   -28.5659 -28.5659 -28.5623 -28.5623 -28.5363 -28.5363 -28.5331 -28.5331
   -27.6033 -27.6033 -27.5746 -27.5746 -27.5642 -27.5642 -27.5383 -27.5383
   -27.5033 -27.5033 -27.4720 -27.4720 -27.4536 -27.4536 -27.4337 -27.4337
     5.5126   5.5126   5.5145   5.5145   6.9752   6.9752   6.9810   6.9810
     9.0499   9.0499   9.0558   9.0558  10.5630  10.5630  10.5659  10.5659
    12.3851  12.3851  12.3935  12.3935  12.8192  12.8192  12.8268  12.8268
    13.1331  13.1331  13.1441  13.1441  13.3782  13.3782  13.3866  13.3866
    14.4668  14.4668  14.4752  14.4752  14.8618  14.8618  14.8775  14.8775
    15.0818  15.0818  15.1010  15.1010  15.2977  15.2977  15.3140  15.3140
    16.3320  16.3320  16.3414  16.3414  16.9303  16.9326

     occupation numbers 
     1.0000   1.0000   1.0000   1.0000   1.0000   1.0000   1.0000   1.0000
     1.0000   1.0000   1.0000   1.0000   1.0000   1.0000   1.0000   1.0000
     1.0000   1.0000   1.0000   1.0000   1.0000   1.0000   1.0000   1.0000
     1.0000   1.0000   1.0000   1.0000   1.0000   1.0000   1.0000   1.0000
     1.0000   1.0000   1.0000   1.0000   1.0000   1.0000   1.0000   1.0000
     1.0000   1.0000   1.0000   1.0000   1.0000   1.0000   1.0000   1.0000
     1.0000   1.0000   1.0000   1.0000   1.0000   1.0000   1.0000   1.0000
     1.0000   1.0000   1.0000   1.0000   1.0000   1.0000   1.0000   1.0000
     1.0147   1.0147   1.0160   1.0160   0.7704   0.7704   0.7290   0.7290
     0.1481   0.1481   0.1094   0.1094  -0.0353  -0.0353  -0.0342  -0.0342
    -0.0000  -0.0000  -0.0000  -0.0000  -0.0000  -0.0000

          k = 0.3333-0.5000-0.5000 ( 14876 PWs)   bands (ev):

   -56.4867 -56.4867 -56.4867 -56.4867 -56.4781 -56.4781 -56.4781 -56.4781
   -28.5600 -28.5600 -28.5597 -28.5597 -28.5397 -28.5397 -28.5393 -28.5393
   -27.5926 -27.5926 -27.5843 -27.5843 -27.5644 -27.5644 -27.5427 -27.5427
   -27.4955 -27.4955 -27.4740 -27.4740 -27.4485 -27.4485 -27.4404 -27.4404
     5.8908   5.8908   5.8939   5.8939   6.6637   6.6637   6.6693   6.6693
     9.0933   9.0933   9.0999   9.0999  10.0568  10.0568  10.0610  10.0610
    12.6146  12.6146  12.6186  12.6186  12.8001  12.8001  12.8022  12.8022
    13.0433  13.0433  13.0434  13.0434  13.3529  13.3529  13.3635  13.3635
    14.6576  14.6576  14.6652  14.6652  14.9737  14.9737  14.9812  14.9812
    15.0655  15.0655  15.0711  15.0711  15.2565  15.2565  15.2683  15.2683
    16.3690  16.3690  16.3703  16.3703  16.7215  16.7218

     occupation numbers 
     1.0000   1.0000   1.0000   1.0000   1.0000   1.0000   1.0000   1.0000
     1.0000   1.0000   1.0000   1.0000   1.0000   1.0000   1.0000   1.0000
     1.0000   1.0000   1.0000   1.0000   1.0000   1.0000   1.0000   1.0000
     1.0000   1.0000   1.0000   1.0000   1.0000   1.0000   1.0000   1.0000
     1.0000   1.0000   1.0000   1.0000   1.0000   1.0000   1.0000   1.0000
     1.0000   1.0000   1.0000   1.0000   1.0000   1.0000   1.0000   1.0000
     1.0000   1.0000   1.0000   1.0000   1.0000   1.0000   1.0000   1.0000
     1.0000   1.0000   1.0000   1.0000   1.0000   1.0000   1.0000   1.0000
     1.0322   1.0322   1.0305   1.0305   0.4405   0.4405   0.4174   0.4174
     0.1844   0.1844   0.1716   0.1716  -0.0331  -0.0331  -0.0346  -0.0346
    -0.0000  -0.0000  -0.0000  -0.0000  -0.0000  -0.0000

          k =-0.5000-0.5000-0.5000 ( 14832 PWs)   bands (ev):

   -56.4824 -56.4824 -56.4824 -56.4824 -56.4824 -56.4824 -56.4824 -56.4824
   -28.5505 -28.5505 -28.5498 -28.5498 -28.5498 -28.5498 -28.5498 -28.5498
   -27.5805 -27.5805 -27.5805 -27.5805 -27.5805 -27.5805 -27.5468 -27.5468
   -27.4883 -27.4883 -27.4551 -27.4551 -27.4551 -27.4551 -27.4551 -27.4551
     6.3978   6.3978   6.3978   6.3978   6.3978   6.3978   6.4082   6.4082
     9.2379   9.2379   9.2503   9.2503   9.2503   9.2503   9.2503   9.2503
    12.9181  12.9181  12.9246  12.9246  12.9246  12.9246  12.9246  12.9246
    13.0013  13.0013  13.0061  13.0061  13.0061  13.0061  13.0061  13.0061
    14.9355  14.9355  14.9374  14.9374  14.9374  14.9374  14.9374  14.9374
    15.2377  15.2377  15.2377  15.2377  15.2377  15.2377  15.2809  15.2809
    16.4114  16.4114  16.4237  16.4237  16.4237  16.4237

     occupation numbers 
     1.0000   1.0000   1.0000   1.0000   1.0000   1.0000   1.0000   1.0000
     1.0000   1.0000   1.0000   1.0000   1.0000   1.0000   1.0000   1.0000
     1.0000   1.0000   1.0000   1.0000   1.0000   1.0000   1.0000   1.0000
     1.0000   1.0000   1.0000   1.0000   1.0000   1.0000   1.0000   1.0000
     1.0000   1.0000   1.0000   1.0000   1.0000   1.0000   1.0000   1.0000
     1.0000   1.0000   1.0000   1.0000   1.0000   1.0000   1.0000   1.0000
     1.0000   1.0000   1.0000   1.0000   1.0000   1.0000   1.0000   1.0000
     1.0000   1.0000   1.0000   1.0000   1.0000   1.0000   1.0000   1.0000
     0.5589   0.5589   0.5531   0.5531   0.5531   0.5531   0.5531   0.5531
    -0.0289  -0.0289  -0.0289  -0.0289  -0.0289  -0.0289  -0.0354  -0.0354
    -0.0000  -0.0000  -0.0000  -0.0000  -0.0000  -0.0000

          k = 0.0000 0.3333 0.1667 ( 14865 PWs)   bands (ev):

   -56.5004 -56.5004 -56.4868 -56.4868 -56.4728 -56.4728 -56.4697 -56.4697
   -28.5841 -28.5792 -28.5728 -28.5710 -28.5387 -28.5359 -28.5011 -28.5004
   -27.6296 -27.6242 -27.5735 -27.5724 -27.5551 -27.5428 -27.5373 -27.5288
   -27.5158 -27.4903 -27.4798 -27.4685 -27.4595 -27.4481 -27.4349 -27.4316
     3.6317   3.6319   5.5364   5.5373   7.3643   7.3655   8.4321   8.4387
     9.7429   9.7454  10.2564  10.2626  10.9713  10.9744  11.0974  11.1000
    11.8635  11.8659  12.2431  12.2471  12.7983  12.8033  12.9767  12.9819
    13.0680  13.0743  13.2459  13.2522  13.3419  13.3466  13.4901  13.4948
    13.5406  13.5430  13.9679  13.9779  14.2314  14.2435  14.8924  14.9243
    15.2807  15.2989  15.3408  15.3578  15.6488  15.6765  15.7873  15.8131
    16.1579  16.1703  16.4249  16.4391  17.2730  17.3028

     occupation numbers 
     1.0000   1.0000   1.0000   1.0000   1.0000   1.0000   1.0000   1.0000
     1.0000   1.0000   1.0000   1.0000   1.0000   1.0000   1.0000   1.0000
     1.0000   1.0000   1.0000   1.0000   1.0000   1.0000   1.0000   1.0000
     1.0000   1.0000   1.0000   1.0000   1.0000   1.0000   1.0000   1.0000
     1.0000   1.0000   1.0000   1.0000   1.0000   1.0000   1.0000   1.0000
     1.0000   1.0000   1.0000   1.0000   1.0000   1.0000   1.0000   1.0000
     1.0000   1.0000   1.0000   1.0000   1.0000   1.0000   1.0000   1.0000
     1.0000   1.0000   1.0000   1.0000   1.0000   1.0000   1.0000   1.0000
     1.0000   1.0000   1.0000   1.0000   1.0006   1.0007   0.6877   0.5931
    -0.0353  -0.0352  -0.0310  -0.0284  -0.0009  -0.0006  -0.0001  -0.0000
    -0.0000  -0.0000  -0.0000  -0.0000  -0.0000  -0.0000

          k = 0.0000-0.5000 0.1667 ( 14838 PWs)   bands (ev):

   -56.4938 -56.4938 -56.4938 -56.4938 -56.4710 -56.4710 -56.4710 -56.4710
   -28.5803 -28.5803 -28.5748 -28.5748 -28.5201 -28.5201 -28.5173 -28.5173
   -27.6279 -27.6279 -27.5665 -27.5665 -27.5536 -27.5536 -27.5286 -27.5286
   -27.5067 -27.5067 -27.4747 -27.4747 -27.4551 -27.4551 -27.4323 -27.4323
     4.4920   4.4920   4.4925   4.4925   7.8964   7.8964   7.9011   7.9011
    10.1027  10.1027  10.1077  10.1077  10.8746  10.8746  10.8818  10.8818
    12.1426  12.1426  12.1476  12.1476  12.8634  12.8634  12.8725  12.8725
    13.1101  13.1101  13.1180  13.1180  13.3991  13.3991  13.4082  13.4082
    13.8097  13.8097  13.8151  13.8151  14.6100  14.6100  14.6410  14.6410
    15.2625  15.2625  15.2848  15.2848  15.6864  15.6864  15.7149  15.7149
    16.2187  16.2187  16.2304  16.2304  17.5943  17.5998

     occupation numbers 
     1.0000   1.0000   1.0000   1.0000   1.0000   1.0000   1.0000   1.0000
     1.0000   1.0000   1.0000   1.0000   1.0000   1.0000   1.0000   1.0000
     1.0000   1.0000   1.0000   1.0000   1.0000   1.0000   1.0000   1.0000
     1.0000   1.0000   1.0000   1.0000   1.0000   1.0000   1.0000   1.0000
     1.0000   1.0000   1.0000   1.0000   1.0000   1.0000   1.0000   1.0000
     1.0000   1.0000   1.0000   1.0000   1.0000   1.0000   1.0000   1.0000
     1.0000   1.0000   1.0000   1.0000   1.0000   1.0000   1.0000   1.0000
     1.0000   1.0000   1.0000   1.0000   1.0000   1.0000   1.0000   1.0000
     1.0000   1.0000   1.0000   1.0000   1.0352   1.0352   1.0346   1.0346
    -0.0340  -0.0340  -0.0354  -0.0354  -0.0005  -0.0005  -0.0003  -0.0003
    -0.0000  -0.0000  -0.0000  -0.0000  -0.0000  -0.0000

          k = 0.0000-0.5000 0.3333 ( 14832 PWs)   bands (ev):

   -56.4920 -56.4920 -56.4920 -56.4920 -56.4728 -56.4728 -56.4728 -56.4728
   -28.5744 -28.5744 -28.5702 -28.5702 -28.5265 -28.5265 -28.5233 -28.5233
   -27.6160 -27.6160 -27.5781 -27.5781 -27.5451 -27.5451 -27.5258 -27.5258
   -27.5160 -27.5160 -27.4931 -27.4931 -27.4424 -27.4424 -27.4281 -27.4281
     4.9480   4.9480   4.9488   4.9488   7.0310   7.0310   7.0335   7.0335
    10.5076  10.5076  10.5110  10.5110  10.8272  10.8272  10.8294  10.8294
    11.9950  11.9950  12.0004  12.0004  12.4107  12.4107  12.4212  12.4212
    13.2691  13.2691  13.2755  13.2755  13.9163  13.9163  13.9228  13.9228
    13.9581  13.9581  13.9714  13.9714  14.6455  14.6455  14.6789  14.6789
    14.9052  14.9052  14.9411  14.9411  15.4826  15.4826  15.5057  15.5057
    16.3892  16.3892  16.4011  16.4011  17.2967  17.3019

     occupation numbers 
     1.0000   1.0000   1.0000   1.0000   1.0000   1.0000   1.0000   1.0000
     1.0000   1.0000   1.0000   1.0000   1.0000   1.0000   1.0000   1.0000
     1.0000   1.0000   1.0000   1.0000   1.0000   1.0000   1.0000   1.0000
     1.0000   1.0000   1.0000   1.0000   1.0000   1.0000   1.0000   1.0000
     1.0000   1.0000   1.0000   1.0000   1.0000   1.0000   1.0000   1.0000
     1.0000   1.0000   1.0000   1.0000   1.0000   1.0000   1.0000   1.0000
     1.0000   1.0000   1.0000   1.0000   1.0000   1.0000   1.0000   1.0000
     1.0000   1.0000   1.0000   1.0000   1.0000   1.0000   1.0000   1.0000
     1.0000   1.0000   1.0000   1.0000   1.0341   1.0341   1.0264   1.0264
     0.6505   0.6505   0.5416   0.5416  -0.0096  -0.0096  -0.0074  -0.0074
    -0.0000  -0.0000  -0.0000  -0.0000  -0.0000  -0.0000

          k =-0.1667-0.5000 0.3333 ( 14856 PWs)   bands (ev):

   -56.4910 -56.4910 -56.4910 -56.4910 -56.4738 -56.4738 -56.4738 -56.4738
   -28.5721 -28.5721 -28.5679 -28.5679 -28.5294 -28.5294 -28.5261 -28.5261
   -27.6127 -27.6127 -27.5760 -27.5760 -27.5528 -27.5528 -27.5285 -27.5285
   -27.5148 -27.5148 -27.4833 -27.4833 -27.4472 -27.4472 -27.4289 -27.4289
     5.0988   5.0988   5.0999   5.0999   7.0744   7.0744   7.0783   7.0783
     9.6359   9.6359   9.6387   9.6387  11.1981  11.1981  11.2012  11.2012
    11.9973  11.9973  12.0040  12.0040  12.6322  12.6322  12.6425  12.6425
    13.1736  13.1736  13.1816  13.1816  13.6516  13.6516  13.6634  13.6634
    14.1721  14.1721  14.1814  14.1814  14.7183  14.7183  14.7436  14.7436
    14.9642  14.9642  14.9955  14.9955  15.4270  15.4270  15.4442  15.4442
    16.3586  16.3587  16.3695  16.3696  17.2178  17.2237

     occupation numbers 
     1.0000   1.0000   1.0000   1.0000   1.0000   1.0000   1.0000   1.0000
     1.0000   1.0000   1.0000   1.0000   1.0000   1.0000   1.0000   1.0000
     1.0000   1.0000   1.0000   1.0000   1.0000   1.0000   1.0000   1.0000
     1.0000   1.0000   1.0000   1.0000   1.0000   1.0000   1.0000   1.0000
     1.0000   1.0000   1.0000   1.0000   1.0000   1.0000   1.0000   1.0000
     1.0000   1.0000   1.0000   1.0000   1.0000   1.0000   1.0000   1.0000
     1.0000   1.0000   1.0000   1.0000   1.0000   1.0000   1.0000   1.0000
     1.0000   1.0000   1.0000   1.0000   1.0000   1.0000   1.0000   1.0000
     1.0002   1.0002   1.0002   1.0002   1.0054   1.0054   0.9834   0.9834
     0.4697   0.4697   0.3739   0.3739  -0.0170  -0.0170  -0.0144  -0.0144
    -0.0000  -0.0000  -0.0000  -0.0000  -0.0000  -0.0000

     the Fermi energy is    14.9545 ev

!    total energy              =   -1180.35206897 Ry

     total all-electron energy =    -10727.812905 Ry
     estimated scf accuracy    <       0.00000085 Ry
     smearing contrib. (-TS)   =      -0.00130903 Ry
     internal energy E=F+TS    =   -1180.35075994 Ry

     The total energy is F=E-TS. E is the sum of the following terms:
     one-electron contribution =    -336.81443599 Ry
     hartree contribution      =     207.05927900 Ry
     xc contribution           =    -114.36321861 Ry
     ewald contribution        =    -496.51183961 Ry
     one-center paw contrib.   =    -439.72054474 Ry
      -> PAW hartree energy AE =     126.74552332 Ry
      -> PAW hartree energy PS =    -125.77814736 Ry
      -> PAW xc energy AE      =     -96.24219878 Ry
      -> PAW xc energy PS      =      20.93485043 Ry
      -> total E_H with PAW    =     208.02665496 Ry
      -> total E_XC with PAW   =    -189.67056696 Ry

     convergence has been achieved in   6 iterations

     Writing output data file /zfs_data/vergnior/martin/Scratch/OAL/CrSi/convergence/cutoff/6x6x6/120/tmp/CrSi.save/
 
     init_run     :      6.16s CPU      6.40s WALL (       1 calls)
     electrons    :    121.43s CPU    124.59s WALL (       1 calls)

     Called by init_run:
     wfcinit      :      4.32s CPU      4.42s WALL (       1 calls)
     wfcinit:atom :      0.04s CPU      0.04s WALL (      24 calls)
     wfcinit:wfcr :      4.07s CPU      4.15s WALL (      24 calls)
     potinit      :      0.21s CPU      0.23s WALL (       1 calls)
     hinit0       :      0.23s CPU      0.24s WALL (       1 calls)

     Called by electrons:
     c_bands      :     90.58s CPU     91.91s WALL (       7 calls)
     sum_band     :     25.65s CPU     26.81s WALL (       7 calls)
     v_of_rho     :      0.26s CPU      0.27s WALL (       7 calls)
     v_h          :      0.02s CPU      0.02s WALL (       7 calls)
     v_xc         :      0.24s CPU      0.25s WALL (       7 calls)
     newd         :      4.62s CPU      5.32s WALL (       7 calls)
     PAW_pot      :      0.87s CPU      0.88s WALL (       7 calls)
     mix_rho      :      0.13s CPU      0.14s WALL (       7 calls)

     Called by c_bands:
     init_us_2    :      0.74s CPU      0.74s WALL (     360 calls)
     cegterg      :     80.54s CPU     81.81s WALL (     168 calls)

     Called by sum_band:
     sum_band:wei :      0.02s CPU      0.02s WALL (       7 calls)
     sum_band:loo :     21.69s CPU     21.94s WALL (       7 calls)
     sum_band:buf :      0.19s CPU      0.20s WALL (     168 calls)
     sum_band:ini :      0.35s CPU      0.35s WALL (     168 calls)
     sum_band:cal :      1.42s CPU      1.43s WALL (     168 calls)
     sum_band:bec :      2.14s CPU      2.15s WALL (     168 calls)
     addusdens    :      3.84s CPU      4.74s WALL (       7 calls)
     addusd:skk   :      0.01s CPU      0.01s WALL (      14 calls)
     addusd:dgemm :      1.43s CPU      2.30s WALL (      14 calls)
     addusd:qvan2 :      2.37s CPU      2.38s WALL (      14 calls)

     Called by *egterg:
     cdiaghg      :      5.99s CPU      6.05s WALL (     848 calls)
     cegterg:over :      4.56s CPU      4.58s WALL (     704 calls)
     cegterg:upda :      2.75s CPU      2.76s WALL (     704 calls)
     cegterg:last :      4.53s CPU      4.55s WALL (     435 calls)
     h_psi        :     56.29s CPU     57.50s WALL (     896 calls)
     s_psi        :      7.85s CPU      7.88s WALL (     896 calls)
     g_psi        :      0.18s CPU      0.18s WALL (     704 calls)

     Called by h_psi:
     h_psi:calbec :      4.81s CPU      4.84s WALL (     896 calls)
     vloc_psi     :     43.67s CPU     44.78s WALL (     896 calls)
     add_vuspsi   :      7.42s CPU      7.48s WALL (     896 calls)

     General routines
     calbec       :      6.22s CPU      6.26s WALL (    1064 calls)
     fft          :      0.25s CPU      0.26s WALL (     144 calls)
     ffts         :      0.02s CPU      0.02s WALL (      56 calls)
     fftw         :     32.79s CPU     33.52s WALL (  220984 calls)
     interpolate  :      0.06s CPU      0.07s WALL (      28 calls)
 
     Parallel routines
     fft_scatt_xy :      6.36s CPU      6.50s WALL (  221184 calls)
     fft_scatt_yz :     15.31s CPU     15.69s WALL (  221184 calls)

     PAW routines
     PAW_pot      :      0.87s CPU      0.88s WALL (       7 calls)
     PAW_symme    :      0.01s CPU      0.01s WALL (      14 calls)
 
     PWSCF        :   2m10.73s CPU   2m15.60s WALL

 
   This run was terminated on:  18:32:50  30Jul2021            

=------------------------------------------------------------------------------=
   JOB DONE.
=------------------------------------------------------------------------------=
