
     Program PWSCF v.6.7MaX starts on 18May2022 at 17:37:34 

     This program is part of the open-source Quantum ESPRESSO suite
     for quantum simulation of materials; please cite
         "P. Giannozzi et al., J. Phys.:Condens. Matter 21 395502 (2009);
         "P. Giannozzi et al., J. Phys.:Condens. Matter 29 465901 (2017);
          URL http://www.quantum-espresso.org", 
     in publications or presentations arising from this work. More details at
     http://www.quantum-espresso.org/quote

     Parallel version (MPI), running on    48 processors

     MPI processes distributed on     1 nodes
     R & G space division:  proc/nbgrp/npool/nimage =      48
     Waiting for input...
     Reading input from standard input

     Current dimensions of program PWSCF are:
     Max number of different atomic species (ntypx) = 10
     Max number of k-points (npk) =  40000
     Max angular momentum in pseudopotentials (lmaxx) =  3
     file O.pbe-nl-kjpaw_psl.1.0.0.UPF: wavefunction(s)  2S 2P renormalized
     file Cl.pbe-nl-kjpaw_psl.1.0.0.UPF: wavefunction(s)  3S renormalized
     file Nb.pbe-spn-kjpaw_psl.1.0.0.UPF: wavefunction(s)  4S 4P 4D renormalized

     Subspace diagonalization in iterative solution of the eigenvalue problem:
     a serial algorithm will be used

     Message from routine setup:
     using ibrav=0 with symmetry is DISCOURAGED, use correct ibrav instead
 
     Parallelization info
     --------------------
     sticks:   dense  smooth     PW     G-vecs:    dense   smooth      PW
     Min         226      90     28                 8011     2025     357
     Max         227      91     29                 8013     2026     359
     Sum       10861    4353   1363               384583    97215   17183
 


     bravais-lattice index     =            0
     lattice parameter (alat)  =      12.6717  a.u.
     unit-cell volume          =     547.9313 (a.u.)^3
     number of atoms/cell      =            4
     number of atomic types    =            3
     number of electrons       =        33.00
     number of Kohn-Sham states=           21
     kinetic-energy cutoff     =     120.0000  Ry
     charge density cutoff     =    1200.0000  Ry
     scf convergence threshold =      1.0E-10
     mixing beta               =       0.7000
     number of iterations used =            8  plain     mixing
     Exchange-correlation= SLA  PW   PBX  PBC
                           (   1   4   3   4   0   0   0)

     celldm(1)=  12.671676  celldm(2)=   0.000000  celldm(3)=   0.000000
     celldm(4)=   0.000000  celldm(5)=   0.000000  celldm(6)=   0.000000

     crystal axes: (cart. coord. in units of alat)
               a(1) = (  -0.250426   0.291161   0.923316 )  
               a(2) = (   0.250426  -0.291161   0.923316 )  
               a(3) = (   0.250426   0.291161  -0.923316 )  

     reciprocal axes: (cart. coord. in units 2 pi/alat)
               b(1) = (  0.000000  1.717261  0.541527 )  
               b(2) = (  1.996594  0.000000  0.541527 )  
               b(3) = (  1.996594  1.717261  0.000000 )  


     PseudoPot. # 1 for O  read from file:
     /zfs_data/gutierre/Scratch/Cl2NbO/smearing/10x10x10/0.006/pseudo/O.pbe-nl-kjpaw_psl.1.0.0.UPF
     MD5 check sum: df3ddea38124b4e5de5e1084591730e4
     Pseudo is Projector augmented-wave + core cor, Zval =  6.0
     Generated using 'atomic' code by A. Dal Corso  v.6.7MaX
     Shape of augmentation charge: PSQ
     Using radial grid of 1095 points,  4 beta functions with: 
                l(1) =   0
                l(2) =   0
                l(3) =   1
                l(4) =   1
     Q(r) pseudized with 0 coefficients 


     PseudoPot. # 2 for Cl read from file:
     /zfs_data/gutierre/Scratch/Cl2NbO/smearing/10x10x10/0.006/pseudo/Cl.pbe-nl-kjpaw_psl.1.0.0.UPF
     MD5 check sum: 8cf6bde52c08f6236e0f72a8870677af
     Pseudo is Projector augmented-wave + core cor, Zval =  7.0
     Generated using 'atomic' code by A. Dal Corso  v.6.7MaX
     Shape of augmentation charge: PSQ
     Using radial grid of 1157 points,  4 beta functions with: 
                l(1) =   0
                l(2) =   0
                l(3) =   1
                l(4) =   1
     Q(r) pseudized with 0 coefficients 


     PseudoPot. # 3 for Nb read from file:
     /zfs_data/gutierre/Scratch/Cl2NbO/smearing/10x10x10/0.006/pseudo/Nb.pbe-spn-kjpaw_psl.1.0.0.UPF
     MD5 check sum: 1ec1a3aa7bf3cbf7f7e0d720422bce7a
     Pseudo is Projector augmented-wave + core cor, Zval = 13.0
     Generated using 'atomic' code by A. Dal Corso  v.6.7MaX
     Shape of augmentation charge: PSQ
     Using radial grid of 1227 points,  6 beta functions with: 
                l(1) =   0
                l(2) =   0
                l(3) =   1
                l(4) =   1
                l(5) =   2
                l(6) =   2
     Q(r) pseudized with 0 coefficients 


     atomic species   valence    mass     pseudopotential
        O              6.00    15.99940     O ( 1.00)
        Cl             7.00    35.45150     Cl( 1.00)
        Nb            13.00    92.90637     Nb( 1.00)

      8 Sym. Ops., with inversion, found


                                    s                        frac. trans.

      isym =  1     identity                                     

 cryst.   s( 1) = (     1          0          0      )
                  (     0          1          0      )
                  (     0          0          1      )

 cart.    s( 1) = (  1.0000000  0.0000000  0.0000000 )
                  (  0.0000000  1.0000000  0.0000000 )
                  (  0.0000000  0.0000000  1.0000000 )


      isym =  2     180 deg rotation - cart. axis [0,0,1]        

 cryst.   s( 2) = (     0          1          0      )
                  (     1          0          0      )
                  (    -1         -1         -1      )

 cart.    s( 2) = ( -1.0000000  0.0000000  0.0000000 )
                  (  0.0000000 -1.0000000  0.0000000 )
                  (  0.0000000  0.0000000  1.0000000 )


      isym =  3     180 deg rotation - cart. axis [0,1,0]        

 cryst.   s( 3) = (     0          0          1      )
                  (    -1         -1         -1      )
                  (     1          0          0      )

 cart.    s( 3) = ( -1.0000000  0.0000000  0.0000000 )
                  (  0.0000000  1.0000000  0.0000000 )
                  (  0.0000000  0.0000000 -1.0000000 )


      isym =  4     180 deg rotation - cart. axis [1,0,0]        

 cryst.   s( 4) = (    -1         -1         -1      )
                  (     0          0          1      )
                  (     0          1          0      )

 cart.    s( 4) = (  1.0000000  0.0000000  0.0000000 )
                  (  0.0000000 -1.0000000  0.0000000 )
                  (  0.0000000  0.0000000 -1.0000000 )


      isym =  5     inversion                                    

 cryst.   s( 5) = (    -1          0          0      )
                  (     0         -1          0      )
                  (     0          0         -1      )

 cart.    s( 5) = ( -1.0000000  0.0000000  0.0000000 )
                  (  0.0000000 -1.0000000  0.0000000 )
                  (  0.0000000  0.0000000 -1.0000000 )


      isym =  6     inv. 180 deg rotation - cart. axis [0,0,1]   

 cryst.   s( 6) = (     0         -1          0      )
                  (    -1          0          0      )
                  (     1          1          1      )

 cart.    s( 6) = (  1.0000000  0.0000000  0.0000000 )
                  (  0.0000000  1.0000000  0.0000000 )
                  (  0.0000000  0.0000000 -1.0000000 )


      isym =  7     inv. 180 deg rotation - cart. axis [0,1,0]   

 cryst.   s( 7) = (     0          0         -1      )
                  (     1          1          1      )
                  (    -1          0          0      )

 cart.    s( 7) = (  1.0000000  0.0000000  0.0000000 )
                  (  0.0000000 -1.0000000  0.0000000 )
                  (  0.0000000  0.0000000  1.0000000 )


      isym =  8     inv. 180 deg rotation - cart. axis [1,0,0]   

 cryst.   s( 8) = (     1          1          1      )
                  (     0          0         -1      )
                  (     0         -1          0      )

 cart.    s( 8) = ( -1.0000000  0.0000000  0.0000000 )
                  (  0.0000000  1.0000000  0.0000000 )
                  (  0.0000000  0.0000000  1.0000000 )


   Cartesian axes

     site n.     atom                  positions (alat units)
         1           O   tau(   1) = (   0.0000000   0.2911613   0.0000000  )
         2           Cl  tau(   2) = (  -0.0000000   0.2911613   0.6365338  )
         3           Cl  tau(   3) = (   0.2504264  -0.0000000   0.2867819  )
         4           Nb  tau(   4) = (   0.0000000   0.0000000   0.0000000  )

   Crystallographic axes

     site n.     atom                  positions (cryst. coord.)
         1           O   tau(   1) = (  0.5000000  0.0000000  0.5000000  )
         2           Cl  tau(   2) = (  0.8447000  0.3447000  0.5000000  )
         3           Cl  tau(   3) = (  0.1553000  0.6553000  0.5000000  )
         4           Nb  tau(   4) = (  0.0000000  0.0000000  0.0000000  )

     number of k points=   171  Methfessel-Paxton smearing, width (Ry)=  0.0060
                       cart. coord. in units 2pi/alat
        k(    1) = (   0.0000000   0.0000000   0.0000000), wk =   0.0020000
        k(    2) = (   0.1996594   0.1717261   0.0000000), wk =   0.0080000
        k(    3) = (   0.3993189   0.3434523   0.0000000), wk =   0.0080000
        k(    4) = (   0.5989783   0.5151784   0.0000000), wk =   0.0080000
        k(    5) = (   0.7986377   0.6869045   0.0000000), wk =   0.0080000
        k(    6) = (  -0.9982971  -0.8586307   0.0000000), wk =   0.0040000
        k(    7) = (   0.1996594   0.0000000   0.0541527), wk =   0.0080000
        k(    8) = (   0.3993189   0.1717261   0.0541527), wk =   0.0160000
        k(    9) = (   0.5989783   0.3434523   0.0541527), wk =   0.0160000
        k(   10) = (   0.7986377   0.5151784   0.0541527), wk =   0.0160000
        k(   11) = (   0.9982971   0.6869045   0.0541527), wk =   0.0160000
        k(   12) = (  -0.7986377  -0.8586307   0.0541527), wk =   0.0160000
        k(   13) = (  -0.5989783  -0.6869045   0.0541527), wk =   0.0160000
        k(   14) = (  -0.3993189  -0.5151784   0.0541527), wk =   0.0160000
        k(   15) = (  -0.1996594  -0.3434523   0.0541527), wk =   0.0160000
        k(   16) = (   0.0000000  -0.1717261   0.0541527), wk =   0.0080000
        k(   17) = (   0.3993189   0.0000000   0.1083053), wk =   0.0080000
        k(   18) = (   0.5989783   0.1717261   0.1083053), wk =   0.0160000
        k(   19) = (   0.7986377   0.3434523   0.1083053), wk =   0.0160000
        k(   20) = (   0.9982971   0.5151784   0.1083053), wk =   0.0160000
        k(   21) = (   1.1979566   0.6869045   0.1083053), wk =   0.0160000
        k(   22) = (  -0.5989783  -0.8586307   0.1083053), wk =   0.0160000
        k(   23) = (  -0.3993189  -0.6869045   0.1083053), wk =   0.0160000
        k(   24) = (  -0.1996594  -0.5151784   0.1083053), wk =   0.0160000
        k(   25) = (   0.0000000  -0.3434523   0.1083053), wk =   0.0080000
        k(   26) = (   0.1996594  -0.1717261   0.1083053), wk =   0.0160000
        k(   27) = (   0.5989783   0.0000000   0.1624580), wk =   0.0080000
        k(   28) = (   0.7986377   0.1717261   0.1624580), wk =   0.0160000
        k(   29) = (   0.9982971   0.3434523   0.1624580), wk =   0.0160000
        k(   30) = (   1.1979566   0.5151784   0.1624580), wk =   0.0160000
        k(   31) = (   1.3976160   0.6869045   0.1624580), wk =   0.0160000
        k(   32) = (  -0.3993189  -0.8586307   0.1624580), wk =   0.0160000
        k(   33) = (  -0.1996594  -0.6869045   0.1624580), wk =   0.0160000
        k(   34) = (  -0.0000000  -0.5151784   0.1624580), wk =   0.0080000
        k(   35) = (   0.1996594  -0.3434523   0.1624580), wk =   0.0160000
        k(   36) = (   0.3993189  -0.1717261   0.1624580), wk =   0.0160000
        k(   37) = (   0.7986377   0.0000000   0.2166107), wk =   0.0080000
        k(   38) = (   0.9982971   0.1717261   0.2166107), wk =   0.0160000
        k(   39) = (   1.1979566   0.3434523   0.2166107), wk =   0.0160000
        k(   40) = (   1.3976160   0.5151784   0.2166107), wk =   0.0160000
        k(   41) = (   1.5972754   0.6869045   0.2166107), wk =   0.0160000
        k(   42) = (  -0.1996594  -0.8586307   0.2166107), wk =   0.0160000
        k(   43) = (   0.0000000  -0.6869045   0.2166107), wk =   0.0080000
        k(   44) = (   0.1996594  -0.5151784   0.2166107), wk =   0.0160000
        k(   45) = (   0.3993189  -0.3434523   0.2166107), wk =   0.0160000
        k(   46) = (   0.5989783  -0.1717261   0.2166107), wk =   0.0160000
        k(   47) = (  -0.9982971   0.0000000  -0.2707633), wk =   0.0040000
        k(   48) = (  -0.7986377   0.1717261  -0.2707633), wk =   0.0160000
        k(   49) = (  -0.5989783   0.3434523  -0.2707633), wk =   0.0160000
        k(   50) = (  -0.3993189   0.5151784  -0.2707633), wk =   0.0160000
        k(   51) = (  -0.1996594   0.6869045  -0.2707633), wk =   0.0160000
        k(   52) = (  -1.9965943  -0.8586307  -0.2707633), wk =   0.0040000
        k(   53) = (   0.3993189   0.3434523   0.1083053), wk =   0.0160000
        k(   54) = (   0.5989783   0.5151784   0.1083053), wk =   0.0160000
        k(   55) = (   0.7986377   0.6869045   0.1083053), wk =   0.0160000
        k(   56) = (   0.9982971   0.8586307   0.1083053), wk =   0.0080000
        k(   57) = (   0.0000000   0.0000000   0.1083053), wk =   0.0040000
        k(   58) = (   0.5989783   0.3434523   0.1624580), wk =   0.0160000
        k(   59) = (   0.7986377   0.5151784   0.1624580), wk =   0.0160000
        k(   60) = (   0.9982971   0.6869045   0.1624580), wk =   0.0160000
        k(   61) = (   1.1979566   0.8586307   0.1624580), wk =   0.0160000
        k(   62) = (  -0.5989783  -0.6869045   0.1624580), wk =   0.0160000
        k(   63) = (  -0.3993189  -0.5151784   0.1624580), wk =   0.0160000
        k(   64) = (   0.0000000  -0.1717261   0.1624580), wk =   0.0080000
        k(   65) = (   0.1996594   0.0000000   0.1624580), wk =   0.0080000
        k(   66) = (   0.7986377   0.3434523   0.2166107), wk =   0.0160000
        k(   67) = (   0.9982971   0.5151784   0.2166107), wk =   0.0160000
        k(   68) = (   1.1979566   0.6869045   0.2166107), wk =   0.0160000
        k(   69) = (   1.3976160   0.8586307   0.2166107), wk =   0.0160000
        k(   70) = (  -0.3993189  -0.6869045   0.2166107), wk =   0.0160000
        k(   71) = (  -0.0000000  -0.3434523   0.2166107), wk =   0.0080000
        k(   72) = (   0.1996594  -0.1717261   0.2166107), wk =   0.0160000
        k(   73) = (   0.3993189   0.0000000   0.2166107), wk =   0.0080000
        k(   74) = (   0.9982971   0.3434523   0.2707633), wk =   0.0080000
        k(   75) = (   1.1979566   0.5151784   0.2707633), wk =   0.0160000
        k(   76) = (   1.3976160   0.6869045   0.2707633), wk =   0.0160000
        k(   77) = (   1.5972754   0.8586307   0.2707633), wk =   0.0080000
        k(   78) = (   0.0000000  -0.5151784   0.2707633), wk =   0.0080000
        k(   79) = (   0.1996594  -0.3434523   0.2707633), wk =   0.0160000
        k(   80) = (   0.3993189  -0.1717261   0.2707633), wk =   0.0160000
        k(   81) = (   0.5989783   0.0000000   0.2707633), wk =   0.0080000
        k(   82) = (  -0.5989783   0.5151784  -0.2166107), wk =   0.0160000
        k(   83) = (  -1.9965943  -0.6869045  -0.2166107), wk =   0.0080000
        k(   84) = (  -1.7969349  -0.5151784  -0.2166107), wk =   0.0160000
        k(   85) = (  -1.5972754  -0.3434523  -0.2166107), wk =   0.0160000
        k(   86) = (  -1.3976160  -0.1717261  -0.2166107), wk =   0.0160000
        k(   87) = (  -1.1979566   0.0000000  -0.2166107), wk =   0.0080000
        k(   88) = (   0.0000000   0.8586307  -0.1624580), wk =   0.0080000
        k(   89) = (  -1.7969349  -0.6869045  -0.1624580), wk =   0.0160000
        k(   90) = (  -1.5972754  -0.5151784  -0.1624580), wk =   0.0160000
        k(   91) = (  -1.3976160  -0.3434523  -0.1624580), wk =   0.0160000
        k(   92) = (  -1.1979566  -0.1717261  -0.1624580), wk =   0.0160000
        k(   93) = (  -0.9982971   0.0000000  -0.1624580), wk =   0.0080000
        k(   94) = (  -0.0000000   0.6869045  -0.1083053), wk =   0.0080000
        k(   95) = (   0.1996594   0.8586307  -0.1083053), wk =   0.0160000
        k(   96) = (  -1.5972754  -0.6869045  -0.1083053), wk =   0.0160000
        k(   97) = (  -1.3976160  -0.5151784  -0.1083053), wk =   0.0160000
        k(   98) = (  -1.1979566  -0.3434523  -0.1083053), wk =   0.0160000
        k(   99) = (  -0.9982971  -0.1717261  -0.1083053), wk =   0.0160000
        k(  100) = (  -0.7986377   0.0000000  -0.1083053), wk =   0.0080000
        k(  101) = (   0.0000000   0.5151784  -0.0541527), wk =   0.0080000
        k(  102) = (   0.1996594   0.6869045  -0.0541527), wk =   0.0160000
        k(  103) = (   0.3993189   0.8586307  -0.0541527), wk =   0.0160000
        k(  104) = (  -1.3976160  -0.6869045  -0.0541527), wk =   0.0160000
        k(  105) = (  -1.1979566  -0.5151784  -0.0541527), wk =   0.0160000
        k(  106) = (  -0.9982971  -0.3434523  -0.0541527), wk =   0.0160000
        k(  107) = (  -0.7986377  -0.1717261  -0.0541527), wk =   0.0160000
        k(  108) = (  -0.5989783   0.0000000  -0.0541527), wk =   0.0080000
        k(  109) = (   0.0000000   0.3434523   0.0000000), wk =   0.0040000
        k(  110) = (   0.1996594   0.5151784   0.0000000), wk =   0.0080000
        k(  111) = (   0.3993189   0.6869045   0.0000000), wk =   0.0080000
        k(  112) = (   0.5989783   0.8586307   0.0000000), wk =   0.0080000
        k(  113) = (  -1.1979566  -0.6869045   0.0000000), wk =   0.0080000
        k(  114) = (  -0.9982971  -0.5151784   0.0000000), wk =   0.0080000
        k(  115) = (  -0.7986377  -0.3434523   0.0000000), wk =   0.0080000
        k(  116) = (  -0.5989783  -0.1717261   0.0000000), wk =   0.0080000
        k(  117) = (  -0.3993189   0.0000000   0.0000000), wk =   0.0040000
        k(  118) = (   0.7986377   0.6869045   0.2166107), wk =   0.0160000
        k(  119) = (   0.9982971   0.8586307   0.2166107), wk =   0.0080000
        k(  120) = (   0.0000000   0.0000000   0.2166107), wk =   0.0040000
        k(  121) = (   0.9982971   0.6869045   0.2707633), wk =   0.0080000
        k(  122) = (   1.1979566   0.8586307   0.2707633), wk =   0.0080000
        k(  123) = (  -0.0000000  -0.1717261   0.2707633), wk =   0.0080000
        k(  124) = (   0.1996594   0.0000000   0.2707633), wk =   0.0080000
        k(  125) = (   0.0000000  -0.3434523   0.3249160), wk =   0.0080000
        k(  126) = (   0.1996594  -0.1717261   0.3249160), wk =   0.0160000
        k(  127) = (   0.3993189   0.0000000   0.3249160), wk =   0.0080000
        k(  128) = (  -1.9965943  -0.5151784  -0.1624580), wk =   0.0080000
        k(  129) = (  -1.7969349  -0.3434523  -0.1624580), wk =   0.0160000
        k(  130) = (  -1.5972754  -0.1717261  -0.1624580), wk =   0.0160000
        k(  131) = (  -1.3976160   0.0000000  -0.1624580), wk =   0.0080000
        k(  132) = (   0.0000000   1.0303568  -0.1083053), wk =   0.0080000
        k(  133) = (  -1.7969349  -0.5151784  -0.1083053), wk =   0.0160000
        k(  134) = (  -1.5972754  -0.3434523  -0.1083053), wk =   0.0160000
        k(  135) = (  -1.3976160  -0.1717261  -0.1083053), wk =   0.0160000
        k(  136) = (  -1.1979566   0.0000000  -0.1083053), wk =   0.0080000
        k(  137) = (  -0.0000000   0.8586307  -0.0541527), wk =   0.0080000
        k(  138) = (   0.1996594   1.0303568  -0.0541527), wk =   0.0160000
        k(  139) = (  -1.5972754  -0.5151784  -0.0541527), wk =   0.0160000
        k(  140) = (  -1.3976160  -0.3434523  -0.0541527), wk =   0.0160000
        k(  141) = (  -1.1979566  -0.1717261  -0.0541527), wk =   0.0160000
        k(  142) = (  -0.9982971   0.0000000  -0.0541527), wk =   0.0080000
        k(  143) = (   0.0000000   0.6869045   0.0000000), wk =   0.0040000
        k(  144) = (   0.1996594   0.8586307   0.0000000), wk =   0.0080000
        k(  145) = (   0.3993189   1.0303568   0.0000000), wk =   0.0080000
        k(  146) = (  -1.3976160  -0.5151784   0.0000000), wk =   0.0080000
        k(  147) = (  -1.1979566  -0.3434523   0.0000000), wk =   0.0080000
        k(  148) = (  -0.9982971  -0.1717261   0.0000000), wk =   0.0080000
        k(  149) = (  -0.7986377   0.0000000   0.0000000), wk =   0.0040000
        k(  150) = (  -0.0000000   0.0000000   0.3249160), wk =   0.0040000
        k(  151) = (   0.0000000  -0.1717261   0.3790686), wk =   0.0080000
        k(  152) = (   0.1996594   0.0000000   0.3790686), wk =   0.0080000
        k(  153) = (  -1.9965943  -0.3434523  -0.1083053), wk =   0.0080000
        k(  154) = (  -1.7969349  -0.1717261  -0.1083053), wk =   0.0160000
        k(  155) = (  -1.5972754   0.0000000  -0.1083053), wk =   0.0080000
        k(  156) = (   0.0000000   1.2020829  -0.0541527), wk =   0.0080000
        k(  157) = (  -1.7969349  -0.3434523  -0.0541527), wk =   0.0160000
        k(  158) = (  -1.5972754  -0.1717261  -0.0541527), wk =   0.0160000
        k(  159) = (  -1.3976160   0.0000000  -0.0541527), wk =   0.0080000
        k(  160) = (  -0.0000000   1.0303568  -0.0000000), wk =   0.0040000
        k(  161) = (   0.1996594   1.2020829  -0.0000000), wk =   0.0080000
        k(  162) = (  -1.5972754  -0.3434523  -0.0000000), wk =   0.0080000
        k(  163) = (  -1.3976160  -0.1717261  -0.0000000), wk =   0.0080000
        k(  164) = (  -1.1979566   0.0000000  -0.0000000), wk =   0.0040000
        k(  165) = (   0.0000000   0.0000000   0.4332213), wk =   0.0040000
        k(  166) = (  -1.9965943  -0.1717261  -0.0541527), wk =   0.0080000
        k(  167) = (  -1.7969349   0.0000000  -0.0541527), wk =   0.0080000
        k(  168) = (   0.0000000   1.3738091   0.0000000), wk =   0.0040000
        k(  169) = (  -1.7969349  -0.1717261   0.0000000), wk =   0.0080000
        k(  170) = (  -1.5972754   0.0000000   0.0000000), wk =   0.0040000
        k(  171) = (  -1.9965943  -1.7172613  -0.5415266), wk =   0.0020000

                       cryst. coord.
        k(    1) = (   0.0000000   0.0000000   0.0000000), wk =   0.0020000
        k(    2) = (  -0.0000000   0.0000000   0.1000000), wk =   0.0080000
        k(    3) = (  -0.0000000   0.0000000   0.2000000), wk =   0.0080000
        k(    4) = (   0.0000000   0.0000000   0.3000000), wk =   0.0080000
        k(    5) = (  -0.0000000   0.0000000   0.4000000), wk =   0.0080000
        k(    6) = (   0.0000000   0.0000000  -0.5000000), wk =   0.0040000
        k(    7) = (  -0.0000000   0.1000000   0.0000000), wk =   0.0080000
        k(    8) = (  -0.0000000   0.1000000   0.1000000), wk =   0.0160000
        k(    9) = (  -0.0000000   0.1000000   0.2000000), wk =   0.0160000
        k(   10) = (  -0.0000000   0.1000000   0.3000000), wk =   0.0160000
        k(   11) = (  -0.0000000   0.1000000   0.4000000), wk =   0.0160000
        k(   12) = (   0.0000000   0.1000000  -0.5000000), wk =   0.0160000
        k(   13) = (   0.0000000   0.1000000  -0.4000000), wk =   0.0160000
        k(   14) = (   0.0000000   0.1000000  -0.3000000), wk =   0.0160000
        k(   15) = (   0.0000000   0.1000000  -0.2000000), wk =   0.0160000
        k(   16) = (   0.0000000   0.1000000  -0.1000000), wk =   0.0080000
        k(   17) = (  -0.0000000   0.2000000   0.0000000), wk =   0.0080000
        k(   18) = (  -0.0000000   0.2000000   0.1000000), wk =   0.0160000
        k(   19) = (  -0.0000000   0.2000000   0.2000000), wk =   0.0160000
        k(   20) = (   0.0000000   0.2000000   0.3000000), wk =   0.0160000
        k(   21) = (  -0.0000000   0.2000000   0.4000000), wk =   0.0160000
        k(   22) = (   0.0000000   0.2000000  -0.5000000), wk =   0.0160000
        k(   23) = (   0.0000000   0.2000000  -0.4000000), wk =   0.0160000
        k(   24) = (   0.0000000   0.2000000  -0.3000000), wk =   0.0160000
        k(   25) = (   0.0000000   0.2000000  -0.2000000), wk =   0.0080000
        k(   26) = (   0.0000000   0.2000000  -0.1000000), wk =   0.0160000
        k(   27) = (   0.0000000   0.3000000   0.0000000), wk =   0.0080000
        k(   28) = (  -0.0000000   0.3000000   0.1000000), wk =   0.0160000
        k(   29) = (   0.0000000   0.3000000   0.2000000), wk =   0.0160000
        k(   30) = (   0.0000000   0.3000000   0.3000000), wk =   0.0160000
        k(   31) = (  -0.0000000   0.3000000   0.4000000), wk =   0.0160000
        k(   32) = (   0.0000000   0.3000000  -0.5000000), wk =   0.0160000
        k(   33) = (   0.0000000   0.3000000  -0.4000000), wk =   0.0160000
        k(   34) = (   0.0000000   0.3000000  -0.3000000), wk =   0.0080000
        k(   35) = (   0.0000000   0.3000000  -0.2000000), wk =   0.0160000
        k(   36) = (   0.0000000   0.3000000  -0.1000000), wk =   0.0160000
        k(   37) = (  -0.0000000   0.4000000   0.0000000), wk =   0.0080000
        k(   38) = (  -0.0000000   0.4000000   0.1000000), wk =   0.0160000
        k(   39) = (  -0.0000000   0.4000000   0.2000000), wk =   0.0160000
        k(   40) = (  -0.0000000   0.4000000   0.3000000), wk =   0.0160000
        k(   41) = (  -0.0000000   0.4000000   0.4000000), wk =   0.0160000
        k(   42) = (   0.0000000   0.4000000  -0.5000000), wk =   0.0160000
        k(   43) = (   0.0000000   0.4000000  -0.4000000), wk =   0.0080000
        k(   44) = (   0.0000000   0.4000000  -0.3000000), wk =   0.0160000
        k(   45) = (   0.0000000   0.4000000  -0.2000000), wk =   0.0160000
        k(   46) = (  -0.0000000   0.4000000  -0.1000000), wk =   0.0160000
        k(   47) = (   0.0000000  -0.5000000   0.0000000), wk =   0.0040000
        k(   48) = (   0.0000000  -0.5000000   0.1000000), wk =   0.0160000
        k(   49) = (   0.0000000  -0.5000000   0.2000000), wk =   0.0160000
        k(   50) = (   0.0000000  -0.5000000   0.3000000), wk =   0.0160000
        k(   51) = (   0.0000000  -0.5000000   0.4000000), wk =   0.0160000
        k(   52) = (   0.0000000  -0.5000000  -0.5000000), wk =   0.0040000
        k(   53) = (   0.1000000   0.1000000   0.1000000), wk =   0.0160000
        k(   54) = (   0.1000000   0.1000000   0.2000000), wk =   0.0160000
        k(   55) = (   0.1000000   0.1000000   0.3000000), wk =   0.0160000
        k(   56) = (   0.1000000   0.1000000   0.4000000), wk =   0.0080000
        k(   57) = (   0.1000000   0.1000000  -0.1000000), wk =   0.0040000
        k(   58) = (   0.1000000   0.2000000   0.1000000), wk =   0.0160000
        k(   59) = (   0.1000000   0.2000000   0.2000000), wk =   0.0160000
        k(   60) = (   0.1000000   0.2000000   0.3000000), wk =   0.0160000
        k(   61) = (   0.1000000   0.2000000   0.4000000), wk =   0.0160000
        k(   62) = (   0.1000000   0.2000000  -0.5000000), wk =   0.0160000
        k(   63) = (   0.1000000   0.2000000  -0.4000000), wk =   0.0160000
        k(   64) = (   0.1000000   0.2000000  -0.2000000), wk =   0.0080000
        k(   65) = (   0.1000000   0.2000000  -0.1000000), wk =   0.0080000
        k(   66) = (   0.1000000   0.3000000   0.1000000), wk =   0.0160000
        k(   67) = (   0.1000000   0.3000000   0.2000000), wk =   0.0160000
        k(   68) = (   0.1000000   0.3000000   0.3000000), wk =   0.0160000
        k(   69) = (   0.1000000   0.3000000   0.4000000), wk =   0.0160000
        k(   70) = (   0.1000000   0.3000000  -0.5000000), wk =   0.0160000
        k(   71) = (   0.1000000   0.3000000  -0.3000000), wk =   0.0080000
        k(   72) = (   0.1000000   0.3000000  -0.2000000), wk =   0.0160000
        k(   73) = (   0.1000000   0.3000000  -0.1000000), wk =   0.0080000
        k(   74) = (   0.1000000   0.4000000   0.1000000), wk =   0.0080000
        k(   75) = (   0.1000000   0.4000000   0.2000000), wk =   0.0160000
        k(   76) = (   0.1000000   0.4000000   0.3000000), wk =   0.0160000
        k(   77) = (   0.1000000   0.4000000   0.4000000), wk =   0.0080000
        k(   78) = (   0.1000000   0.4000000  -0.4000000), wk =   0.0080000
        k(   79) = (   0.1000000   0.4000000  -0.3000000), wk =   0.0160000
        k(   80) = (   0.1000000   0.4000000  -0.2000000), wk =   0.0160000
        k(   81) = (   0.1000000   0.4000000  -0.1000000), wk =   0.0080000
        k(   82) = (   0.1000000  -0.5000000   0.2000000), wk =   0.0160000
        k(   83) = (   0.1000000  -0.5000000  -0.5000000), wk =   0.0080000
        k(   84) = (   0.1000000  -0.5000000  -0.4000000), wk =   0.0160000
        k(   85) = (   0.1000000  -0.5000000  -0.3000000), wk =   0.0160000
        k(   86) = (   0.1000000  -0.5000000  -0.2000000), wk =   0.0160000
        k(   87) = (   0.1000000  -0.5000000  -0.1000000), wk =   0.0080000
        k(   88) = (   0.1000000  -0.4000000   0.4000000), wk =   0.0080000
        k(   89) = (   0.1000000  -0.4000000  -0.5000000), wk =   0.0160000
        k(   90) = (   0.1000000  -0.4000000  -0.4000000), wk =   0.0160000
        k(   91) = (   0.1000000  -0.4000000  -0.3000000), wk =   0.0160000
        k(   92) = (   0.1000000  -0.4000000  -0.2000000), wk =   0.0160000
        k(   93) = (   0.1000000  -0.4000000  -0.1000000), wk =   0.0080000
        k(   94) = (   0.1000000  -0.3000000   0.3000000), wk =   0.0080000
        k(   95) = (   0.1000000  -0.3000000   0.4000000), wk =   0.0160000
        k(   96) = (   0.1000000  -0.3000000  -0.5000000), wk =   0.0160000
        k(   97) = (   0.1000000  -0.3000000  -0.4000000), wk =   0.0160000
        k(   98) = (   0.1000000  -0.3000000  -0.3000000), wk =   0.0160000
        k(   99) = (   0.1000000  -0.3000000  -0.2000000), wk =   0.0160000
        k(  100) = (   0.1000000  -0.3000000  -0.1000000), wk =   0.0080000
        k(  101) = (   0.1000000  -0.2000000   0.2000000), wk =   0.0080000
        k(  102) = (   0.1000000  -0.2000000   0.3000000), wk =   0.0160000
        k(  103) = (   0.1000000  -0.2000000   0.4000000), wk =   0.0160000
        k(  104) = (   0.1000000  -0.2000000  -0.5000000), wk =   0.0160000
        k(  105) = (   0.1000000  -0.2000000  -0.4000000), wk =   0.0160000
        k(  106) = (   0.1000000  -0.2000000  -0.3000000), wk =   0.0160000
        k(  107) = (   0.1000000  -0.2000000  -0.2000000), wk =   0.0160000
        k(  108) = (   0.1000000  -0.2000000  -0.1000000), wk =   0.0080000
        k(  109) = (   0.1000000  -0.1000000   0.1000000), wk =   0.0040000
        k(  110) = (   0.1000000  -0.1000000   0.2000000), wk =   0.0080000
        k(  111) = (   0.1000000  -0.1000000   0.3000000), wk =   0.0080000
        k(  112) = (   0.1000000  -0.1000000   0.4000000), wk =   0.0080000
        k(  113) = (   0.1000000  -0.1000000  -0.5000000), wk =   0.0080000
        k(  114) = (   0.1000000  -0.1000000  -0.4000000), wk =   0.0080000
        k(  115) = (   0.1000000  -0.1000000  -0.3000000), wk =   0.0080000
        k(  116) = (   0.1000000  -0.1000000  -0.2000000), wk =   0.0080000
        k(  117) = (   0.1000000  -0.1000000  -0.1000000), wk =   0.0040000
        k(  118) = (   0.2000000   0.2000000   0.2000000), wk =   0.0160000
        k(  119) = (   0.2000000   0.2000000   0.3000000), wk =   0.0080000
        k(  120) = (   0.2000000   0.2000000  -0.2000000), wk =   0.0040000
        k(  121) = (   0.2000000   0.3000000   0.2000000), wk =   0.0080000
        k(  122) = (   0.2000000   0.3000000   0.3000000), wk =   0.0080000
        k(  123) = (   0.2000000   0.3000000  -0.3000000), wk =   0.0080000
        k(  124) = (   0.2000000   0.3000000  -0.2000000), wk =   0.0080000
        k(  125) = (   0.2000000   0.4000000  -0.4000000), wk =   0.0080000
        k(  126) = (   0.2000000   0.4000000  -0.3000000), wk =   0.0160000
        k(  127) = (   0.2000000   0.4000000  -0.2000000), wk =   0.0080000
        k(  128) = (   0.2000000  -0.5000000  -0.5000000), wk =   0.0080000
        k(  129) = (   0.2000000  -0.5000000  -0.4000000), wk =   0.0160000
        k(  130) = (   0.2000000  -0.5000000  -0.3000000), wk =   0.0160000
        k(  131) = (   0.2000000  -0.5000000  -0.2000000), wk =   0.0080000
        k(  132) = (   0.2000000  -0.4000000   0.4000000), wk =   0.0080000
        k(  133) = (   0.2000000  -0.4000000  -0.5000000), wk =   0.0160000
        k(  134) = (   0.2000000  -0.4000000  -0.4000000), wk =   0.0160000
        k(  135) = (   0.2000000  -0.4000000  -0.3000000), wk =   0.0160000
        k(  136) = (   0.2000000  -0.4000000  -0.2000000), wk =   0.0080000
        k(  137) = (   0.2000000  -0.3000000   0.3000000), wk =   0.0080000
        k(  138) = (   0.2000000  -0.3000000   0.4000000), wk =   0.0160000
        k(  139) = (   0.2000000  -0.3000000  -0.5000000), wk =   0.0160000
        k(  140) = (   0.2000000  -0.3000000  -0.4000000), wk =   0.0160000
        k(  141) = (   0.2000000  -0.3000000  -0.3000000), wk =   0.0160000
        k(  142) = (   0.2000000  -0.3000000  -0.2000000), wk =   0.0080000
        k(  143) = (   0.2000000  -0.2000000   0.2000000), wk =   0.0040000
        k(  144) = (   0.2000000  -0.2000000   0.3000000), wk =   0.0080000
        k(  145) = (   0.2000000  -0.2000000   0.4000000), wk =   0.0080000
        k(  146) = (   0.2000000  -0.2000000  -0.5000000), wk =   0.0080000
        k(  147) = (   0.2000000  -0.2000000  -0.4000000), wk =   0.0080000
        k(  148) = (   0.2000000  -0.2000000  -0.3000000), wk =   0.0080000
        k(  149) = (   0.2000000  -0.2000000  -0.2000000), wk =   0.0040000
        k(  150) = (   0.3000000   0.3000000  -0.3000000), wk =   0.0040000
        k(  151) = (   0.3000000   0.4000000  -0.4000000), wk =   0.0080000
        k(  152) = (   0.3000000   0.4000000  -0.3000000), wk =   0.0080000
        k(  153) = (   0.3000000  -0.5000000  -0.5000000), wk =   0.0080000
        k(  154) = (   0.3000000  -0.5000000  -0.4000000), wk =   0.0160000
        k(  155) = (   0.3000000  -0.5000000  -0.3000000), wk =   0.0080000
        k(  156) = (   0.3000000  -0.4000000   0.4000000), wk =   0.0080000
        k(  157) = (   0.3000000  -0.4000000  -0.5000000), wk =   0.0160000
        k(  158) = (   0.3000000  -0.4000000  -0.4000000), wk =   0.0160000
        k(  159) = (   0.3000000  -0.4000000  -0.3000000), wk =   0.0080000
        k(  160) = (   0.3000000  -0.3000000   0.3000000), wk =   0.0040000
        k(  161) = (   0.3000000  -0.3000000   0.4000000), wk =   0.0080000
        k(  162) = (   0.3000000  -0.3000000  -0.5000000), wk =   0.0080000
        k(  163) = (   0.3000000  -0.3000000  -0.4000000), wk =   0.0080000
        k(  164) = (   0.3000000  -0.3000000  -0.3000000), wk =   0.0040000
        k(  165) = (   0.4000000   0.4000000  -0.4000000), wk =   0.0040000
        k(  166) = (   0.4000000  -0.5000000  -0.5000000), wk =   0.0080000
        k(  167) = (   0.4000000  -0.5000000  -0.4000000), wk =   0.0080000
        k(  168) = (   0.4000000  -0.4000000   0.4000000), wk =   0.0040000
        k(  169) = (   0.4000000  -0.4000000  -0.5000000), wk =   0.0080000
        k(  170) = (   0.4000000  -0.4000000  -0.4000000), wk =   0.0040000
        k(  171) = (  -0.5000000  -0.5000000  -0.5000000), wk =   0.0020000

     Dense  grid:   384583 G-vectors     FFT dimensions: ( 144, 144, 144)

     Smooth grid:    97215 G-vectors     FFT dimensions: (  90,  90,  90)

     Dynamical RAM for                 wfc:       0.08 MB

     Dynamical RAM for     wfc (w. buffer):      13.94 MB

     Dynamical RAM for           str. fact:       0.37 MB

     Dynamical RAM for           local pot:       0.00 MB

     Dynamical RAM for          nlocal pot:       0.16 MB

     Dynamical RAM for                qrad:       8.33 MB

     Dynamical RAM for          rho,v,vnew:       1.79 MB

     Dynamical RAM for               rhoin:       0.60 MB

     Dynamical RAM for            rho*nmix:       1.96 MB

     Dynamical RAM for           G-vectors:       0.47 MB

     Dynamical RAM for          h,s,v(r/c):       0.08 MB

     Dynamical RAM for          <psi|beta>:       0.01 MB

     Dynamical RAM for                 psi:       0.16 MB

     Dynamical RAM for                hpsi:       0.16 MB

     Dynamical RAM for                spsi:       0.16 MB

     Dynamical RAM for      wfcinit/wfcrot:       0.21 MB

     Dynamical RAM for           addusdens:      22.98 MB

     Dynamical RAM for          addusforce:      23.30 MB

     Dynamical RAM for         addusstress:      24.57 MB

     Estimated static dynamical RAM per process >      30.49 MB

     Estimated max dynamical RAM per process >      55.06 MB

     Estimated total dynamical RAM >       2.58 GB

     Initial potential from superposition of free atoms

     starting charge   32.99867, renormalised to   33.00000
     Starting wfcs are   25 randomized atomic wfcs
     Checking if some PAW data can be deallocated... 
       PAW data deallocated on   36 nodes for type:  1
       PAW data deallocated on   24 nodes for type:  2
       PAW data deallocated on   36 nodes for type:  3

     total cpu time spent up to now is        4.8 secs

     Self-consistent Calculation

     iteration #  1     ecut=   120.00 Ry     beta= 0.70
     Davidson diagonalization with overlap
     ethr =  1.00E-02,  avg # of iterations =  2.2

     total cpu time spent up to now is       13.1 secs

     total energy              =    -534.53023329 Ry
     estimated scf accuracy    <       0.76004161 Ry

     iteration #  2     ecut=   120.00 Ry     beta= 0.70
     Davidson diagonalization with overlap
     ethr =  2.30E-03,  avg # of iterations =  3.7

     total cpu time spent up to now is       23.0 secs

     total energy              =    -533.58769803 Ry
     estimated scf accuracy    <       8.56448308 Ry

     iteration #  3     ecut=   120.00 Ry     beta= 0.70
     Davidson diagonalization with overlap
     ethr =  2.30E-03,  avg # of iterations =  3.5

     total cpu time spent up to now is       32.1 secs

     total energy              =    -534.97547844 Ry
     estimated scf accuracy    <       0.12726146 Ry

     iteration #  4     ecut=   120.00 Ry     beta= 0.70
     Davidson diagonalization with overlap
     ethr =  3.86E-04,  avg # of iterations =  1.3

     total cpu time spent up to now is       39.5 secs

     total energy              =    -534.96761209 Ry
     estimated scf accuracy    <       0.06161456 Ry

     iteration #  5     ecut=   120.00 Ry     beta= 0.70
     Davidson diagonalization with overlap
     ethr =  1.87E-04,  avg # of iterations =  1.5

     total cpu time spent up to now is       46.8 secs

     total energy              =    -534.96467416 Ry
     estimated scf accuracy    <       0.02291616 Ry

     iteration #  6     ecut=   120.00 Ry     beta= 0.70
     Davidson diagonalization with overlap
     ethr =  6.94E-05,  avg # of iterations =  1.9

     total cpu time spent up to now is       54.4 secs

     total energy              =    -534.96703559 Ry
     estimated scf accuracy    <       0.00078352 Ry

     iteration #  7     ecut=   120.00 Ry     beta= 0.70
     Davidson diagonalization with overlap
     ethr =  2.37E-06,  avg # of iterations =  3.4

     total cpu time spent up to now is       64.1 secs

     total energy              =    -534.96727611 Ry
     estimated scf accuracy    <       0.00017430 Ry

     iteration #  8     ecut=   120.00 Ry     beta= 0.70
     Davidson diagonalization with overlap
     ethr =  5.28E-07,  avg # of iterations =  1.4

     total cpu time spent up to now is       71.4 secs

     total energy              =    -534.96727453 Ry
     estimated scf accuracy    <       0.00003611 Ry

     iteration #  9     ecut=   120.00 Ry     beta= 0.70
     Davidson diagonalization with overlap
     ethr =  1.09E-07,  avg # of iterations =  2.0

     total cpu time spent up to now is       79.5 secs

     total energy              =    -534.96728272 Ry
     estimated scf accuracy    <       0.00000095 Ry

     iteration # 10     ecut=   120.00 Ry     beta= 0.70
     Davidson diagonalization with overlap
     ethr =  2.87E-09,  avg # of iterations =  3.8

     total cpu time spent up to now is       89.2 secs

     total energy              =    -534.96728308 Ry
     estimated scf accuracy    <       0.00000003 Ry

     iteration # 11     ecut=   120.00 Ry     beta= 0.70
     Davidson diagonalization with overlap
     ethr =  1.04E-10,  avg # of iterations =  3.8

     total cpu time spent up to now is       99.6 secs

     total energy              =    -534.96728309 Ry
     estimated scf accuracy    <       0.00000003 Ry

     iteration # 12     ecut=   120.00 Ry     beta= 0.70
     Davidson diagonalization with overlap
     ethr =  9.90E-11,  avg # of iterations =  2.1

     total cpu time spent up to now is      107.5 secs

     total energy              =    -534.96728310 Ry
     estimated scf accuracy    <          5.4E-10 Ry

     iteration # 13     ecut=   120.00 Ry     beta= 0.70
     Davidson diagonalization with overlap
     ethr =  1.64E-12,  avg # of iterations =  3.7

     total cpu time spent up to now is      117.4 secs

     total energy              =    -534.96728310 Ry
     estimated scf accuracy    <          1.0E-10 Ry

     iteration # 14     ecut=   120.00 Ry     beta= 0.70
     Davidson diagonalization with overlap
     ethr =  3.16E-13,  avg # of iterations =  2.2

     total cpu time spent up to now is      125.8 secs

     End of self-consistent calculation

          k = 0.0000 0.0000 0.0000 ( 12131 PWs)   bands (ev):

   -49.8771 -26.1590 -25.7913 -25.7117 -12.4467  -9.4941  -8.8039   0.6440
     2.4949   2.7171   2.8783   2.9510   3.4270   3.9408   4.1874   4.2884
     5.5285   7.1746   7.3193   8.6706   9.3590

     occupation numbers 
     1.0000   1.0000   1.0000   1.0000   1.0000   1.0000   1.0000   1.0000
     1.0000   1.0000   1.0000   1.0000   1.0000   1.0000   1.0000   1.0000
     1.0000  -0.0000  -0.0000  -0.0000  -0.0000

          k = 0.1997 0.1717 0.0000 ( 12123 PWs)   bands (ev):

   -49.8754 -26.1753 -25.7870 -25.7319 -12.3203  -9.4235  -8.8087   0.7804
     2.2241   2.3538   2.5787   3.1309   3.2704   3.7441   3.8821   4.0596
     5.8277   7.3856   7.4760   8.7301   9.8386

     occupation numbers 
     1.0000   1.0000   1.0000   1.0000   1.0000   1.0000   1.0000   1.0000
     1.0000   1.0000   1.0000   1.0000   1.0000   1.0000   1.0000   1.0000
     1.0000  -0.0000  -0.0000  -0.0000  -0.0000

          k = 0.3993 0.3435 0.0000 ( 12142 PWs)   bands (ev):

   -49.8709 -26.2173 -25.7843 -25.7758 -11.9764  -9.2317  -8.8231   1.1460
     1.6339   1.8209   2.0587   2.3832   2.7114   3.1690   3.8703   3.9990
     6.4506   7.8483   7.9234   8.9929  10.7682

     occupation numbers 
     1.0000   1.0000   1.0000   1.0000   1.0000   1.0000   1.0000   1.0000
     1.0000   1.0000   1.0000   1.0000   1.0000   1.0000   1.0000   1.0000
     1.0016  -0.0000  -0.0000  -0.0000  -0.0000

          k = 0.5990 0.5152 0.0000 ( 12161 PWs)   bands (ev):

   -49.8654 -26.2674 -25.8480 -25.7619 -11.5204  -8.9780  -8.8443   0.5190
     1.4124   1.6614   1.7313   1.8221   1.8815   2.6955   3.7382   4.0078
     7.2504   8.4149   8.5660   9.3682  11.3213

     occupation numbers 
     1.0000   1.0000   1.0000   1.0000   1.0000   1.0000   1.0000   1.0000
     1.0000   1.0000   1.0000   1.0000   1.0000   1.0000   1.0000   1.0000
    -0.0000  -0.0000  -0.0000  -0.0000  -0.0000

          k = 0.7986 0.6869 0.0000 ( 12158 PWs)   bands (ev):

   -49.8609 -26.3067 -25.8987 -25.7507 -11.1191  -8.8643  -8.7557  -0.3208
     0.8161   1.1746   1.6811   1.7846   2.2238   2.3379   3.4483   3.9483
     8.0804   8.9251   9.1311   9.6591  11.3612

     occupation numbers 
     1.0000   1.0000   1.0000   1.0000   1.0000   1.0000   1.0000   1.0000
     1.0000   1.0000   1.0000   1.0000   1.0000   1.0000   1.0000   1.0000
    -0.0000  -0.0000  -0.0000  -0.0000  -0.0000

          k =-0.9983-0.8586 0.0000 ( 12140 PWs)   bands (ev):

   -49.8592 -26.3215 -25.9179 -25.7464 -10.9563  -8.8726  -8.6658  -0.6400
     0.5771   0.9726   1.7530   1.8573   1.9603   2.6042   3.2789   3.8750
     8.4873   9.1448   9.3350   9.7857  11.3903

     occupation numbers 
     1.0000   1.0000   1.0000   1.0000   1.0000   1.0000   1.0000   1.0000
     1.0000   1.0000   1.0000   1.0000   1.0000   1.0000   1.0000   1.0000
    -0.0000  -0.0000  -0.0000  -0.0000  -0.0000

          k = 0.1997 0.0000 0.0542 ( 12144 PWs)   bands (ev):

   -49.8757 -26.1574 -25.7876 -25.7325 -12.4356  -9.4360  -8.8124   0.7679
     2.3453   2.6796   2.9178   2.9976   3.2265   3.8722   3.9714   4.1335
     5.8160   7.1167   7.2809   8.7191   9.6208

     occupation numbers 
     1.0000   1.0000   1.0000   1.0000   1.0000   1.0000   1.0000   1.0000
     1.0000   1.0000   1.0000   1.0000   1.0000   1.0000   1.0000   1.0000
     1.0000  -0.0000  -0.0000  -0.0000  -0.0000

          k = 0.3993 0.1717 0.0542 ( 12149 PWs)   bands (ev):

   -49.8717 -26.1710 -25.7859 -25.7774 -12.2914  -9.2715  -8.8247   1.0808
     2.0503   2.2929   2.5388   2.6123   3.1354   3.2148   3.8504   4.0511
     6.4183   7.2336   7.3610   8.9790  10.2737

     occupation numbers 
     1.0000   1.0000   1.0000   1.0000   1.0000   1.0000   1.0000   1.0000
     1.0000   1.0000   1.0000   1.0000   1.0000   1.0000   1.0000   1.0000
     1.0002  -0.0000  -0.0000  -0.0000  -0.0000

          k = 0.5990 0.3435 0.0542 ( 12156 PWs)   bands (ev):

   -49.8664 -26.2116 -25.8501 -25.7640 -11.9416  -9.0311  -8.8437   1.4008
     1.5877   1.7933   1.9283   2.0007   2.2190   2.8043   3.8391   4.1025
     7.1767   7.7016   7.8131   9.4083  10.9560

     occupation numbers 
     1.0000   1.0000   1.0000   1.0000   1.0000   1.0000   1.0000   1.0000
     1.0000   1.0000   1.0000   1.0000   1.0000   1.0000   1.0000   1.0000
    -0.0000  -0.0000  -0.0000  -0.0000  -0.0000

          k = 0.7986 0.5152 0.0542 ( 12169 PWs)   bands (ev):

   -49.8617 -26.2626 -25.9006 -25.7524 -11.4933  -8.8710  -8.7932   0.5404
     1.1195   1.1367   1.7025   1.8761   2.3357   2.3610   3.5917   4.0697
     7.9845   8.3384   8.5036   9.7220  11.2279

     occupation numbers 
     1.0000   1.0000   1.0000   1.0000   1.0000   1.0000   1.0000   1.0000
     1.0000   1.0000   1.0000   1.0000   1.0000   1.0000   1.0000   1.0000
    -0.0000  -0.0000  -0.0000  -0.0000  -0.0000

          k = 0.9983 0.6869 0.0542 ( 12165 PWs)   bands (ev):

   -49.8595 -26.3048 -25.9187 -25.7471 -11.1092  -8.8805  -8.6745  -0.3130
     0.6766   0.9500   1.6085   1.9535   2.1053   2.6217   3.3266   3.9187
     8.4798   8.8791   9.1021   9.7760  11.3086

     occupation numbers 
     1.0000   1.0000   1.0000   1.0000   1.0000   1.0000   1.0000   1.0000
     1.0000   1.0000   1.0000   1.0000   1.0000   1.0000   1.0000   1.0000
    -0.0000  -0.0000  -0.0000  -0.0000  -0.0000

          k =-0.7986-0.8586 0.0542 ( 12168 PWs)   bands (ev):

   -49.8606 -26.3234 -25.8980 -25.7501 -10.9659  -8.8765  -8.7253  -0.6470
     0.6964   1.1633   1.4957   1.8270   2.3012   2.4394   3.3825   3.8439
     8.1169   9.1807   9.3679   9.5918  11.3216

     occupation numbers 
     1.0000   1.0000   1.0000   1.0000   1.0000   1.0000   1.0000   1.0000
     1.0000   1.0000   1.0000   1.0000   1.0000   1.0000   1.0000   1.0000
    -0.0000  -0.0000  -0.0000  -0.0000  -0.0000

          k =-0.5990-0.6869 0.0542 ( 12172 PWs)   bands (ev):

   -49.8645 -26.3118 -25.8462 -25.7602 -11.1448  -8.9231  -8.8566  -0.3407
     1.1439   1.4020   1.7389   1.7630   1.9277   2.7279   3.6339   3.8382
     7.3106   9.0275   9.1580   9.3187  11.4353

     occupation numbers 
     1.0000   1.0000   1.0000   1.0000   1.0000   1.0000   1.0000   1.0000
     1.0000   1.0000   1.0000   1.0000   1.0000   1.0000   1.0000   1.0000
    -0.0000  -0.0000  -0.0000  -0.0000  -0.0000

          k =-0.3993-0.5152 0.0542 ( 12158 PWs)   bands (ev):

   -49.8698 -26.2734 -25.7822 -25.7737 -11.5536  -9.1709  -8.8343   0.4909
     1.2775   1.4195   1.9072   2.0553   2.6127   3.1612   3.7648   3.8718
     6.5109   8.5837   8.6190   9.0015  11.1443

     occupation numbers 
     1.0000   1.0000   1.0000   1.0000   1.0000   1.0000   1.0000   1.0000
     1.0000   1.0000   1.0000   1.0000   1.0000   1.0000   1.0000   1.0000
     1.0190  -0.0000  -0.0000  -0.0000  -0.0000

          k =-0.1997-0.3435 0.0542 ( 12131 PWs)   bands (ev):

   -49.8745 -26.2218 -25.7853 -25.7304 -12.0045  -9.3765  -8.8167   0.8515
     1.6030   1.6777   2.3632   2.7895   3.3778   3.5453   3.8016   3.9107
     5.8729   8.0151   8.0301   8.7556  10.2950

     occupation numbers 
     1.0000   1.0000   1.0000   1.0000   1.0000   1.0000   1.0000   1.0000
     1.0000   1.0000   1.0000   1.0000   1.0000   1.0000   1.0000   1.0000
     1.0000  -0.0000  -0.0000  -0.0000  -0.0000

          k = 0.0000-0.1717 0.0542 ( 12115 PWs)   bands (ev):

   -49.8767 -26.1770 -25.7906 -25.7112 -12.3313  -9.4744  -8.8094   0.6781
     2.1923   2.5096   2.5695   3.2939   3.3130   3.8276   3.9964   4.2089
     5.5481   7.4568   7.5202   8.6898   9.5916

     occupation numbers 
     1.0000   1.0000   1.0000   1.0000   1.0000   1.0000   1.0000   1.0000
     1.0000   1.0000   1.0000   1.0000   1.0000   1.0000   1.0000   1.0000
     1.0000  -0.0000  -0.0000  -0.0000  -0.0000

          k = 0.3993 0.0000 0.1083 ( 12140 PWs)   bands (ev):

   -49.8721 -26.1532 -25.7865 -25.7781 -12.4064  -9.2800  -8.8328   1.0665
     2.0646   2.4205   2.6480   2.9747   3.1869   3.5140   3.8253   3.9852
     6.4284   6.9791   7.1575   8.9421  10.0034

     occupation numbers 
     1.0000   1.0000   1.0000   1.0000   1.0000   1.0000   1.0000   1.0000
     1.0000   1.0000   1.0000   1.0000   1.0000   1.0000   1.0000   1.0000
     1.0005  -0.0000  -0.0000  -0.0000  -0.0000

          k = 0.5990 0.1717 0.1083 ( 12167 PWs)   bands (ev):

   -49.8672 -26.1657 -25.8519 -25.7656 -12.2557  -9.0699  -8.8468   1.3273
     1.6875   1.8975   2.2346   2.6499   2.9489   3.1332   3.8189   3.9980
     7.0109   7.1804   7.2773   9.3919  10.3813

     occupation numbers 
     1.0000   1.0000   1.0000   1.0000   1.0000   1.0000   1.0000   1.0000
     1.0000   1.0000   1.0000   1.0000   1.0000   1.0000   1.0000   1.0000
    -0.0000  -0.0000  -0.0000  -0.0000  -0.0000

          k = 0.7986 0.3435 0.1083 ( 12170 PWs)   bands (ev):

   -49.8628 -26.2071 -25.9028 -25.7544 -11.9134  -8.9024  -8.8148   1.0322
     1.4253   1.6275   1.7806   1.9630   2.4991   2.7771   3.7557   4.0980
     7.4662   7.7063   8.0876   9.7421  10.8103

     occupation numbers 
     1.0000   1.0000   1.0000   1.0000   1.0000   1.0000   1.0000   1.0000
     1.0000   1.0000   1.0000   1.0000   1.0000   1.0000   1.0000   1.0000
    -0.0000  -0.0000  -0.0000  -0.0000  -0.0000

          k = 0.9983 0.5152 0.1083 ( 12171 PWs)   bands (ev):

   -49.8604 -26.2607 -25.9205 -25.7487 -11.4828  -8.9010  -8.6973   0.5433
     0.8690   1.0028   1.4844   1.9743   2.4574   2.7033   3.4661   4.0088
     8.1949   8.4756   8.4929   9.7644  11.0626

     occupation numbers 
     1.0000   1.0000   1.0000   1.0000   1.0000   1.0000   1.0000   1.0000
     1.0000   1.0000   1.0000   1.0000   1.0000   1.0000   1.0000   1.0000
    -0.0000  -0.0000  -0.0000  -0.0000  -0.0000

          k = 1.1980 0.6869 0.1083 ( 12179 PWs)   bands (ev):

   -49.8609 -26.3067 -25.8987 -25.7507 -11.1189  -8.9017  -8.7150  -0.3209
     0.7813   1.1047   1.3875   1.9029   2.4497   2.5764   3.4197   3.8245
     8.1328   8.9158   9.1335   9.5321  11.1986

     occupation numbers 
     1.0000   1.0000   1.0000   1.0000   1.0000   1.0000   1.0000   1.0000
     1.0000   1.0000   1.0000   1.0000   1.0000   1.0000   1.0000   1.0000
    -0.0000  -0.0000  -0.0000  -0.0000  -0.0000

          k =-0.5990-0.8586 0.1083 ( 12174 PWs)   bands (ev):

   -49.8642 -26.3286 -25.8455 -25.7596 -10.9908  -8.8873  -8.8757  -0.6651
     1.0025   1.2842   1.6900   1.7093   2.1141   2.8047   3.6102   3.6929
     7.3527   9.1399   9.3344   9.4404  11.4206

     occupation numbers 
     1.0000   1.0000   1.0000   1.0000   1.0000   1.0000   1.0000   1.0000
     1.0000   1.0000   1.0000   1.0000   1.0000   1.0000   1.0000   1.0000
    -0.0000  -0.0000  -0.0000  -0.0000  -0.0000

          k =-0.3993-0.6869 0.1083 ( 12185 PWs)   bands (ev):

   -49.8690 -26.3180 -25.7806 -25.7720 -11.1761  -9.1039  -8.8632  -0.3646
     1.1103   1.4246   1.6176   1.9898   2.5822   3.1241   3.5865   3.8317
     6.5691   8.8770   9.2057   9.2903  11.3498

     occupation numbers 
     1.0000   1.0000   1.0000   1.0000   1.0000   1.0000   1.0000   1.0000
     1.0000   1.0000   1.0000   1.0000   1.0000   1.0000   1.0000   1.0000
     1.0224  -0.0000  -0.0000  -0.0000  -0.0000

          k =-0.1997-0.5152 0.1083 ( 12132 PWs)   bands (ev):

   -49.8735 -26.2782 -25.7832 -25.7285 -11.5803  -9.3070  -8.8406   0.4669
     0.9596   1.2730   2.3023   2.4388   3.1119   3.5180   3.6423   3.9265
     5.9281   8.6745   8.7657   8.8258  10.7162

     occupation numbers 
     1.0000   1.0000   1.0000   1.0000   1.0000   1.0000   1.0000   1.0000
     1.0000   1.0000   1.0000   1.0000   1.0000   1.0000   1.0000   1.0000
     1.0000  -0.0000  -0.0000  -0.0000  -0.0000

          k = 0.0000-0.3435 0.1083 ( 12124 PWs)   bands (ev):

   -49.8759 -26.2235 -25.7889 -25.7097 -12.0150  -9.4200  -8.8272   0.7658
     1.5855   1.6475   2.5490   3.0205   3.2866   3.5855   3.9148   4.0855
     5.5889   8.0496   8.1164   8.7404  10.0693

     occupation numbers 
     1.0000   1.0000   1.0000   1.0000   1.0000   1.0000   1.0000   1.0000
     1.0000   1.0000   1.0000   1.0000   1.0000   1.0000   1.0000   1.0000
     1.0000  -0.0000  -0.0000  -0.0000  -0.0000

          k = 0.1997-0.1717 0.1083 ( 12128 PWs)   bands (ev):

   -49.8754 -26.1753 -25.7870 -25.7319 -12.3201  -9.4104  -8.8250   0.8218
     2.2341   2.3546   2.5812   3.1121   3.2443   3.6634   3.9126   4.0586
     5.8425   7.3820   7.4896   8.7279   9.8905

     occupation numbers 
     1.0000   1.0000   1.0000   1.0000   1.0000   1.0000   1.0000   1.0000
     1.0000   1.0000   1.0000   1.0000   1.0000   1.0000   1.0000   1.0000
     1.0000  -0.0000  -0.0000  -0.0000  -0.0000

          k = 0.5990 0.0000 0.1625 ( 12144 PWs)   bands (ev):

   -49.8676 -26.1479 -25.8526 -25.7663 -12.3704  -9.0851  -8.8470   1.2715
     1.6078   1.9611   2.3385   3.0519   3.3821   3.4651   3.7107   3.7888
     6.8394   6.9388   7.2288   9.3294  10.0430

     occupation numbers 
     1.0000   1.0000   1.0000   1.0000   1.0000   1.0000   1.0000   1.0000
     1.0000   1.0000   1.0000   1.0000   1.0000   1.0000   1.0000   1.0000
    -0.0023  -0.0000  -0.0000  -0.0000  -0.0000

          k = 0.7986 0.1717 0.1625 ( 12183 PWs)   bands (ev):

   -49.8636 -26.1613 -25.9047 -25.7560 -12.2268  -8.9420  -8.8167   0.9637
     1.4251   1.8715   2.0053   2.7829   2.9233   3.3101   3.7990   3.9425
     6.9392   6.9998   8.0497   9.6947  10.2303

     occupation numbers 
     1.0000   1.0000   1.0000   1.0000   1.0000   1.0000   1.0000   1.0000
     1.0000   1.0000   1.0000   1.0000   1.0000   1.0000   1.0000   1.0000
    -0.0000  -0.0000  -0.0000  -0.0000  -0.0000

          k = 0.9983 0.3435 0.1625 ( 12171 PWs)   bands (ev):

   -49.8614 -26.2053 -25.9228 -25.7507 -11.9026  -8.9261  -8.7249   0.7652
     1.3451   1.4697   1.7535   1.9727   2.7347   3.0215   3.6669   4.0332
     7.4513   7.6608   8.4676   9.7420  10.6462

     occupation numbers 
     1.0000   1.0000   1.0000   1.0000   1.0000   1.0000   1.0000   1.0000
     1.0000   1.0000   1.0000   1.0000   1.0000   1.0000   1.0000   1.0000
    -0.0000  -0.0000  -0.0000  -0.0000  -0.0000

          k = 1.1980 0.5152 0.1625 ( 12179 PWs)   bands (ev):

   -49.8617 -26.2626 -25.9006 -25.7524 -11.4931  -8.9329  -8.7260   0.5385
     1.0000   1.1044   1.3275   2.0309   2.6061   2.7271   3.5576   3.9039
     8.1188   8.2696   8.5094   9.5046  10.9754

     occupation numbers 
     1.0000   1.0000   1.0000   1.0000   1.0000   1.0000   1.0000   1.0000
     1.0000   1.0000   1.0000   1.0000   1.0000   1.0000   1.0000   1.0000
    -0.0000  -0.0000  -0.0000  -0.0000  -0.0000

          k = 1.3976 0.6869 0.1625 ( 12174 PWs)   bands (ev):

   -49.8645 -26.3118 -25.8462 -25.7603 -11.1445  -8.9322  -8.8459  -0.3412
     1.0699   1.2931   1.6201   1.7101   2.2997   2.8731   3.6272   3.7100
     7.3662   8.9635   9.1925   9.2244  11.3265

     occupation numbers 
     1.0000   1.0000   1.0000   1.0000   1.0000   1.0000   1.0000   1.0000
     1.0000   1.0000   1.0000   1.0000   1.0000   1.0000   1.0000   1.0000
    -0.0000  -0.0000  -0.0000  -0.0000  -0.0000

          k =-0.3993-0.8586 0.1625 ( 12181 PWs)   bands (ev):

   -49.8687 -26.3349 -25.7800 -25.7713 -11.0210  -9.0525  -8.9018  -0.6874
     1.0196   1.3694   1.6968   1.8868   2.5953   3.0588   3.5009   3.8502
     6.6052   8.8576   9.4500   9.5042  11.4126

     occupation numbers 
     1.0000   1.0000   1.0000   1.0000   1.0000   1.0000   1.0000   1.0000
     1.0000   1.0000   1.0000   1.0000   1.0000   1.0000   1.0000   1.0000
     0.8877  -0.0000  -0.0000  -0.0000  -0.0000

          k =-0.1997-0.6869 0.1625 ( 12157 PWs)   bands (ev):

   -49.8726 -26.3230 -25.7815 -25.7269 -11.2010  -9.2345  -8.8795  -0.3837
     0.8557   1.2562   2.0304   2.3347   2.8936   3.4670   3.5397   3.9530
     5.9747   8.7981   9.3034   9.3635  11.0031

     occupation numbers 
     1.0000   1.0000   1.0000   1.0000   1.0000   1.0000   1.0000   1.0000
     1.0000   1.0000   1.0000   1.0000   1.0000   1.0000   1.0000   1.0000
     1.0000  -0.0000  -0.0000  -0.0000  -0.0000

          k =-0.0000-0.5152 0.1625 ( 12150 PWs)   bands (ev):

   -49.8748 -26.2800 -25.7868 -25.7078 -11.5903  -9.3446  -8.8588   0.4554
     0.8648   1.2663   2.5992   2.6968   2.7649   3.5344   3.9586   3.9976
     5.6356   8.7252   8.8002   8.8596  10.5268

     occupation numbers 
     1.0000   1.0000   1.0000   1.0000   1.0000   1.0000   1.0000   1.0000
     1.0000   1.0000   1.0000   1.0000   1.0000   1.0000   1.0000   1.0000
     1.0000  -0.0000  -0.0000  -0.0000  -0.0000

          k = 0.1997-0.3435 0.1625 ( 12136 PWs)   bands (ev):

   -49.8745 -26.2218 -25.7853 -25.7304 -12.0041  -9.3518  -8.8466   0.9178
     1.5967   1.7318   2.3524   2.7859   3.1618   3.5583   3.7246   4.0399
     5.8916   8.0235   8.0306   8.7571  10.3879

     occupation numbers 
     1.0000   1.0000   1.0000   1.0000   1.0000   1.0000   1.0000   1.0000
     1.0000   1.0000   1.0000   1.0000   1.0000   1.0000   1.0000   1.0000
     1.0000  -0.0000  -0.0000  -0.0000  -0.0000

          k = 0.3993-0.1717 0.1625 ( 12150 PWs)   bands (ev):

   -49.8717 -26.1710 -25.7859 -25.7775 -12.2911  -9.2543  -8.8441   1.1097
     2.0654   2.2416   2.4991   2.6156   3.1082   3.2879   3.8500   4.0504
     6.4542   7.2130   7.3800   8.9053  10.2805

     occupation numbers 
     1.0000   1.0000   1.0000   1.0000   1.0000   1.0000   1.0000   1.0000
     1.0000   1.0000   1.0000   1.0000   1.0000   1.0000   1.0000   1.0000
     1.0019  -0.0000  -0.0000  -0.0000  -0.0000

          k = 0.7986 0.0000 0.2166 ( 12180 PWs)   bands (ev):

   -49.8639 -26.1437 -25.9054 -25.7567 -12.3414  -8.9688  -8.8044   0.9156
     1.3409   2.0092   2.0567   3.1648   3.4347   3.5070   3.7043   3.8134
     6.6866   6.7486   8.0479   9.5848   9.9372

     occupation numbers 
     1.0000   1.0000   1.0000   1.0000   1.0000   1.0000   1.0000   1.0000
     1.0000   1.0000   1.0000   1.0000   1.0000   1.0000   1.0000   1.0000
     0.1506  -0.0355  -0.0000  -0.0000  -0.0000

          k = 0.9983 0.1717 0.2166 ( 12176 PWs)   bands (ev):

   -49.8622 -26.1597 -25.9247 -25.7524 -12.2158  -8.9462  -8.7470   0.7099
     1.3417   1.8376   1.9532   2.8488   2.9829   3.4766   3.8518   3.8565
     6.8825   6.9276   8.4503   9.6533  10.1816

     occupation numbers 
     1.0000   1.0000   1.0000   1.0000   1.0000   1.0000   1.0000   1.0000
     1.0000   1.0000   1.0000   1.0000   1.0000   1.0000   1.0000   1.0000
    -0.0002  -0.0000  -0.0000  -0.0000  -0.0000

          k = 1.1980 0.3435 0.2166 ( 12170 PWs)   bands (ev):

   -49.8628 -26.2071 -25.9028 -25.7544 -11.9132  -8.9606  -8.7514   0.9317
     1.2810   1.4762   1.7649   2.1216   2.7498   2.9907   3.7349   3.9959
     7.4907   7.7061   8.1107   9.5187  10.6082

     occupation numbers 
     1.0000   1.0000   1.0000   1.0000   1.0000   1.0000   1.0000   1.0000
     1.0000   1.0000   1.0000   1.0000   1.0000   1.0000   1.0000   1.0000
    -0.0000  -0.0000  -0.0000  -0.0000  -0.0000

          k = 1.3976 0.5152 0.2166 ( 12163 PWs)   bands (ev):

   -49.8654 -26.2674 -25.8480 -25.7619 -11.5199  -8.9863  -8.8334   0.5150
     1.3101   1.3413   1.5762   1.8536   2.4286   2.9288   3.6723   3.8976
     7.3446   8.3822   8.5830   9.1624  11.1289

     occupation numbers 
     1.0000   1.0000   1.0000   1.0000   1.0000   1.0000   1.0000   1.0000
     1.0000   1.0000   1.0000   1.0000   1.0000   1.0000   1.0000   1.0000
    -0.0000  -0.0000  -0.0000  -0.0000  -0.0000

          k = 1.5973 0.6869 0.2166 ( 12180 PWs)   bands (ev):

   -49.8690 -26.3180 -25.7806 -25.7720 -11.1757  -9.0612  -8.9086  -0.3653
     1.0942   1.4526   1.6716   1.9562   2.5853   3.0816   3.4907   3.9296
     6.6068   8.8262   9.2326   9.2639  11.3508

     occupation numbers 
     1.0000   1.0000   1.0000   1.0000   1.0000   1.0000   1.0000   1.0000
     1.0000   1.0000   1.0000   1.0000   1.0000   1.0000   1.0000   1.0000
     0.8774  -0.0000  -0.0000  -0.0000  -0.0000

          k =-0.1997-0.8586 0.2166 ( 12166 PWs)   bands (ev):

   -49.8723 -26.3400 -25.7808 -25.7263 -11.0451  -9.1891  -8.9144  -0.7053
     0.7752   1.4009   1.8539   2.2581   2.8228   3.4308   3.5089   3.9708
     5.9972   8.8149   9.5304   9.5891  11.1229

     occupation numbers 
     1.0000   1.0000   1.0000   1.0000   1.0000   1.0000   1.0000   1.0000
     1.0000   1.0000   1.0000   1.0000   1.0000   1.0000   1.0000   1.0000
     1.0000  -0.0000  -0.0000  -0.0000  -0.0000

          k = 0.0000-0.6869 0.2166 ( 12148 PWs)   bands (ev):

   -49.8740 -26.3250 -25.7851 -25.7063 -11.2104  -9.2725  -8.8982  -0.3911
     0.7533   1.2605   2.3275   2.4622   2.6449   3.4652   3.9438   3.9720
     5.6737   8.8538   9.3012   9.4347  10.8397

     occupation numbers 
     1.0000   1.0000   1.0000   1.0000   1.0000   1.0000   1.0000   1.0000
     1.0000   1.0000   1.0000   1.0000   1.0000   1.0000   1.0000   1.0000
     1.0000  -0.0000  -0.0000  -0.0000  -0.0000

          k = 0.1997-0.5152 0.2166 ( 12155 PWs)   bands (ev):

   -49.8735 -26.2782 -25.7832 -25.7285 -11.5799  -9.2750  -8.8780   0.4632
     0.9960   1.4045   2.1846   2.4746   2.9440   3.5245   3.5715   4.0334
     5.9470   8.7085   8.7527   8.8133  10.8130

     occupation numbers 
     1.0000   1.0000   1.0000   1.0000   1.0000   1.0000   1.0000   1.0000
     1.0000   1.0000   1.0000   1.0000   1.0000   1.0000   1.0000   1.0000
     1.0000  -0.0000  -0.0000  -0.0000  -0.0000

          k = 0.3993-0.3435 0.2166 ( 12158 PWs)   bands (ev):

   -49.8709 -26.2173 -25.7843 -25.7758 -11.9759  -9.1989  -8.8596   1.1796
     1.6085   1.9034   2.0250   2.3372   2.6369   3.2688   3.7210   4.1066
     6.5103   7.8310   7.9477   8.8833  10.7813

     occupation numbers 
     1.0000   1.0000   1.0000   1.0000   1.0000   1.0000   1.0000   1.0000
     1.0000   1.0000   1.0000   1.0000   1.0000   1.0000   1.0000   1.0000
     1.0187  -0.0000  -0.0000  -0.0000  -0.0000

          k = 0.5990-0.1717 0.2166 ( 12169 PWs)   bands (ev):

   -49.8672 -26.1657 -25.8519 -25.7656 -12.2555  -9.0731  -8.8420   1.2590
     1.5477   1.9274   2.3081   2.6799   3.0178   3.2123   3.8018   4.0148
     7.0122   7.1769   7.2931   9.2531  10.2929

     occupation numbers 
     1.0000   1.0000   1.0000   1.0000   1.0000   1.0000   1.0000   1.0000
     1.0000   1.0000   1.0000   1.0000   1.0000   1.0000   1.0000   1.0000
    -0.0000  -0.0000  -0.0000  -0.0000  -0.0000

          k =-0.9983 0.0000-0.2708 ( 12202 PWs)   bands (ev):

   -49.8625 -26.1420 -25.9254 -25.7530 -12.3303  -8.9538  -8.7553   0.6880
     1.3297   1.9205   2.0325   3.3100   3.3311   3.4740   3.7560   3.9321
     6.5651   6.7185   8.4413   9.5251  10.0168

     occupation numbers 
     1.0000   1.0000   1.0000   1.0000   1.0000   1.0000   1.0000   1.0000
     1.0000   1.0000   1.0000   1.0000   1.0000   1.0000   1.0000   1.0000
     1.0275  -0.0027  -0.0000  -0.0000  -0.0000

          k =-0.7986 0.1717-0.2708 ( 12180 PWs)   bands (ev):

   -49.8636 -26.1613 -25.9047 -25.7561 -12.2267  -8.9748  -8.7808   0.9061
     1.2924   1.8717   2.1124   2.7912   3.0017   3.3942   3.7750   3.9605
     6.9231   6.9928   8.0751   9.5514  10.1443

     occupation numbers 
     1.0000   1.0000   1.0000   1.0000   1.0000   1.0000   1.0000   1.0000
     1.0000   1.0000   1.0000   1.0000   1.0000   1.0000   1.0000   1.0000
    -0.0000  -0.0000  -0.0000  -0.0000  -0.0000

          k =-0.5990 0.3435-0.2708 ( 12163 PWs)   bands (ev):

   -49.8664 -26.2116 -25.8501 -25.7640 -11.9412  -9.0372  -8.8350   1.2773
     1.4553   1.6375   1.8426   2.1239   2.5758   3.0030   3.7789   4.0597
     7.2798   7.6489   7.8231   9.1899  10.7764

     occupation numbers 
     1.0000   1.0000   1.0000   1.0000   1.0000   1.0000   1.0000   1.0000
     1.0000   1.0000   1.0000   1.0000   1.0000   1.0000   1.0000   1.0000
    -0.0000  -0.0000  -0.0000  -0.0000  -0.0000

          k =-0.3993 0.5152-0.2708 ( 12180 PWs)   bands (ev):

   -49.8698 -26.2734 -25.7822 -25.7737 -11.5530  -9.1266  -8.8826   0.4859
     1.2395   1.6189   1.7348   2.1377   2.5370   3.2082   3.5513   4.0390
     6.5713   8.5560   8.6632   8.8960  11.1529

     occupation numbers 
     1.0000   1.0000   1.0000   1.0000   1.0000   1.0000   1.0000   1.0000
     1.0000   1.0000   1.0000   1.0000   1.0000   1.0000   1.0000   1.0000
     1.0190  -0.0000  -0.0000  -0.0000  -0.0000

          k =-0.1997 0.6869-0.2708 ( 12164 PWs)   bands (ev):

   -49.8726 -26.3230 -25.7815 -25.7269 -11.2008  -9.2068  -8.9106  -0.3842
     0.8519   1.4228   1.9055   2.3179   2.8364   3.4420   3.5295   4.0000
     5.9871   8.8103   9.2939   9.3658  11.0630

     occupation numbers 
     1.0000   1.0000   1.0000   1.0000   1.0000   1.0000   1.0000   1.0000
     1.0000   1.0000   1.0000   1.0000   1.0000   1.0000   1.0000   1.0000
     1.0000  -0.0000  -0.0000  -0.0000  -0.0000

          k =-1.9966-0.8586-0.2708 ( 12134 PWs)   bands (ev):

   -49.8737 -26.3419 -25.7844 -25.7057 -11.0542  -9.2400  -8.9194  -0.7121
     0.6788   1.3366   2.1367   2.3797   2.6620   3.4385   3.9249   3.9691
     5.6883   8.8734   9.5311   9.6549  10.9507

     occupation numbers 
     1.0000   1.0000   1.0000   1.0000   1.0000   1.0000   1.0000   1.0000
     1.0000   1.0000   1.0000   1.0000   1.0000   1.0000   1.0000   1.0000
     1.0000  -0.0000  -0.0000  -0.0000  -0.0000

          k = 0.3993 0.3435 0.1083 ( 12146 PWs)   bands (ev):

   -49.8709 -26.2173 -25.7843 -25.7758 -11.9763  -9.2233  -8.8326   1.1532
     1.6273   1.8454   2.0497   2.3885   2.6572   3.2123   3.8165   4.0413
     6.4667   7.8415   7.9327   8.9603  10.7750

     occupation numbers 
     1.0000   1.0000   1.0000   1.0000   1.0000   1.0000   1.0000   1.0000
     1.0000   1.0000   1.0000   1.0000   1.0000   1.0000   1.0000   1.0000
     1.0035  -0.0000  -0.0000  -0.0000  -0.0000

          k = 0.5990 0.5152 0.1083 ( 12157 PWs)   bands (ev):

   -49.8654 -26.2674 -25.8480 -25.7619 -11.5203  -8.9793  -8.8426   0.5184
     1.3937   1.6050   1.6897   1.7700   2.0421   2.7368   3.7290   3.9923
     7.2636   8.4048   8.5696   9.3429  11.2986

     occupation numbers 
     1.0000   1.0000   1.0000   1.0000   1.0000   1.0000   1.0000   1.0000
     1.0000   1.0000   1.0000   1.0000   1.0000   1.0000   1.0000   1.0000
    -0.0000  -0.0000  -0.0000  -0.0000  -0.0000

          k = 0.7986 0.6869 0.1083 ( 12163 PWs)   bands (ev):

   -49.8609 -26.3067 -25.8987 -25.7507 -11.1191  -8.8694  -8.7502  -0.3209
     0.8157   1.1542   1.6966   1.7415   2.2507   2.3807   3.4401   3.9384
     8.0867   8.9191   9.1315   9.6475  11.3527

     occupation numbers 
     1.0000   1.0000   1.0000   1.0000   1.0000   1.0000   1.0000   1.0000
     1.0000   1.0000   1.0000   1.0000   1.0000   1.0000   1.0000   1.0000
    -0.0000  -0.0000  -0.0000  -0.0000  -0.0000

          k = 0.9983 0.8586 0.1083 ( 12158 PWs)   bands (ev):

   -49.8592 -26.3215 -25.9179 -25.7464 -10.9563  -8.8726  -8.6658  -0.6400
     0.5848   0.9546   1.7698   1.8790   1.9366   2.6115   3.2478   3.8953
     8.4886   9.1458   9.3405   9.7669  11.3774

     occupation numbers 
     1.0000   1.0000   1.0000   1.0000   1.0000   1.0000   1.0000   1.0000
     1.0000   1.0000   1.0000   1.0000   1.0000   1.0000   1.0000   1.0000
    -0.0000  -0.0000  -0.0000  -0.0000  -0.0000

          k = 0.0000 0.0000 0.1083 ( 12125 PWs)   bands (ev):

   -49.8771 -26.1590 -25.7913 -25.7117 -12.4465  -9.4794  -8.8227   0.6943
     2.5105   2.7008   2.8436   3.0044   3.4197   3.8588   4.1563   4.2638
     5.5405   7.1747   7.3392   8.7044   9.4186

     occupation numbers 
     1.0000   1.0000   1.0000   1.0000   1.0000   1.0000   1.0000   1.0000
     1.0000   1.0000   1.0000   1.0000   1.0000   1.0000   1.0000   1.0000
     1.0000  -0.0000  -0.0000  -0.0000  -0.0000

          k = 0.5990 0.3435 0.1625 ( 12175 PWs)   bands (ev):

   -49.8664 -26.2116 -25.8501 -25.7640 -11.9415  -9.0335  -8.8403   1.3508
     1.5382   1.7104   1.8814   2.0518   2.3822   2.8866   3.8170   4.0872
     7.2141   7.6786   7.8183   9.3267  10.8891

     occupation numbers 
     1.0000   1.0000   1.0000   1.0000   1.0000   1.0000   1.0000   1.0000
     1.0000   1.0000   1.0000   1.0000   1.0000   1.0000   1.0000   1.0000
    -0.0000  -0.0000  -0.0000  -0.0000  -0.0000

          k = 0.7986 0.5152 0.1625 ( 12175 PWs)   bands (ev):

   -49.8617 -26.2626 -25.9006 -25.7524 -11.4932  -8.8921  -8.7708   0.5399
     1.0960   1.1129   1.6066   1.8932   2.4091   2.4748   3.5788   4.0368
     8.0156   8.3193   8.5046   9.6701  11.1730

     occupation numbers 
     1.0000   1.0000   1.0000   1.0000   1.0000   1.0000   1.0000   1.0000
     1.0000   1.0000   1.0000   1.0000   1.0000   1.0000   1.0000   1.0000
    -0.0000  -0.0000  -0.0000  -0.0000  -0.0000

          k = 0.9983 0.6869 0.1625 ( 12172 PWs)   bands (ev):

   -49.8595 -26.3048 -25.9187 -25.7471 -11.1092  -8.8804  -8.6746  -0.3130
     0.6920   0.9189   1.6604   1.8993   2.1193   2.6455   3.2814   3.9455
     8.4846   8.8775   9.1079   9.7498  11.2972

     occupation numbers 
     1.0000   1.0000   1.0000   1.0000   1.0000   1.0000   1.0000   1.0000
     1.0000   1.0000   1.0000   1.0000   1.0000   1.0000   1.0000   1.0000
    -0.0000  -0.0000  -0.0000  -0.0000  -0.0000

          k = 1.1980 0.8586 0.1625 ( 12169 PWs)   bands (ev):

   -49.8606 -26.3234 -25.8980 -25.7501 -10.9659  -8.8765  -8.7253  -0.6470
     0.7019   1.1372   1.5593   1.7648   2.3102   2.4578   3.3689   3.8493
     8.1181   9.1659   9.3719   9.5974  11.3438

     occupation numbers 
     1.0000   1.0000   1.0000   1.0000   1.0000   1.0000   1.0000   1.0000
     1.0000   1.0000   1.0000   1.0000   1.0000   1.0000   1.0000   1.0000
    -0.0000  -0.0000  -0.0000  -0.0000  -0.0000

          k =-0.5990-0.6869 0.1625 ( 12176 PWs)   bands (ev):

   -49.8645 -26.3118 -25.8462 -25.7602 -11.1447  -8.9255  -8.8538  -0.3408
     1.1165   1.4265   1.6296   1.7223   2.0819   2.7664   3.6301   3.8084
     7.3233   8.9829   9.1785   9.3161  11.4289

     occupation numbers 
     1.0000   1.0000   1.0000   1.0000   1.0000   1.0000   1.0000   1.0000
     1.0000   1.0000   1.0000   1.0000   1.0000   1.0000   1.0000   1.0000
    -0.0000  -0.0000  -0.0000  -0.0000  -0.0000

          k =-0.3993-0.5152 0.1625 ( 12172 PWs)   bands (ev):

   -49.8698 -26.2734 -25.7822 -25.7737 -11.5534  -9.1556  -8.8511   0.4890
     1.2429   1.5117   1.8257   2.1283   2.5445   3.1979   3.6549   3.9632
     6.5334   8.5657   8.6460   8.9568  11.1506

     occupation numbers 
     1.0000   1.0000   1.0000   1.0000   1.0000   1.0000   1.0000   1.0000
     1.0000   1.0000   1.0000   1.0000   1.0000   1.0000   1.0000   1.0000
     1.0313  -0.0000  -0.0000  -0.0000  -0.0000

          k = 0.0000-0.1717 0.1625 ( 12102 PWs)   bands (ev):

   -49.8767 -26.1770 -25.7906 -25.7112 -12.3309  -9.4458  -8.8455   0.7738
     2.2118   2.5389   2.5663   3.2192   3.3036   3.6575   4.0427   4.1603
     5.5615   7.4566   7.5418   8.7509   9.7116

     occupation numbers 
     1.0000   1.0000   1.0000   1.0000   1.0000   1.0000   1.0000   1.0000
     1.0000   1.0000   1.0000   1.0000   1.0000   1.0000   1.0000   1.0000
     1.0000  -0.0000  -0.0000  -0.0000  -0.0000

          k = 0.1997 0.0000 0.1625 ( 12126 PWs)   bands (ev):

   -49.8757 -26.1574 -25.7877 -25.7325 -12.4352  -9.4097  -8.8449   0.8533
     2.3594   2.6381   2.8597   3.0914   3.1932   3.7431   3.9993   4.0811
     5.8497   7.1062   7.3163   8.7174   9.7085

     occupation numbers 
     1.0000   1.0000   1.0000   1.0000   1.0000   1.0000   1.0000   1.0000
     1.0000   1.0000   1.0000   1.0000   1.0000   1.0000   1.0000   1.0000
     1.0000  -0.0000  -0.0000  -0.0000  -0.0000

          k = 0.7986 0.3435 0.2166 ( 12174 PWs)   bands (ev):

   -49.8628 -26.2071 -25.9028 -25.7544 -11.9133  -8.9346  -8.7803   0.9783
     1.3709   1.5556   1.7681   2.0193   2.6311   2.8738   3.7426   4.0581
     7.4791   7.7057   8.0939   9.6384  10.7254

     occupation numbers 
     1.0000   1.0000   1.0000   1.0000   1.0000   1.0000   1.0000   1.0000
     1.0000   1.0000   1.0000   1.0000   1.0000   1.0000   1.0000   1.0000
    -0.0000  -0.0000  -0.0000  -0.0000  -0.0000

          k = 0.9983 0.5152 0.2166 ( 12175 PWs)   bands (ev):

   -49.8604 -26.2607 -25.9205 -25.7487 -11.4828  -8.9010  -8.6973   0.5427
     0.8646   0.9936   1.5538   1.8940   2.4441   2.7626   3.4306   4.0240
     8.2098   8.4773   8.4817   9.7405  11.0723

     occupation numbers 
     1.0000   1.0000   1.0000   1.0000   1.0000   1.0000   1.0000   1.0000
     1.0000   1.0000   1.0000   1.0000   1.0000   1.0000   1.0000   1.0000
    -0.0000  -0.0000  -0.0000  -0.0000  -0.0000

          k = 1.1980 0.6869 0.2166 ( 12177 PWs)   bands (ev):

   -49.8609 -26.3068 -25.8987 -25.7507 -11.1190  -8.8932  -8.7244  -0.3209
     0.7988   1.0946   1.4900   1.8415   2.3934   2.5392   3.4125   3.8676
     8.1204   8.9061   9.1343   9.5708  11.2620

     occupation numbers 
     1.0000   1.0000   1.0000   1.0000   1.0000   1.0000   1.0000   1.0000
     1.0000   1.0000   1.0000   1.0000   1.0000   1.0000   1.0000   1.0000
    -0.0000  -0.0000  -0.0000  -0.0000  -0.0000

          k = 1.3976 0.8586 0.2166 ( 12177 PWs)   bands (ev):

   -49.8642 -26.3286 -25.8455 -25.7596 -10.9908  -8.8873  -8.8758  -0.6651
     0.9935   1.3280   1.6409   1.6874   2.1567   2.8023   3.6296   3.6689
     7.3524   9.0998   9.3851   9.4336  11.4502

     occupation numbers 
     1.0000   1.0000   1.0000   1.0000   1.0000   1.0000   1.0000   1.0000
     1.0000   1.0000   1.0000   1.0000   1.0000   1.0000   1.0000   1.0000
    -0.0000  -0.0000  -0.0000  -0.0000  -0.0000

          k =-0.3993-0.6869 0.2166 ( 12179 PWs)   bands (ev):

   -49.8690 -26.3180 -25.7806 -25.7720 -11.1759  -9.0872  -8.8811  -0.3649
     1.0901   1.4811   1.6064   1.9879   2.5687   3.1025   3.5488   3.8795
     6.5859   8.8532   9.2265   9.2694  11.3509

     occupation numbers 
     1.0000   1.0000   1.0000   1.0000   1.0000   1.0000   1.0000   1.0000
     1.0000   1.0000   1.0000   1.0000   1.0000   1.0000   1.0000   1.0000
     0.9818  -0.0000  -0.0000  -0.0000  -0.0000

          k =-0.0000-0.3435 0.2166 ( 12157 PWs)   bands (ev):

   -49.8759 -26.2235 -25.7889 -25.7097 -12.0145  -9.3800  -8.8761   0.8808
     1.5855   1.7215   2.5855   2.9739   3.0161   3.4773   4.0207   4.0790
     5.5984   8.0492   8.1156   8.8122  10.2358

     occupation numbers 
     1.0000   1.0000   1.0000   1.0000   1.0000   1.0000   1.0000   1.0000
     1.0000   1.0000   1.0000   1.0000   1.0000   1.0000   1.0000   1.0000
     1.0000  -0.0000  -0.0000  -0.0000  -0.0000

          k = 0.1997-0.1717 0.2166 ( 12136 PWs)   bands (ev):

   -49.8754 -26.1753 -25.7870 -25.7319 -12.3196  -9.3721  -8.8714   0.9423
     2.2427   2.3622   2.5844   3.0362   3.1907   3.5681   3.8892   4.0603
     5.8785   7.3755   7.5205   8.7393  10.0072

     occupation numbers 
     1.0000   1.0000   1.0000   1.0000   1.0000   1.0000   1.0000   1.0000
     1.0000   1.0000   1.0000   1.0000   1.0000   1.0000   1.0000   1.0000
     1.0000  -0.0000  -0.0000  -0.0000  -0.0000

          k = 0.3993 0.0000 0.2166 ( 12146 PWs)   bands (ev):

   -49.8721 -26.1532 -25.7865 -25.7781 -12.4060  -9.2548  -8.8612   1.1150
     2.0815   2.2654   2.6823   2.9211   3.2853   3.5348   3.8675   3.9385
     6.4790   6.9469   7.1836   8.8415  10.0001

     occupation numbers 
     1.0000   1.0000   1.0000   1.0000   1.0000   1.0000   1.0000   1.0000
     1.0000   1.0000   1.0000   1.0000   1.0000   1.0000   1.0000   1.0000
     1.0062  -0.0000  -0.0000  -0.0000  -0.0000

          k = 0.9983 0.3435 0.2708 ( 12160 PWs)   bands (ev):

   -49.8614 -26.2053 -25.9228 -25.7507 -11.9026  -8.9261  -8.7249   0.7546
     1.3471   1.5286   1.7470   1.9114   2.7288   3.0573   3.6520   4.0358
     7.4560   7.6615   8.4642   9.7220  10.6680

     occupation numbers 
     1.0000   1.0000   1.0000   1.0000   1.0000   1.0000   1.0000   1.0000
     1.0000   1.0000   1.0000   1.0000   1.0000   1.0000   1.0000   1.0000
    -0.0000  -0.0000  -0.0000  -0.0000  -0.0000

          k = 1.1980 0.5152 0.2708 ( 12171 PWs)   bands (ev):

   -49.8617 -26.2626 -25.9006 -25.7524 -11.4931  -8.9153  -8.7457   0.5390
     1.0424   1.1053   1.4590   1.9613   2.5020   2.6236   3.5620   3.9771
     8.0678   8.2908   8.5069   9.5869  11.0789

     occupation numbers 
     1.0000   1.0000   1.0000   1.0000   1.0000   1.0000   1.0000   1.0000
     1.0000   1.0000   1.0000   1.0000   1.0000   1.0000   1.0000   1.0000
    -0.0000  -0.0000  -0.0000  -0.0000  -0.0000

          k = 1.3976 0.6869 0.2708 ( 12176 PWs)   bands (ev):

   -49.8645 -26.3118 -25.8462 -25.7602 -11.1446  -8.9290  -8.8497  -0.3410
     1.0875   1.3763   1.6384   1.6672   2.2143   2.8221   3.6268   3.7595
     7.3445   8.9523   9.1920   9.2865  11.3924

     occupation numbers 
     1.0000   1.0000   1.0000   1.0000   1.0000   1.0000   1.0000   1.0000
     1.0000   1.0000   1.0000   1.0000   1.0000   1.0000   1.0000   1.0000
    -0.0000  -0.0000  -0.0000  -0.0000  -0.0000

          k = 1.5973 0.8586 0.2708 ( 12178 PWs)   bands (ev):

   -49.8687 -26.3349 -25.7800 -25.7713 -11.0210  -9.0525  -8.9018  -0.6874
     1.0095   1.3889   1.6978   1.8771   2.6023   3.0324   3.5256   3.8446
     6.6055   8.8562   9.4587   9.4957  11.4120

     occupation numbers 
     1.0000   1.0000   1.0000   1.0000   1.0000   1.0000   1.0000   1.0000
     1.0000   1.0000   1.0000   1.0000   1.0000   1.0000   1.0000   1.0000
     0.8859  -0.0000  -0.0000  -0.0000  -0.0000

          k = 0.0000-0.5152 0.2708 ( 12146 PWs)   bands (ev):

   -49.8748 -26.2800 -25.7868 -25.7078 -11.5898  -9.2995  -8.9119   0.4510
     0.9433   1.4137   2.4762   2.6310   2.6973   3.4084   3.9379   4.1087
     5.6441   8.7135   8.8439   8.8764  10.6816

     occupation numbers 
     1.0000   1.0000   1.0000   1.0000   1.0000   1.0000   1.0000   1.0000
     1.0000   1.0000   1.0000   1.0000   1.0000   1.0000   1.0000   1.0000
     1.0000  -0.0000  -0.0000  -0.0000  -0.0000

          k = 0.1997-0.3435 0.2708 ( 12151 PWs)   bands (ev):

   -49.8745 -26.2218 -25.7853 -25.7304 -12.0036  -9.3043  -8.9025   1.0411
     1.5991   1.8184   2.2894   2.7777   2.9791   3.4704   3.6499   4.1608
     5.9221   8.0296   8.0320   8.7815  10.5215

     occupation numbers 
     1.0000   1.0000   1.0000   1.0000   1.0000   1.0000   1.0000   1.0000
     1.0000   1.0000   1.0000   1.0000   1.0000   1.0000   1.0000   1.0000
     1.0000  -0.0000  -0.0000  -0.0000  -0.0000

[...]

   -49.8767 -26.1770 -25.7907 -25.7112 -12.3297  -9.3139  -9.0012   1.1917
     2.2414   2.5422   2.6519   2.7563   3.2573   3.4958   3.9906   4.0051
     5.5877   7.4563   7.6234   8.9477  10.0650

     occupation numbers 
     1.0000   1.0000   1.0000   1.0000   1.0000   1.0000   1.0000   1.0000
     1.0000   1.0000   1.0000   1.0000   1.0000   1.0000   1.0000   1.0000
     1.0000  -0.0000  -0.0000  -0.0000  -0.0000

          k = 0.1997 0.0000 0.3791 ( 12139 PWs)   bands (ev):

   -49.8757 -26.1574 -25.7877 -25.7325 -12.4341  -9.2907  -8.9836   1.2413
     2.1423   2.6334   2.7898   3.0644   3.3208   3.5767   3.8687   3.9022
     5.9274   7.0882   7.4129   8.7969   9.8889

     occupation numbers 
     1.0000   1.0000   1.0000   1.0000   1.0000   1.0000   1.0000   1.0000
     1.0000   1.0000   1.0000   1.0000   1.0000   1.0000   1.0000   1.0000
     1.0000  -0.0000  -0.0000  -0.0000  -0.0000

          k =-1.9966-0.3435-0.1083 ( 12184 PWs)   bands (ev):

   -49.8759 -26.2235 -25.7890 -25.7097 -12.0134  -9.2345  -9.0414   1.2148
     1.6494   1.8988   2.3641   2.6836   2.9989   3.1686   3.8697   4.2724
     5.6189   8.0755   8.1145   8.9716  10.5842

     occupation numbers 
     1.0000   1.0000   1.0000   1.0000   1.0000   1.0000   1.0000   1.0000
     1.0000   1.0000   1.0000   1.0000   1.0000   1.0000   1.0000   1.0000
     1.0000  -0.0000  -0.0000  -0.0000  -0.0000

          k =-1.7969-0.1717-0.1083 ( 12146 PWs)   bands (ev):

   -49.8754 -26.1753 -25.7871 -25.7319 -12.3186  -9.2384  -9.0230   1.3586
     2.0006   2.4537   2.5404   2.9320   3.0950   3.4843   3.7559   4.0278
     5.9440   7.3673   7.5784   8.8312  10.1878

     occupation numbers 
     1.0000   1.0000   1.0000   1.0000   1.0000   1.0000   1.0000   1.0000
     1.0000   1.0000   1.0000   1.0000   1.0000   1.0000   1.0000   1.0000
     1.0000  -0.0000  -0.0000  -0.0000  -0.0000

          k =-1.5973 0.0000-0.1083 ( 12149 PWs)   bands (ev):

   -49.8721 -26.1532 -25.7865 -25.7782 -12.4053  -9.1783  -8.9449   1.3135
     1.7497   2.3137   2.6723   2.8538   3.5132   3.6416   3.7736   3.8625
     6.6018   6.8954   7.2216   8.6840   9.9273

     occupation numbers 
     1.0000   1.0000   1.0000   1.0000   1.0000   1.0000   1.0000   1.0000
     1.0000   1.0000   1.0000   1.0000   1.0000   1.0000   1.0000   1.0000
     0.9084  -0.0001  -0.0000  -0.0000  -0.0000

          k = 0.0000 1.2021-0.0542 ( 12199 PWs)   bands (ev):

   -49.8748 -26.2800 -25.7868 -25.7078 -11.5889  -9.1670  -9.0572   0.4456
     1.2464   1.4265   2.3374   2.6863   2.7002   2.9340   3.8367   4.3469
     5.6538   8.7195   8.8545   8.9635  10.8844

     occupation numbers 
     1.0000   1.0000   1.0000   1.0000   1.0000   1.0000   1.0000   1.0000
     1.0000   1.0000   1.0000   1.0000   1.0000   1.0000   1.0000   1.0000
     1.0000  -0.0000  -0.0000  -0.0000  -0.0000

          k =-1.7969-0.3435-0.0542 ( 12166 PWs)   bands (ev):

   -49.8745 -26.2218 -25.7854 -25.7304 -12.0027  -9.1614  -9.0588   1.3176
     1.7008   1.9017   1.9994   2.7102   2.9610   3.2679   3.5048   4.2868
     5.9704   8.0297   8.0333   8.8637  10.7000

     occupation numbers 
     1.0000   1.0000   1.0000   1.0000   1.0000   1.0000   1.0000   1.0000
     1.0000   1.0000   1.0000   1.0000   1.0000   1.0000   1.0000   1.0000
     1.0000  -0.0000  -0.0000  -0.0000  -0.0000

          k =-1.5973-0.1717-0.0542 ( 12148 PWs)   bands (ev):

   -49.8717 -26.1710 -25.7859 -25.7775 -12.2901  -9.1483  -8.9596   1.3834
     1.6455   2.2773   2.4932   2.6085   3.2859   3.3320   3.6937   4.0998
     6.6216   7.1677   7.4117   8.6902  10.2017

     occupation numbers 
     1.0000   1.0000   1.0000   1.0000   1.0000   1.0000   1.0000   1.0000
     1.0000   1.0000   1.0000   1.0000   1.0000   1.0000   1.0000   1.0000
     0.7648  -0.0000  -0.0000  -0.0000  -0.0000

          k =-1.3976 0.0000-0.0542 ( 12172 PWs)   bands (ev):

   -49.8676 -26.1479 -25.8526 -25.7663 -12.3698  -9.0942  -8.8327   1.1178
     1.2855   2.0539   2.5471   2.9607   3.6103   3.6316   3.7904   3.8724
     6.7297   6.9285   7.3814   8.8712   9.7811

     occupation numbers 
     1.0000   1.0000   1.0000   1.0000   1.0000   1.0000   1.0000   1.0000
     1.0000   1.0000   1.0000   1.0000   1.0000   1.0000   1.0000   1.0000
    -0.0243  -0.0000  -0.0000  -0.0000  -0.0000

          k =-0.0000 1.0304-0.0000 ( 12163 PWs)   bands (ev):

   -49.8740 -26.3250 -25.7851 -25.7063 -11.2097  -9.1854  -8.9950  -0.3925
     0.9796   1.1679   2.4611   2.5290   2.6881   2.7895   3.8702   4.2826
     5.6760   8.9258   9.3038   9.4333  10.9371

     occupation numbers 
     1.0000   1.0000   1.0000   1.0000   1.0000   1.0000   1.0000   1.0000
     1.0000   1.0000   1.0000   1.0000   1.0000   1.0000   1.0000   1.0000
     1.0000  -0.0000  -0.0000  -0.0000  -0.0000

          k = 0.1997 1.2021-0.0000 ( 12188 PWs)   bands (ev):

   -49.8735 -26.2782 -25.7832 -25.7285 -11.5789  -9.1015  -9.0656   0.4554
     1.3838   1.4009   2.0383   2.3982   2.9664   3.1260   3.4072   4.3096
     5.9919   8.6373   8.7786   8.9212  11.0203

     occupation numbers 
     1.0000   1.0000   1.0000   1.0000   1.0000   1.0000   1.0000   1.0000
     1.0000   1.0000   1.0000   1.0000   1.0000   1.0000   1.0000   1.0000
     1.0000  -0.0000  -0.0000  -0.0000  -0.0000

          k =-1.5973-0.3435-0.0000 ( 12148 PWs)   bands (ev):

   -49.8709 -26.2173 -25.7843 -25.7758 -11.9751  -9.0980  -8.9678   1.4104
     1.4360   1.8191   2.0995   2.1549   2.9353   3.1778   3.5198   4.2164
     6.6363   7.8344   7.9355   8.7399  10.7297

     occupation numbers 
     1.0000   1.0000   1.0000   1.0000   1.0000   1.0000   1.0000   1.0000
     1.0000   1.0000   1.0000   1.0000   1.0000   1.0000   1.0000   1.0000
     0.6272  -0.0000  -0.0000  -0.0000  -0.0000

          k =-1.3976-0.1717-0.0000 ( 12171 PWs)   bands (ev):

   -49.8673 -26.1657 -25.8519 -25.7657 -12.2550  -9.0808  -8.8301   1.1313
     1.2968   1.9219   2.4718   2.6977   3.1957   3.4617   3.7381   4.0483
     6.9841   7.1825   7.3932   8.8769  10.0507

     occupation numbers 
     1.0000   1.0000   1.0000   1.0000   1.0000   1.0000   1.0000   1.0000
     1.0000   1.0000   1.0000   1.0000   1.0000   1.0000   1.0000   1.0000
    -0.0000  -0.0000  -0.0000  -0.0000  -0.0000

          k =-1.1980 0.0000-0.0000 ( 12181 PWs)   bands (ev):

   -49.8639 -26.1437 -25.9054 -25.7567 -12.3411  -9.0227  -8.7431   0.8341
     1.0586   1.9906   2.3469   3.1131   3.4808   3.6382   3.7724   3.9454
     6.6635   6.6718   8.1279   9.3460   9.6566

     occupation numbers 
     1.0000   1.0000   1.0000   1.0000   1.0000   1.0000   1.0000   1.0000
     1.0000   1.0000   1.0000   1.0000   1.0000   1.0000   1.0000   1.0000
     0.3497   0.2712  -0.0000  -0.0000  -0.0000

          k = 0.0000 0.0000 0.4332 ( 12116 PWs)   bands (ev):

   -49.8771 -26.1590 -25.7914 -25.7117 -12.4449  -9.2844  -9.0517   1.3268
     2.2677   2.6753   2.7562   3.3217   3.3257   3.3413   3.8231   4.0679
     5.5791   7.1755   7.5025   8.9889   9.8532

     occupation numbers 
     1.0000   1.0000   1.0000   1.0000   1.0000   1.0000   1.0000   1.0000
     1.0000   1.0000   1.0000   1.0000   1.0000   1.0000   1.0000   1.0000
     1.0000  -0.0000  -0.0000  -0.0000  -0.0000

          k =-1.9966-0.1717-0.0542 ( 12155 PWs)   bands (ev):

   -49.8767 -26.1770 -25.7907 -25.7112 -12.3293  -9.2270  -9.0954   1.4094
     2.1643   2.5040   2.6300   2.6959   3.2344   3.4766   3.9580   3.9624
     5.5915   7.4562   7.6514   9.0084  10.1612

     occupation numbers 
     1.0000   1.0000   1.0000   1.0000   1.0000   1.0000   1.0000   1.0000
     1.0000   1.0000   1.0000   1.0000   1.0000   1.0000   1.0000   1.0000
     1.0000  -0.0000  -0.0000  -0.0000  -0.0000

          k =-1.7969 0.0000-0.0542 ( 12131 PWs)   bands (ev):

   -49.8757 -26.1574 -25.7877 -25.7325 -12.4338  -9.2197  -9.0606   1.4874
     1.8977   2.6912   2.7765   3.0108   3.4214   3.5520   3.7658   3.8571
     5.9433   7.0849   7.4400   8.8416   9.9192

     occupation numbers 
     1.0000   1.0000   1.0000   1.0000   1.0000   1.0000   1.0000   1.0000
     1.0000   1.0000   1.0000   1.0000   1.0000   1.0000   1.0000   1.0000
     1.0000  -0.0000  -0.0000  -0.0000  -0.0000

          k = 0.0000 1.3738 0.0000 ( 12161 PWs)   bands (ev):

   -49.8759 -26.2235 -25.7890 -25.7097 -12.0132  -9.1510  -9.1283   1.2860
     1.7090   1.9080   2.2390   2.7039   2.9940   3.1051   3.8428   4.2957
     5.6221   8.0831   8.1144   8.9988  10.6406

     occupation numbers 
     1.0000   1.0000   1.0000   1.0000   1.0000   1.0000   1.0000   1.0000
     1.0000   1.0000   1.0000   1.0000   1.0000   1.0000   1.0000   1.0000
     1.0000  -0.0000  -0.0000  -0.0000  -0.0000

          k =-1.7969-0.1717 0.0000 ( 12155 PWs)   bands (ev):

   -49.8754 -26.1753 -25.7871 -25.7319 -12.3184  -9.1862  -9.0782   1.5169
     1.8522   2.4880   2.5159   2.9550   3.0602   3.4736   3.7301   4.0187
     5.9532   7.3663   7.5876   8.8542  10.2089

     occupation numbers 
     1.0000   1.0000   1.0000   1.0000   1.0000   1.0000   1.0000   1.0000
     1.0000   1.0000   1.0000   1.0000   1.0000   1.0000   1.0000   1.0000
     1.0000  -0.0000  -0.0000  -0.0000  -0.0000

          k =-1.5973 0.0000 0.0000 ( 12141 PWs)   bands (ev):

   -49.8721 -26.1532 -25.7865 -25.7782 -12.4051  -9.1588  -8.9656   1.3997
     1.6319   2.3401   2.6642   2.8452   3.5903   3.6772   3.7044   3.8400
     6.6237   6.8882   7.2266   8.6653   9.9075

     occupation numbers 
     1.0000   1.0000   1.0000   1.0000   1.0000   1.0000   1.0000   1.0000
     1.0000   1.0000   1.0000   1.0000   1.0000   1.0000   1.0000   1.0000
     0.7465  -0.0001  -0.0000  -0.0000  -0.0000

          k =-1.9966-1.7173-0.5415 ( 12132 PWs)   bands (ev):

   -49.8771 -26.1590 -25.7914 -25.7117 -12.4447  -9.2202  -9.1199   1.4835
     2.1165   2.7012   2.7507   3.3028   3.3054   3.3846   3.7587   4.0466
     5.5791   7.1756   7.5213   9.0224   9.8944

     occupation numbers 
     1.0000   1.0000   1.0000   1.0000   1.0000   1.0000   1.0000   1.0000
     1.0000   1.0000   1.0000   1.0000   1.0000   1.0000   1.0000   1.0000
     1.0000  -0.0000  -0.0000  -0.0000  -0.0000

     the Fermi energy is     6.6487 ev

!    total energy              =    -534.96728310 Ry

     total all-electron energy =     -9636.857526 Ry
     estimated scf accuracy    <          6.7E-13 Ry
     smearing contrib. (-TS)   =      -0.00003666 Ry
     internal energy E=F+TS    =    -534.96724643 Ry

     The total energy is F=E-TS. E is the sum of the following terms:
     one-electron contribution =     -93.92645803 Ry
     hartree contribution      =      61.19557589 Ry
     xc contribution           =     -39.53705883 Ry
     ewald contribution        =    -135.48921389 Ry
     one-center paw contrib.   =    -327.21009158 Ry
      -> PAW hartree energy AE =      29.13266785 Ry
      -> PAW hartree energy PS =     -29.10258872 Ry
      -> PAW xc energy AE      =     -17.04418358 Ry
      -> PAW xc energy PS      =       7.42003659 Ry
      -> total E_H with PAW    =      61.22565502 Ry
      -> total E_XC with PAW   =     -49.16120582 Ry

     convergence has been achieved in  14 iterations

     Forces acting on atoms (cartesian axes, Ry/au):

     atom    1 type  1   force =     0.00000000    0.00000000    0.00000000
     atom    2 type  2   force =     0.00000000    0.00000000    0.03592520
     atom    3 type  2   force =     0.00000000    0.00000000   -0.03592520
     atom    4 type  3   force =     0.00000000    0.00000000    0.00000000
     The non-local contrib.  to forces
     atom    1 type  1   force =    -0.00000000   -0.00000000   -0.00000000
     atom    2 type  2   force =    -0.00000000   -0.00000000    0.06513426
     atom    3 type  2   force =     0.00000000    0.00000000   -0.06513426
     atom    4 type  3   force =     0.00000000    0.00000000    0.00000000
     The ionic contribution  to forces
     atom    1 type  1   force =    -0.00000000   -0.00000000    0.00000000
     atom    2 type  2   force =     0.00000001    0.00000000  -10.07462875
     atom    3 type  2   force =    -0.00000001   -0.00000000   10.07462875
     atom    4 type  3   force =    -0.00000000   -0.00000000    0.00000000
     The local contribution  to forces
     atom    1 type  1   force =     0.00000000    0.00000000    0.00000000
     atom    2 type  2   force =     0.00000002   -0.00000003   10.04392473
     atom    3 type  2   force =    -0.00000002    0.00000003  -10.04392473
     atom    4 type  3   force =     0.00000000    0.00000000    0.00000000
     The core correction contribution to forces
     atom    1 type  1   force =     0.00000000    0.00000000    0.00000000
     atom    2 type  2   force =    -0.00000000    0.00000000    0.00149565
     atom    3 type  2   force =     0.00000000   -0.00000000   -0.00149565
     atom    4 type  3   force =     0.00000000    0.00000000    0.00000000
     The Hubbard contrib.    to forces
     atom    1 type  1   force =     0.00000000    0.00000000    0.00000000
     atom    2 type  2   force =     0.00000000    0.00000000    0.00000000
     atom    3 type  2   force =     0.00000000    0.00000000    0.00000000
     atom    4 type  3   force =     0.00000000    0.00000000    0.00000000
     The SCF correction term to forces
     atom    1 type  1   force =     0.00000000   -0.00000000    0.00000000
     atom    2 type  2   force =     0.00000000   -0.00000000   -0.00000070
     atom    3 type  2   force =    -0.00000000    0.00000000    0.00000070
     atom    4 type  3   force =     0.00000000    0.00000000   -0.00000000

     Total force =     0.050806     Total SCF correction =     0.000001


     Computing stress (Cartesian axis) and pressure

          total   stress  (Ry/bohr**3)                   (kbar)     P=      -38.98
  -0.00028217  -0.00000000   0.00000000          -41.51       -0.00        0.00
   0.00000000  -0.00025574   0.00000000            0.00      -37.62        0.00
   0.00000000  -0.00000000  -0.00025703            0.00       -0.00      -37.81

     kinetic stress (kbar)  14783.87      0.00      0.00
                               -0.00  14765.41      0.00
                               -0.00      0.00  14800.25

     local   stress (kbar) -18935.48      0.00      0.00
                                0.00 -24122.86      0.00
                                0.00      0.00   4061.73

     nonloc. stress (kbar)   8008.42      0.00     -0.00
                               -0.00   7931.69      0.00
                               -0.00      0.00   8007.13

     hartree stress (kbar)   8387.14      0.00     -0.00
                                0.00  10080.54     -0.00
                               -0.00     -0.00  -2038.28

     exc-cor stress (kbar)  -1130.80      0.00     -0.00
                                0.00  -1122.24     -0.00
                               -0.00     -0.00  -1130.37

     corecor stress (kbar)  -2029.53      0.00      0.00
                                0.00  -2028.72      0.00
                                0.00      0.00  -2029.57

     ewald   stress (kbar)  -9125.13      0.00     -0.00
                                0.00  -5541.44     -0.00
                               -0.00     -0.00 -21708.70

     hubbard stress (kbar)      0.00      0.00      0.00
                                0.00      0.00      0.00
                                0.00      0.00      0.00

     DFT-D   stress (kbar)      0.00      0.00      0.00
                                0.00      0.00      0.00
                                0.00      0.00      0.00

     XDM     stress (kbar)      0.00      0.00      0.00
                                0.00      0.00      0.00
                                0.00      0.00      0.00

     dft-nl  stress (kbar)      0.00      0.00      0.00
                                0.00      0.00      0.00
                                0.00      0.00      0.00

     TS-vdW  stress (kbar)      0.00      0.00      0.00
                                0.00      0.00      0.00
                                0.00      0.00      0.00



     Writing output data file /zfs_data/gutierre/Scratch/Cl2NbO/smearing/10x10x10/0.006/tmp/Cl2NbO.save/
 
     init_run     :      4.31s CPU      4.52s WALL (       1 calls)
     electrons    :    117.88s CPU    121.11s WALL (       1 calls)
     forces       :      0.88s CPU      0.89s WALL (       1 calls)
     stress       :      2.15s CPU      2.19s WALL (       1 calls)

     Called by init_run:
     wfcinit      :      3.14s CPU      3.26s WALL (       1 calls)
     wfcinit:atom :      0.03s CPU      0.03s WALL (     171 calls)
     wfcinit:wfcr :      3.02s CPU      3.14s WALL (     171 calls)
     potinit      :      0.35s CPU      0.38s WALL (       1 calls)
     hinit0       :      0.47s CPU      0.49s WALL (       1 calls)

     Called by electrons:
     c_bands      :     93.66s CPU     96.21s WALL (      14 calls)
     sum_band     :     20.73s CPU     21.24s WALL (      14 calls)
     v_of_rho     :      1.36s CPU      1.39s WALL (      15 calls)
     v_h          :      0.11s CPU      0.11s WALL (      15 calls)
     v_xc         :      1.42s CPU      1.45s WALL (      17 calls)
     newd         :      1.16s CPU      1.18s WALL (      15 calls)
     PAW_pot      :      0.78s CPU      0.79s WALL (      15 calls)
     mix_rho      :      0.21s CPU      0.22s WALL (      14 calls)

     Called by c_bands:
     init_us_2    :      1.29s CPU      1.36s WALL (    5301 calls)
     cegterg      :     90.90s CPU     93.24s WALL (    2394 calls)

     Called by sum_band:
     sum_band:wei :      0.07s CPU      0.08s WALL (      14 calls)
     sum_band:loo :     19.33s CPU     19.79s WALL (      14 calls)
     sum_band:buf :      0.19s CPU      0.20s WALL (    2394 calls)
     sum_band:ini :      0.61s CPU      0.63s WALL (    2394 calls)
     sum_band:cal :      0.69s CPU      0.70s WALL (    2394 calls)
     sum_band:bec :      0.07s CPU      0.07s WALL (    2394 calls)
     addusdens    :      1.16s CPU      1.19s WALL (      14 calls)
     addusd:skk   :      0.01s CPU      0.01s WALL (      42 calls)
     addusd:dgemm :      0.31s CPU      0.33s WALL (      42 calls)
     addusd:qvan2 :      0.79s CPU      0.79s WALL (      42 calls)

     Called by *egterg:
     cdiaghg      :      4.84s CPU      5.22s WALL (    8611 calls)
     cegterg:over :      1.76s CPU      1.81s WALL (    6217 calls)
     cegterg:upda :      0.54s CPU      0.55s WALL (    6217 calls)
     cegterg:last :      0.82s CPU      0.84s WALL (    4582 calls)
     h_psi        :     83.49s CPU     85.46s WALL (    8782 calls)
     s_psi        :      0.60s CPU      0.61s WALL (    8782 calls)
     g_psi        :      0.11s CPU      0.11s WALL (    6217 calls)

     Called by h_psi:
     h_psi:calbec :      2.16s CPU      2.22s WALL (    8782 calls)
     vloc_psi     :     80.13s CPU     82.01s WALL (    8782 calls)
     add_vuspsi   :      0.89s CPU      0.92s WALL (    8782 calls)

     General routines
     calbec       :      2.96s CPU      3.04s WALL (   12031 calls)
     fft          :      1.16s CPU      1.18s WALL (     218 calls)
     ffts         :      0.02s CPU      0.02s WALL (      29 calls)
     fftw         :     87.66s CPU     89.81s WALL (  301606 calls)
     interpolate  :      0.11s CPU      0.11s WALL (      15 calls)
 
     Parallel routines
     fft_scatt_xy :     11.64s CPU     11.85s WALL (  301853 calls)
     fft_scatt_yz :     39.30s CPU     40.27s WALL (  301853 calls)

     PAW routines
     PAW_pot      :      0.78s CPU      0.79s WALL (      15 calls)
     PAW_symme    :      0.01s CPU      0.01s WALL (      29 calls)
 
     PWSCF        :   2m 6.37s CPU   2m11.84s WALL

 
   This run was terminated on:  17:39:45  18May2022            

=------------------------------------------------------------------------------=
   JOB DONE.
=------------------------------------------------------------------------------=
