MPI startup(): Warning: I_MPI_PMI_LIBRARY will be ignored since the hydra process manager was found
MPI startup(): Warning: I_MPI_PMI_LIBRARY will be ignored since the hydra process manager was found
MPI startup(): Warning: I_MPI_PMI_LIBRARY will be ignored since the hydra process manager was found
MPI startup(): Warning: I_MPI_PMI_LIBRARY will be ignored since the hydra process manager was found
MPI startup(): Warning: I_MPI_PMI_LIBRARY will be ignored since the hydra process manager was found
MPI startup(): Warning: I_MPI_PMI_LIBRARY will be ignored since the hydra process manager was found
MPI startup(): Warning: I_MPI_PMI_LIBRARY will be ignored since the hydra process manager was found
MPI startup(): Warning: I_MPI_PMI_LIBRARY will be ignored since the hydra process manager was found
MPI startup(): Warning: I_MPI_PMI_LIBRARY will be ignored since the hydra process manager was found
MPI startup(): Warning: I_MPI_PMI_LIBRARY will be ignored since the hydra process manager was found
MPI startup(): Warning: I_MPI_PMI_LIBRARY will be ignored since the hydra process manager was found
MPI startup(): Warning: I_MPI_PMI_LIBRARY will be ignored since the hydra process manager was found
MPI startup(): Warning: I_MPI_PMI_LIBRARY will be ignored since the hydra process manager was found
MPI startup(): Warning: I_MPI_PMI_LIBRARY will be ignored since the hydra process manager was found
MPI startup(): Warning: I_MPI_PMI_LIBRARY will be ignored since the hydra process manager was found
MPI startup(): Warning: I_MPI_PMI_LIBRARY will be ignored since the hydra process manager was found
MPI startup(): Warning: I_MPI_PMI_LIBRARY will be ignored since the hydra process manager was found
MPI startup(): Warning: I_MPI_PMI_LIBRARY will be ignored since the hydra process manager was found
MPI startup(): Warning: I_MPI_PMI_LIBRARY will be ignored since the hydra process manager was found
MPI startup(): Warning: I_MPI_PMI_LIBRARY will be ignored since the hydra process manager was found
MPI startup(): Warning: I_MPI_PMI_LIBRARY will be ignored since the hydra process manager was found
MPI startup(): Warning: I_MPI_PMI_LIBRARY will be ignored since the hydra process manager was found
MPI startup(): Warning: I_MPI_PMI_LIBRARY will be ignored since the hydra process manager was found
MPI startup(): Warning: I_MPI_PMI_LIBRARY will be ignored since the hydra process manager was found

     Program PWSCF v.6.7MaX starts on  1Aug2021 at 12:29:20 

     This program is part of the open-source Quantum ESPRESSO suite
     for quantum simulation of materials; please cite
         "P. Giannozzi et al., J. Phys.:Condens. Matter 21 395502 (2009);
         "P. Giannozzi et al., J. Phys.:Condens. Matter 29 465901 (2017);
          URL http://www.quantum-espresso.org", 
     in publications or presentations arising from this work. More details at
     http://www.quantum-espresso.org/quote

     Parallel version (MPI), running on    24 processors

     MPI processes distributed on     1 nodes
     R & G space division:  proc/nbgrp/npool/nimage =      24
     Waiting for input...
     Reading input from standard input

     Current dimensions of program PWSCF are:
     Max number of different atomic species (ntypx) = 10
     Max number of k-points (npk) =  40000
     Max angular momentum in pseudopotentials (lmaxx) =  3
     file Cr.rel-pbe-spn-kjpaw_psl.1.0.0.UPF: wavefunction(s)  3S 3P 3P 3D 3D renormalized
     file Si.rel-pbe-n-kjpaw_psl.1.0.0.UPF: wavefunction(s)  3S 3P 3P renormalized

     Subspace diagonalization in iterative solution of the eigenvalue problem:
     a serial algorithm will be used

     Message from routine setup:
     using ibrav=0 with symmetry is DISCOURAGED, use correct ibrav instead
 
     Parallelization info
     --------------------
     sticks:   dense  smooth     PW     G-vecs:    dense   smooth      PW
     Min         228      91     25                12702     3210     487
     Max         229      93     26                12704     3214     492
     Sum        5473    2201    621               304867    77053   11753
 


     bravais-lattice index     =            0
     lattice parameter (alat)  =       8.7475  a.u.
     unit-cell volume          =     669.3575 (a.u.)^3
     number of atoms/cell      =            8
     number of atomic types    =            2
     number of electrons       =        72.00
     number of Kohn-Sham states=           86
     kinetic-energy cutoff     =      90.0000  Ry
     charge density cutoff     =     900.0000  Ry
     scf convergence threshold =      1.0E-06
     mixing beta               =       0.7000
     number of iterations used =            8  plain     mixing
     Exchange-correlation= SLA  PW   PBX  PBC
                           (   1   4   3   4   0   0   0)
     Non magnetic calculation with spin-orbit


     celldm(1)=   8.747542  celldm(2)=   0.000000  celldm(3)=   0.000000
     celldm(4)=   0.000000  celldm(5)=   0.000000  celldm(6)=   0.000000

     crystal axes: (cart. coord. in units of alat)
               a(1) = (   1.000000   0.000000   0.000000 )  
               a(2) = (   0.000000   1.000000   0.000000 )  
               a(3) = (   0.000000   0.000000   1.000000 )  

     reciprocal axes: (cart. coord. in units 2 pi/alat)
               b(1) = (  1.000000  0.000000  0.000000 )  
               b(2) = (  0.000000  1.000000  0.000000 )  
               b(3) = (  0.000000  0.000000  1.000000 )  


     PseudoPot. # 1 for Cr read from file:
     ../../../../pseudo/Cr.rel-pbe-spn-kjpaw_psl.1.0.0.UPF
     MD5 check sum: 1e24e2b5251376a8b945118fca0c7981
     Pseudo is Projector augmented-wave + core cor, Zval = 14.0
     Generated using &quot;atomic&quot; code by A. Dal Corso  v.6.3
     Shape of augmentation charge: PSQ
     Using radial grid of 1183 points, 10 beta functions with: 
                l(1) =   0
                l(2) =   0
                l(3) =   1
                l(4) =   1
                l(5) =   1
                l(6) =   1
                l(7) =   2
                l(8) =   2
                l(9) =   2
               l(10) =   2
     Q(r) pseudized with 0 coefficients 


     PseudoPot. # 2 for Si read from file:
     ../../../../pseudo/Si.rel-pbe-n-kjpaw_psl.1.0.0.UPF
     MD5 check sum: d74f6caf6830ea4c2076867160cab1b0
     Pseudo is Projector augmented-wave + core cor, Zval =  4.0
     Generated using &quot;atomic&quot; code by A. Dal Corso  v.6.3
     Shape of augmentation charge: PSQ
     Using radial grid of 1141 points, 10 beta functions with: 
                l(1) =   0
                l(2) =   0
                l(3) =   1
                l(4) =   1
                l(5) =   1
                l(6) =   1
                l(7) =   2
                l(8) =   2
                l(9) =   2
               l(10) =   2
     Q(r) pseudized with 0 coefficients 


     atomic species   valence    mass     pseudopotential
        Cr            14.00    51.99600     Cr( 1.00)
        Si             4.00    28.08500     Si( 1.00)

     12 Sym. Ops. (no inversion) found ( 9 have fractional translation)


                                    s                        frac. trans.

      isym =  1     identity                                     

 cryst.   s( 1) = (     1          0          0      )
                  (     0          1          0      )
                  (     0          0          1      )

 cart.    s( 1) = (  1.0000000  0.0000000  0.0000000 )
                  (  0.0000000  1.0000000  0.0000000 )
                  (  0.0000000  0.0000000  1.0000000 )


      isym =  2     180 deg rotation - cart. axis [0,0,1]        

 cryst.   s( 2) = (    -1          0          0      )    f =(  0.5000000 )
                  (     0         -1          0      )       (  0.0000000 )
                  (     0          0          1      )       ( -0.5000000 )

 cart.    s( 2) = ( -1.0000000  0.0000000  0.0000000 )    f =(  0.5000000 )
                  (  0.0000000 -1.0000000  0.0000000 )       (  0.0000000 )
                  (  0.0000000  0.0000000  1.0000000 )       ( -0.5000000 )


      isym =  3     180 deg rotation - cart. axis [0,1,0]        

 cryst.   s( 3) = (    -1          0          0      )    f =(  0.0000000 )
                  (     0          1          0      )       ( -0.5000000 )
                  (     0          0         -1      )       (  0.5000000 )

 cart.    s( 3) = ( -1.0000000  0.0000000  0.0000000 )    f =(  0.0000000 )
                  (  0.0000000  1.0000000  0.0000000 )       ( -0.5000000 )
                  (  0.0000000  0.0000000 -1.0000000 )       (  0.5000000 )


      isym =  4     180 deg rotation - cart. axis [1,0,0]        

 cryst.   s( 4) = (     1          0          0      )    f =(  0.5000000 )
                  (     0         -1          0      )       (  0.5000000 )
                  (     0          0         -1      )       (  0.0000000 )

 cart.    s( 4) = (  1.0000000  0.0000000  0.0000000 )    f =(  0.5000000 )
                  (  0.0000000 -1.0000000  0.0000000 )       (  0.5000000 )
                  (  0.0000000  0.0000000 -1.0000000 )       (  0.0000000 )


      isym =  5     120 deg rotation - cart. axis [-1,-1,-1]     

 cryst.   s( 5) = (     0          0          1      )
                  (     1          0          0      )
                  (     0          1          0      )

 cart.    s( 5) = (  0.0000000  1.0000000  0.0000000 )
                  (  0.0000000  0.0000000  1.0000000 )
                  (  1.0000000  0.0000000  0.0000000 )


      isym =  6     120 deg rotation - cart. axis [-1,1,1]       

 cryst.   s( 6) = (     0          0         -1      )    f =(  0.0000000 )
                  (    -1          0          0      )       ( -0.5000000 )
                  (     0          1          0      )       (  0.5000000 )

 cart.    s( 6) = (  0.0000000 -1.0000000  0.0000000 )    f =(  0.0000000 )
                  (  0.0000000  0.0000000  1.0000000 )       ( -0.5000000 )
                  ( -1.0000000  0.0000000  0.0000000 )       (  0.5000000 )


      isym =  7     120 deg rotation - cart. axis [1,1,-1]       

 cryst.   s( 7) = (     0          0         -1      )    f =(  0.5000000 )
                  (     1          0          0      )       (  0.5000000 )
                  (     0         -1          0      )       (  0.0000000 )

 cart.    s( 7) = (  0.0000000  1.0000000  0.0000000 )    f =(  0.5000000 )
                  (  0.0000000  0.0000000 -1.0000000 )       (  0.5000000 )
                  ( -1.0000000  0.0000000  0.0000000 )       (  0.0000000 )


      isym =  8     120 deg rotation - cart. axis [1,-1,1]       

 cryst.   s( 8) = (     0          0          1      )    f =(  0.5000000 )
                  (    -1          0          0      )       (  0.0000000 )
                  (     0         -1          0      )       ( -0.5000000 )

 cart.    s( 8) = (  0.0000000 -1.0000000  0.0000000 )    f =(  0.5000000 )
                  (  0.0000000  0.0000000 -1.0000000 )       (  0.0000000 )
                  (  1.0000000  0.0000000  0.0000000 )       ( -0.5000000 )


      isym =  9     120 deg rotation - cart. axis [1,1,1]        

 cryst.   s( 9) = (     0          1          0      )
                  (     0          0          1      )
                  (     1          0          0      )

 cart.    s( 9) = (  0.0000000  0.0000000  1.0000000 )
                  (  1.0000000  0.0000000  0.0000000 )
                  (  0.0000000  1.0000000  0.0000000 )


      isym = 10     120 deg rotation - cart. axis [-1,1,-1]      

 cryst.   s(10) = (     0         -1          0      )    f =(  0.5000000 )
                  (     0          0         -1      )       (  0.5000000 )
                  (     1          0          0      )       (  0.0000000 )

 cart.    s(10) = (  0.0000000  0.0000000  1.0000000 )    f =(  0.5000000 )
                  ( -1.0000000  0.0000000  0.0000000 )       (  0.5000000 )
                  (  0.0000000 -1.0000000  0.0000000 )       (  0.0000000 )


      isym = 11     120 deg rotation - cart. axis [1,-1,-1]      

 cryst.   s(11) = (     0         -1          0      )    f =(  0.5000000 )
                  (     0          0          1      )       (  0.0000000 )
                  (    -1          0          0      )       ( -0.5000000 )

 cart.    s(11) = (  0.0000000  0.0000000 -1.0000000 )    f =(  0.5000000 )
                  ( -1.0000000  0.0000000  0.0000000 )       (  0.0000000 )
                  (  0.0000000  1.0000000  0.0000000 )       ( -0.5000000 )


      isym = 12     120 deg rotation - cart. axis [-1,-1,1]      

 cryst.   s(12) = (     0          1          0      )    f =(  0.0000000 )
                  (     0          0         -1      )       ( -0.5000000 )
                  (    -1          0          0      )       (  0.5000000 )

 cart.    s(12) = (  0.0000000  0.0000000 -1.0000000 )    f =(  0.0000000 )
                  (  1.0000000  0.0000000  0.0000000 )       ( -0.5000000 )
                  (  0.0000000 -1.0000000  0.0000000 )       (  0.5000000 )


   Cartesian axes

     site n.     atom                  positions (alat units)
         1           Cr  tau(   1) = (   0.8640000   0.3640000   0.1360000  )
         2           Cr  tau(   2) = (   0.3640000   0.1360000   0.8640000  )
         3           Cr  tau(   3) = (   0.1360000   0.8640000   0.3640000  )
         4           Cr  tau(   4) = (   0.6360000   0.6360000   0.6360000  )
         5           Si  tau(   5) = (   0.1540000   0.6540000   0.8460000  )
         6           Si  tau(   6) = (   0.6540000   0.8460000   0.1540000  )
         7           Si  tau(   7) = (   0.8460000   0.1540000   0.6540000  )
         8           Si  tau(   8) = (   0.3460000   0.3460000   0.3460000  )

   Crystallographic axes

     site n.     atom                  positions (cryst. coord.)
         1           Cr  tau(   1) = (  0.8640000  0.3640000  0.1360000  )
         2           Cr  tau(   2) = (  0.3640000  0.1360000  0.8640000  )
         3           Cr  tau(   3) = (  0.1360000  0.8640000  0.3640000  )
         4           Cr  tau(   4) = (  0.6360000  0.6360000  0.6360000  )
         5           Si  tau(   5) = (  0.1540000  0.6540000  0.8460000  )
         6           Si  tau(   6) = (  0.6540000  0.8460000  0.1540000  )
         7           Si  tau(   7) = (  0.8460000  0.1540000  0.6540000  )
         8           Si  tau(   8) = (  0.3460000  0.3460000  0.3460000  )

     number of k points=    76  Methfessel-Paxton smearing, width (Ry)=  0.0060
                       cart. coord. in units 2pi/alat
        k(    1) = (   0.0000000   0.0000000   0.0000000), wk =   0.0010000
        k(    2) = (   0.0000000   0.0000000   0.1000000), wk =   0.0060000
        k(    3) = (   0.0000000   0.0000000   0.2000000), wk =   0.0060000
        k(    4) = (   0.0000000   0.0000000   0.3000000), wk =   0.0060000
        k(    5) = (   0.0000000   0.0000000   0.4000000), wk =   0.0060000
        k(    6) = (   0.0000000   0.0000000  -0.5000000), wk =   0.0030000
        k(    7) = (   0.0000000   0.1000000   0.1000000), wk =   0.0120000
        k(    8) = (   0.0000000   0.1000000   0.2000000), wk =   0.0120000
        k(    9) = (   0.0000000   0.1000000   0.3000000), wk =   0.0120000
        k(   10) = (   0.0000000   0.1000000   0.4000000), wk =   0.0120000
        k(   11) = (   0.0000000   0.1000000  -0.5000000), wk =   0.0060000
        k(   12) = (   0.0000000   0.2000000   0.2000000), wk =   0.0120000
        k(   13) = (   0.0000000   0.2000000   0.3000000), wk =   0.0120000
        k(   14) = (   0.0000000   0.2000000   0.4000000), wk =   0.0120000
        k(   15) = (   0.0000000   0.2000000  -0.5000000), wk =   0.0060000
        k(   16) = (   0.0000000   0.3000000   0.3000000), wk =   0.0120000
        k(   17) = (   0.0000000   0.3000000   0.4000000), wk =   0.0120000
        k(   18) = (   0.0000000   0.3000000  -0.5000000), wk =   0.0060000
        k(   19) = (   0.0000000   0.4000000   0.4000000), wk =   0.0120000
        k(   20) = (   0.0000000   0.4000000  -0.5000000), wk =   0.0060000
        k(   21) = (   0.0000000  -0.5000000  -0.5000000), wk =   0.0030000
        k(   22) = (   0.1000000   0.1000000   0.1000000), wk =   0.0080000
        k(   23) = (   0.1000000   0.1000000   0.2000000), wk =   0.0240000
        k(   24) = (   0.1000000   0.1000000   0.3000000), wk =   0.0240000
        k(   25) = (   0.1000000   0.1000000   0.4000000), wk =   0.0240000
        k(   26) = (   0.1000000   0.1000000  -0.5000000), wk =   0.0120000
        k(   27) = (   0.1000000   0.2000000   0.2000000), wk =   0.0240000
        k(   28) = (   0.1000000   0.2000000   0.3000000), wk =   0.0240000
        k(   29) = (   0.1000000   0.2000000   0.4000000), wk =   0.0240000
        k(   30) = (   0.1000000   0.2000000  -0.5000000), wk =   0.0120000
        k(   31) = (   0.1000000   0.3000000   0.3000000), wk =   0.0240000
        k(   32) = (   0.1000000   0.3000000   0.4000000), wk =   0.0240000
        k(   33) = (   0.1000000   0.3000000  -0.5000000), wk =   0.0120000
        k(   34) = (   0.1000000   0.4000000   0.4000000), wk =   0.0240000
        k(   35) = (   0.1000000   0.4000000  -0.5000000), wk =   0.0120000
        k(   36) = (   0.1000000  -0.5000000  -0.5000000), wk =   0.0060000
        k(   37) = (   0.2000000   0.2000000   0.2000000), wk =   0.0080000
        k(   38) = (   0.2000000   0.2000000   0.3000000), wk =   0.0240000
        k(   39) = (   0.2000000   0.2000000   0.4000000), wk =   0.0240000
        k(   40) = (   0.2000000   0.2000000  -0.5000000), wk =   0.0120000
        k(   41) = (   0.2000000   0.3000000   0.3000000), wk =   0.0240000
        k(   42) = (   0.2000000   0.3000000   0.4000000), wk =   0.0240000
        k(   43) = (   0.2000000   0.3000000  -0.5000000), wk =   0.0120000
        k(   44) = (   0.2000000   0.4000000   0.4000000), wk =   0.0240000
        k(   45) = (   0.2000000   0.4000000  -0.5000000), wk =   0.0120000
        k(   46) = (   0.2000000  -0.5000000  -0.5000000), wk =   0.0060000
        k(   47) = (   0.3000000   0.3000000   0.3000000), wk =   0.0080000
        k(   48) = (   0.3000000   0.3000000   0.4000000), wk =   0.0240000
        k(   49) = (   0.3000000   0.3000000  -0.5000000), wk =   0.0120000
        k(   50) = (   0.3000000   0.4000000   0.4000000), wk =   0.0240000
        k(   51) = (   0.3000000   0.4000000  -0.5000000), wk =   0.0120000
        k(   52) = (   0.3000000  -0.5000000  -0.5000000), wk =   0.0060000
        k(   53) = (   0.4000000   0.4000000   0.4000000), wk =   0.0080000
        k(   54) = (   0.4000000   0.4000000  -0.5000000), wk =   0.0120000
        k(   55) = (   0.4000000  -0.5000000  -0.5000000), wk =   0.0060000
        k(   56) = (  -0.5000000  -0.5000000  -0.5000000), wk =   0.0010000
        k(   57) = (   0.0000000   0.2000000   0.1000000), wk =   0.0120000
        k(   58) = (   0.0000000   0.3000000   0.1000000), wk =   0.0120000
        k(   59) = (   0.0000000   0.4000000   0.1000000), wk =   0.0120000
        k(   60) = (   0.0000000  -0.5000000   0.1000000), wk =   0.0060000
        k(   61) = (   0.0000000   0.3000000   0.2000000), wk =   0.0120000
        k(   62) = (   0.0000000   0.4000000   0.2000000), wk =   0.0120000
        k(   63) = (   0.0000000  -0.5000000   0.2000000), wk =   0.0060000
        k(   64) = (   0.0000000   0.4000000   0.3000000), wk =   0.0120000
        k(   65) = (   0.0000000  -0.5000000   0.3000000), wk =   0.0060000
        k(   66) = (   0.0000000  -0.5000000   0.4000000), wk =   0.0060000
        k(   67) = (  -0.1000000   0.3000000   0.2000000), wk =   0.0240000
        k(   68) = (  -0.1000000   0.4000000   0.2000000), wk =   0.0240000
        k(   69) = (  -0.1000000  -0.5000000   0.2000000), wk =   0.0120000
        k(   70) = (  -0.1000000   0.4000000   0.3000000), wk =   0.0240000
        k(   71) = (  -0.1000000  -0.5000000   0.3000000), wk =   0.0120000
        k(   72) = (  -0.1000000  -0.5000000   0.4000000), wk =   0.0120000
        k(   73) = (  -0.2000000   0.4000000   0.3000000), wk =   0.0240000
        k(   74) = (  -0.2000000  -0.5000000   0.3000000), wk =   0.0120000
        k(   75) = (  -0.2000000  -0.5000000   0.4000000), wk =   0.0120000
        k(   76) = (  -0.3000000  -0.5000000   0.4000000), wk =   0.0120000

                       cryst. coord.
        k(    1) = (   0.0000000   0.0000000   0.0000000), wk =   0.0010000
        k(    2) = (   0.0000000   0.0000000   0.1000000), wk =   0.0060000
        k(    3) = (   0.0000000   0.0000000   0.2000000), wk =   0.0060000
        k(    4) = (   0.0000000   0.0000000   0.3000000), wk =   0.0060000
        k(    5) = (   0.0000000   0.0000000   0.4000000), wk =   0.0060000
        k(    6) = (   0.0000000   0.0000000  -0.5000000), wk =   0.0030000
        k(    7) = (   0.0000000   0.1000000   0.1000000), wk =   0.0120000
        k(    8) = (   0.0000000   0.1000000   0.2000000), wk =   0.0120000
        k(    9) = (   0.0000000   0.1000000   0.3000000), wk =   0.0120000
        k(   10) = (   0.0000000   0.1000000   0.4000000), wk =   0.0120000
        k(   11) = (   0.0000000   0.1000000  -0.5000000), wk =   0.0060000
        k(   12) = (   0.0000000   0.2000000   0.2000000), wk =   0.0120000
        k(   13) = (   0.0000000   0.2000000   0.3000000), wk =   0.0120000
        k(   14) = (   0.0000000   0.2000000   0.4000000), wk =   0.0120000
        k(   15) = (   0.0000000   0.2000000  -0.5000000), wk =   0.0060000
        k(   16) = (   0.0000000   0.3000000   0.3000000), wk =   0.0120000
        k(   17) = (   0.0000000   0.3000000   0.4000000), wk =   0.0120000
        k(   18) = (   0.0000000   0.3000000  -0.5000000), wk =   0.0060000
        k(   19) = (   0.0000000   0.4000000   0.4000000), wk =   0.0120000
        k(   20) = (   0.0000000   0.4000000  -0.5000000), wk =   0.0060000
        k(   21) = (   0.0000000  -0.5000000  -0.5000000), wk =   0.0030000
        k(   22) = (   0.1000000   0.1000000   0.1000000), wk =   0.0080000
        k(   23) = (   0.1000000   0.1000000   0.2000000), wk =   0.0240000
        k(   24) = (   0.1000000   0.1000000   0.3000000), wk =   0.0240000
        k(   25) = (   0.1000000   0.1000000   0.4000000), wk =   0.0240000
        k(   26) = (   0.1000000   0.1000000  -0.5000000), wk =   0.0120000
        k(   27) = (   0.1000000   0.2000000   0.2000000), wk =   0.0240000
        k(   28) = (   0.1000000   0.2000000   0.3000000), wk =   0.0240000
        k(   29) = (   0.1000000   0.2000000   0.4000000), wk =   0.0240000
        k(   30) = (   0.1000000   0.2000000  -0.5000000), wk =   0.0120000
        k(   31) = (   0.1000000   0.3000000   0.3000000), wk =   0.0240000
        k(   32) = (   0.1000000   0.3000000   0.4000000), wk =   0.0240000
        k(   33) = (   0.1000000   0.3000000  -0.5000000), wk =   0.0120000
        k(   34) = (   0.1000000   0.4000000   0.4000000), wk =   0.0240000
        k(   35) = (   0.1000000   0.4000000  -0.5000000), wk =   0.0120000
        k(   36) = (   0.1000000  -0.5000000  -0.5000000), wk =   0.0060000
        k(   37) = (   0.2000000   0.2000000   0.2000000), wk =   0.0080000
        k(   38) = (   0.2000000   0.2000000   0.3000000), wk =   0.0240000
        k(   39) = (   0.2000000   0.2000000   0.4000000), wk =   0.0240000
        k(   40) = (   0.2000000   0.2000000  -0.5000000), wk =   0.0120000
        k(   41) = (   0.2000000   0.3000000   0.3000000), wk =   0.0240000
        k(   42) = (   0.2000000   0.3000000   0.4000000), wk =   0.0240000
        k(   43) = (   0.2000000   0.3000000  -0.5000000), wk =   0.0120000
        k(   44) = (   0.2000000   0.4000000   0.4000000), wk =   0.0240000
        k(   45) = (   0.2000000   0.4000000  -0.5000000), wk =   0.0120000
        k(   46) = (   0.2000000  -0.5000000  -0.5000000), wk =   0.0060000
        k(   47) = (   0.3000000   0.3000000   0.3000000), wk =   0.0080000
        k(   48) = (   0.3000000   0.3000000   0.4000000), wk =   0.0240000
        k(   49) = (   0.3000000   0.3000000  -0.5000000), wk =   0.0120000
        k(   50) = (   0.3000000   0.4000000   0.4000000), wk =   0.0240000
        k(   51) = (   0.3000000   0.4000000  -0.5000000), wk =   0.0120000
        k(   52) = (   0.3000000  -0.5000000  -0.5000000), wk =   0.0060000
        k(   53) = (   0.4000000   0.4000000   0.4000000), wk =   0.0080000
        k(   54) = (   0.4000000   0.4000000  -0.5000000), wk =   0.0120000
        k(   55) = (   0.4000000  -0.5000000  -0.5000000), wk =   0.0060000
        k(   56) = (  -0.5000000  -0.5000000  -0.5000000), wk =   0.0010000
        k(   57) = (   0.0000000   0.2000000   0.1000000), wk =   0.0120000
        k(   58) = (   0.0000000   0.3000000   0.1000000), wk =   0.0120000
        k(   59) = (   0.0000000   0.4000000   0.1000000), wk =   0.0120000
        k(   60) = (   0.0000000  -0.5000000   0.1000000), wk =   0.0060000
        k(   61) = (   0.0000000   0.3000000   0.2000000), wk =   0.0120000
        k(   62) = (   0.0000000   0.4000000   0.2000000), wk =   0.0120000
        k(   63) = (   0.0000000  -0.5000000   0.2000000), wk =   0.0060000
        k(   64) = (   0.0000000   0.4000000   0.3000000), wk =   0.0120000
        k(   65) = (   0.0000000  -0.5000000   0.3000000), wk =   0.0060000
        k(   66) = (   0.0000000  -0.5000000   0.4000000), wk =   0.0060000
        k(   67) = (  -0.1000000   0.3000000   0.2000000), wk =   0.0240000
        k(   68) = (  -0.1000000   0.4000000   0.2000000), wk =   0.0240000
        k(   69) = (  -0.1000000  -0.5000000   0.2000000), wk =   0.0120000
        k(   70) = (  -0.1000000   0.4000000   0.3000000), wk =   0.0240000
        k(   71) = (  -0.1000000  -0.5000000   0.3000000), wk =   0.0120000
        k(   72) = (  -0.1000000  -0.5000000   0.4000000), wk =   0.0120000
        k(   73) = (  -0.2000000   0.4000000   0.3000000), wk =   0.0240000
        k(   74) = (  -0.2000000  -0.5000000   0.3000000), wk =   0.0120000
        k(   75) = (  -0.2000000  -0.5000000   0.4000000), wk =   0.0120000
        k(   76) = (  -0.3000000  -0.5000000   0.4000000), wk =   0.0120000

     Dense  grid:   304867 G-vectors     FFT dimensions: (  90,  90,  90)

     Smooth grid:    77053 G-vectors     FFT dimensions: (  54,  54,  54)

     Dynamical RAM for                 wfc:       1.06 MB

     Dynamical RAM for     wfc (w. buffer):      81.24 MB

     Dynamical RAM for           str. fact:       0.39 MB

     Dynamical RAM for           local pot:       0.00 MB

     Dynamical RAM for          nlocal pot:       1.67 MB

     Dynamical RAM for                qrad:      12.61 MB

     Dynamical RAM for          rho,v,vnew:       5.29 MB

     Dynamical RAM for               rhoin:       1.76 MB

     Dynamical RAM for            rho*nmix:      12.41 MB

     Dynamical RAM for           G-vectors:       0.75 MB

     Dynamical RAM for          h,s,v(r/c):       1.35 MB

     Dynamical RAM for          <psi|beta>:       0.71 MB

     Dynamical RAM for                 psi:       2.11 MB

     Dynamical RAM for                hpsi:       2.11 MB

     Dynamical RAM for                spsi:       2.11 MB

     Dynamical RAM for      wfcinit/wfcrot:       2.35 MB

     Dynamical RAM for           addusdens:     119.02 MB

     Dynamical RAM for          addusforce:     120.34 MB

     Dynamical RAM for         addusstress:     121.74 MB

     Estimated static dynamical RAM per process >     118.67 MB

     Estimated max dynamical RAM per process >     240.41 MB

     Estimated total dynamical RAM >       5.63 GB

     Initial potential from superposition of free atoms

     starting charge   71.99469, renormalised to   72.00000
     Starting wfcs are  112 randomized atomic wfcs
     Checking if some PAW data can be deallocated... 
       PAW data deallocated on   12 nodes for type:  1
       PAW data deallocated on   12 nodes for type:  2

     total cpu time spent up to now is       17.3 secs

     Self-consistent Calculation

     iteration #  1     ecut=    90.00 Ry     beta= 0.70
     Davidson diagonalization with overlap
     ethr =  1.00E-02,  avg # of iterations =  2.0

     Threshold (ethr) on eigenvalues was too large:
     Diagonalizing with lowered threshold

     Davidson diagonalization with overlap
     ethr =  2.10E-04,  avg # of iterations =  4.3

     total cpu time spent up to now is      111.9 secs

     total energy              =   -1180.30942172 Ry
     estimated scf accuracy    <       0.18951384 Ry

     iteration #  2     ecut=    90.00 Ry     beta= 0.70
     Davidson diagonalization with overlap
     ethr =  2.63E-04,  avg # of iterations =  3.2

     total cpu time spent up to now is      161.7 secs

     total energy              =   -1180.31390979 Ry
     estimated scf accuracy    <       0.08204155 Ry

     iteration #  3     ecut=    90.00 Ry     beta= 0.70
     Davidson diagonalization with overlap
     ethr =  1.14E-04,  avg # of iterations =  5.1

     total cpu time spent up to now is      223.0 secs

     total energy              =   -1180.32551275 Ry
     estimated scf accuracy    <       0.16472331 Ry

     iteration #  4     ecut=    90.00 Ry     beta= 0.70
     Davidson diagonalization with overlap
     ethr =  1.14E-04,  avg # of iterations =  4.0

     total cpu time spent up to now is      272.3 secs

     total energy              =   -1180.34949883 Ry
     estimated scf accuracy    <       0.00026880 Ry

     iteration #  5     ecut=    90.00 Ry     beta= 0.70
     Davidson diagonalization with overlap
     ethr =  3.73E-07,  avg # of iterations =  8.5

     total cpu time spent up to now is      350.7 secs

     total energy              =   -1180.35014724 Ry
     estimated scf accuracy    <       0.00037289 Ry

     iteration #  6     ecut=    90.00 Ry     beta= 0.70
     Davidson diagonalization with overlap
     ethr =  3.73E-07,  avg # of iterations =  3.4

     total cpu time spent up to now is      396.9 secs

     total energy              =   -1180.35020345 Ry
     estimated scf accuracy    <       0.00000305 Ry

     iteration #  7     ecut=    90.00 Ry     beta= 0.70
     Davidson diagonalization with overlap
     ethr =  4.24E-09,  avg # of iterations =  6.6

     total cpu time spent up to now is      466.5 secs

     total energy              =   -1180.35020609 Ry
     estimated scf accuracy    <       0.00002418 Ry

     iteration #  8     ecut=    90.00 Ry     beta= 0.70
     Davidson diagonalization with overlap
     ethr =  4.24E-09,  avg # of iterations =  5.0

     total cpu time spent up to now is      530.8 secs

     End of self-consistent calculation

          k = 0.0000 0.0000 0.0000 (  9771 PWs)   bands (ev):

   -56.5163 -56.5163 -56.4816 -56.4816 -56.4816 -56.4816 -56.4816 -56.4816
   -28.5823 -28.5823 -28.5742 -28.5742 -28.5742 -28.5742 -28.4850 -28.4850
   -27.6181 -27.6181 -27.6181 -27.6181 -27.5408 -27.5408 -27.5408 -27.5408
   -27.5316 -27.5316 -27.4506 -27.4506 -27.4506 -27.4506 -27.4486 -27.4486
     2.6990   2.6990   7.4572   7.4572   7.4572   7.4572   7.4663   7.4663
    10.5368  10.5368  10.5447  10.5447  10.5447  10.5447  11.9124  11.9124
    11.9124  11.9124  11.9235  11.9235  12.6036  12.6036  12.7722  12.7722
    12.7722  12.7722  13.1421  13.1421  13.1421  13.1421  13.1433  13.1433
    13.6703  13.6703  13.6703  13.6703  13.6742  13.6742  15.5511  15.5511
    15.5824  15.5824  15.5824  15.5824  15.7631  15.7631  15.7631  15.7631
    16.6661  16.6661  16.6964  16.6964  16.6964  16.6964

     occupation numbers 
     1.0000   1.0000   1.0000   1.0000   1.0000   1.0000   1.0000   1.0000
     1.0000   1.0000   1.0000   1.0000   1.0000   1.0000   1.0000   1.0000
     1.0000   1.0000   1.0000   1.0000   1.0000   1.0000   1.0000   1.0000
     1.0000   1.0000   1.0000   1.0000   1.0000   1.0000   1.0000   1.0000
     1.0000   1.0000   1.0000   1.0000   1.0000   1.0000   1.0000   1.0000
     1.0000   1.0000   1.0000   1.0000   1.0000   1.0000   1.0000   1.0000
     1.0000   1.0000   1.0000   1.0000   1.0000   1.0000   1.0000   1.0000
     1.0000   1.0000   1.0000   1.0000   1.0000   1.0000   1.0000   1.0000
     1.0000   1.0000   1.0000   1.0000   1.0000   1.0000  -0.0000  -0.0000
    -0.0000  -0.0000  -0.0000  -0.0000  -0.0000  -0.0000  -0.0000  -0.0000
    -0.0000  -0.0000  -0.0000  -0.0000  -0.0000  -0.0000

          k = 0.0000 0.0000 0.1000 (  9695 PWs)   bands (ev):

   -56.5156 -56.5156 -56.4847 -56.4847 -56.4814 -56.4814 -56.4793 -56.4793
   -28.5874 -28.5799 -28.5785 -28.5768 -28.5695 -28.5666 -28.4868 -28.4868
   -27.6291 -27.6238 -27.6106 -27.6054 -27.5475 -27.5454 -27.5382 -27.5363
   -27.5352 -27.5220 -27.4560 -27.4549 -27.4527 -27.4487 -27.4482 -27.4440
     2.7684   2.7684   6.9409   6.9447   7.4974   7.4985   7.8792   7.8875
    10.1583  10.1639  10.5885  10.5897  10.9493  10.9522  11.4187  11.4198
    11.7333  11.7366  12.4398  12.4554  12.5676  12.5719  12.7703  12.7779
    12.8728  12.8733  13.1163  13.1180  13.1667  13.1669  13.1941  13.1946
    13.5343  13.5405  13.6601  13.6612  13.8549  13.8555  15.4462  15.4682
    15.4698  15.4748  15.7030  15.7182  15.7354  15.7499  15.7537  15.7667
    16.5151  16.5332  16.6531  16.6560  16.8464  16.8667

     occupation numbers 
     1.0000   1.0000   1.0000   1.0000   1.0000   1.0000   1.0000   1.0000
     1.0000   1.0000   1.0000   1.0000   1.0000   1.0000   1.0000   1.0000
     1.0000   1.0000   1.0000   1.0000   1.0000   1.0000   1.0000   1.0000
     1.0000   1.0000   1.0000   1.0000   1.0000   1.0000   1.0000   1.0000
     1.0000   1.0000   1.0000   1.0000   1.0000   1.0000   1.0000   1.0000
     1.0000   1.0000   1.0000   1.0000   1.0000   1.0000   1.0000   1.0000
     1.0000   1.0000   1.0000   1.0000   1.0000   1.0000   1.0000   1.0000
     1.0000   1.0000   1.0000   1.0000   1.0000   1.0000   1.0000   1.0000
     1.0000   1.0000   1.0000   1.0000   1.0000   1.0000  -0.0000  -0.0000
    -0.0000  -0.0000  -0.0000  -0.0000  -0.0000  -0.0000  -0.0000  -0.0000
    -0.0000  -0.0000  -0.0000  -0.0000  -0.0000  -0.0000

          k = 0.0000 0.0000 0.2000 (  9663 PWs)   bands (ev):

   -56.5137 -56.5137 -56.4886 -56.4886 -56.4808 -56.4808 -56.4779 -56.4779
   -28.5909 -28.5834 -28.5798 -28.5783 -28.5605 -28.5572 -28.4922 -28.4920
   -27.6372 -27.6288 -27.6010 -27.5931 -27.5549 -27.5480 -27.5393 -27.5348
   -27.5317 -27.5108 -27.4641 -27.4598 -27.4567 -27.4490 -27.4472 -27.4408
     2.9747   2.9747   6.3261   6.3282   7.6082   7.6106   8.2282   8.2380
     9.8573   9.8605  10.7051  10.7085  10.9860  10.9917  11.3751  11.3811
    11.3908  11.3910  12.3763  12.3889  12.8262  12.8326  12.8461  12.8706
    13.0741  13.0797  13.1036  13.1066  13.2162  13.2199  13.2369  13.2370
    13.5728  13.5840  13.6062  13.6100  14.0032  14.0040  15.2038  15.2278
    15.3991  15.4036  15.6615  15.6737  15.7410  15.7619  15.8236  15.8484
    16.3561  16.3709  16.5587  16.5680  17.0735  17.0941

     occupation numbers 
     1.0000   1.0000   1.0000   1.0000   1.0000   1.0000   1.0000   1.0000
     1.0000   1.0000   1.0000   1.0000   1.0000   1.0000   1.0000   1.0000
     1.0000   1.0000   1.0000   1.0000   1.0000   1.0000   1.0000   1.0000
     1.0000   1.0000   1.0000   1.0000   1.0000   1.0000   1.0000   1.0000
     1.0000   1.0000   1.0000   1.0000   1.0000   1.0000   1.0000   1.0000
     1.0000   1.0000   1.0000   1.0000   1.0000   1.0000   1.0000   1.0000
     1.0000   1.0000   1.0000   1.0000   1.0000   1.0000   1.0000   1.0000
     1.0000   1.0000   1.0000   1.0000   1.0000   1.0000   1.0000   1.0000
     1.0000   1.0000   1.0000   1.0000   1.0000   1.0000  -0.0001  -0.0000
    -0.0000  -0.0000  -0.0000  -0.0000  -0.0000  -0.0000  -0.0000  -0.0000
    -0.0000  -0.0000  -0.0000  -0.0000  -0.0000  -0.0000

          k = 0.0000 0.0000 0.3000 (  9638 PWs)   bands (ev):

   -56.5108 -56.5108 -56.4930 -56.4930 -56.4799 -56.4799 -56.4773 -56.4773
   -28.5925 -28.5851 -28.5833 -28.5798 -28.5491 -28.5463 -28.5006 -28.5002
   -27.6419 -27.6336 -27.5894 -27.5836 -27.5621 -27.5474 -27.5385 -27.5330
   -27.5311 -27.4992 -27.4754 -27.4622 -27.4617 -27.4506 -27.4464 -27.4398
     3.3118   3.3118   5.6499   5.6509   7.7873   7.7909   8.4735   8.4835
     9.6692   9.6696  10.7387  10.7437  10.7937  10.8049  11.0723  11.0789
    11.7456  11.7472  12.1736  12.1895  12.8829  12.9003  12.9089  12.9167
    13.1300  13.1354  13.1506  13.1567  13.2592  13.2614  13.3806  13.3811
    13.4573  13.4623  13.8459  13.8499  14.0773  14.0793  14.9573  14.9898
    15.3626  15.3680  15.5654  15.5827  15.7373  15.7643  15.8571  15.8808
    16.2266  16.2420  16.4215  16.4345  17.2687  17.2875

     occupation numbers 
     1.0000   1.0000   1.0000   1.0000   1.0000   1.0000   1.0000   1.0000
     1.0000   1.0000   1.0000   1.0000   1.0000   1.0000   1.0000   1.0000
     1.0000   1.0000   1.0000   1.0000   1.0000   1.0000   1.0000   1.0000
     1.0000   1.0000   1.0000   1.0000   1.0000   1.0000   1.0000   1.0000
     1.0000   1.0000   1.0000   1.0000   1.0000   1.0000   1.0000   1.0000
     1.0000   1.0000   1.0000   1.0000   1.0000   1.0000   1.0000   1.0000
     1.0000   1.0000   1.0000   1.0000   1.0000   1.0000   1.0000   1.0000
     1.0000   1.0000   1.0000   1.0000   1.0000   1.0000   1.0000   1.0000
     1.0000   1.0000   1.0000   1.0000   1.0000   1.0000   0.5198   0.2068
    -0.0000  -0.0000  -0.0000  -0.0000  -0.0000  -0.0000  -0.0000  -0.0000
    -0.0000  -0.0000  -0.0000  -0.0000  -0.0000  -0.0000

          k = 0.0000 0.0000 0.4000 (  9654 PWs)   bands (ev):

   -56.5069 -56.5069 -56.4977 -56.4977 -56.4789 -56.4789 -56.4774 -56.4774
   -28.5921 -28.5869 -28.5851 -28.5819 -28.5366 -28.5344 -28.5114 -28.5105
   -27.6433 -27.6382 -27.5797 -27.5739 -27.5685 -27.5477 -27.5438 -27.5337
   -27.5204 -27.4893 -27.4879 -27.4692 -27.4602 -27.4534 -27.4449 -27.4407
     3.7688   3.7688   4.9679   4.9684   8.0222   8.0271   8.4870   8.4954
     9.7180   9.7214  10.4138  10.4155  10.7858  10.7991  11.0146  11.0190
    12.0856  12.0878  12.1327  12.1464  12.7237  12.7389  12.9194  12.9321
    13.0705  13.0767  13.1902  13.1934  13.2339  13.2374  13.2946  13.2980
    13.5918  13.5930  13.9161  13.9204  14.2944  14.3113  14.7681  14.8027
    15.3590  15.3723  15.4726  15.4918  15.7601  15.7900  15.8394  15.8656
    16.1532  16.1687  16.2728  16.2866  17.3793  17.3870

     occupation numbers 
     1.0000   1.0000   1.0000   1.0000   1.0000   1.0000   1.0000   1.0000
     1.0000   1.0000   1.0000   1.0000   1.0000   1.0000   1.0000   1.0000
     1.0000   1.0000   1.0000   1.0000   1.0000   1.0000   1.0000   1.0000
     1.0000   1.0000   1.0000   1.0000   1.0000   1.0000   1.0000   1.0000
     1.0000   1.0000   1.0000   1.0000   1.0000   1.0000   1.0000   1.0000
     1.0000   1.0000   1.0000   1.0000   1.0000   1.0000   1.0000   1.0000
     1.0000   1.0000   1.0000   1.0000   1.0000   1.0000   1.0000   1.0000
     1.0000   1.0000   1.0000   1.0000   1.0000   1.0000   1.0000   1.0000
     1.0000   1.0000   1.0000   1.0000   1.0000   1.0000   1.0023   1.0104
    -0.0000  -0.0000  -0.0000  -0.0000  -0.0000  -0.0000  -0.0000  -0.0000
    -0.0000  -0.0000  -0.0000  -0.0000  -0.0000  -0.0000

          k = 0.0000 0.0000-0.5000 (  9658 PWs)   bands (ev):

   -56.5025 -56.5025 -56.5025 -56.5025 -56.4780 -56.4780 -56.4780 -56.4780
   -28.5900 -28.5900 -28.5839 -28.5839 -28.5237 -28.5237 -28.5222 -28.5222
   -27.6417 -27.6417 -27.5742 -27.5742 -27.5604 -27.5604 -27.5386 -27.5386
   -27.5049 -27.5049 -27.4779 -27.4779 -27.4570 -27.4570 -27.4427 -27.4427
     4.3290   4.3290   4.3292   4.3292   8.2826   8.2826   8.2891   8.2891
    10.0175  10.0175  10.0215  10.0215  10.8982  10.8982  10.9095  10.9095
    12.2473  12.2473  12.2539  12.2539  12.6844  12.6844  12.6968  12.6968
    13.1414  13.1414  13.1418  13.1418  13.2359  13.2359  13.2396  13.2396
    13.7825  13.7825  13.7856  13.7856  14.5660  14.5660  14.5945  14.5945
    15.3993  15.3993  15.4171  15.4171  15.8045  15.8045  15.8342  15.8342
    16.1659  16.1659  16.1796  16.1796  17.5421  17.5468

     occupation numbers 
     1.0000   1.0000   1.0000   1.0000   1.0000   1.0000   1.0000   1.0000
     1.0000   1.0000   1.0000   1.0000   1.0000   1.0000   1.0000   1.0000
     1.0000   1.0000   1.0000   1.0000   1.0000   1.0000   1.0000   1.0000
     1.0000   1.0000   1.0000   1.0000   1.0000   1.0000   1.0000   1.0000
     1.0000   1.0000   1.0000   1.0000   1.0000   1.0000   1.0000   1.0000
     1.0000   1.0000   1.0000   1.0000   1.0000   1.0000   1.0000   1.0000
     1.0000   1.0000   1.0000   1.0000   1.0000   1.0000   1.0000   1.0000
     1.0000   1.0000   1.0000   1.0000   1.0000   1.0000   1.0000   1.0000
     1.0000   1.0000   1.0000   1.0000   1.0000   1.0000   1.0000   1.0000
    -0.0000  -0.0000  -0.0000  -0.0000  -0.0000  -0.0000  -0.0000  -0.0000
    -0.0000  -0.0000  -0.0000  -0.0000  -0.0000  -0.0000

          k = 0.0000 0.1000 0.1000 (  9675 PWs)   bands (ev):

   -56.5150 -56.5150 -56.4859 -56.4859 -56.4816 -56.4816 -56.4785 -56.4785
   -28.5892 -28.5824 -28.5773 -28.5759 -28.5675 -28.5636 -28.4886 -28.4886
   -27.6311 -27.6278 -27.6050 -27.6016 -27.5502 -27.5458 -27.5405 -27.5395
   -27.5300 -27.5171 -27.4594 -27.4586 -27.4538 -27.4492 -27.4460 -27.4420
     2.8375   2.8375   6.8021   6.8073   7.3670   7.3705   8.0834   8.0895
    10.0373  10.0428  10.6305  10.6343  11.0124  11.0168  11.1732  11.1750
    11.8336  11.8349  12.4249  12.4397  12.6000  12.6064  12.8436  12.8519
    12.9296  12.9362  13.1398  13.1422  13.1598  13.1634  13.2328  13.2352
    13.4830  13.4882  13.6670  13.6760  13.9346  13.9385  15.3905  15.3994
    15.4504  15.4543  15.6565  15.6655  15.7352  15.7473  15.7732  15.7898
    16.4357  16.4543  16.6626  16.6682  16.8857  16.9123

     occupation numbers 
     1.0000   1.0000   1.0000   1.0000   1.0000   1.0000   1.0000   1.0000
     1.0000   1.0000   1.0000   1.0000   1.0000   1.0000   1.0000   1.0000
     1.0000   1.0000   1.0000   1.0000   1.0000   1.0000   1.0000   1.0000
     1.0000   1.0000   1.0000   1.0000   1.0000   1.0000   1.0000   1.0000
     1.0000   1.0000   1.0000   1.0000   1.0000   1.0000   1.0000   1.0000
     1.0000   1.0000   1.0000   1.0000   1.0000   1.0000   1.0000   1.0000
     1.0000   1.0000   1.0000   1.0000   1.0000   1.0000   1.0000   1.0000
     1.0000   1.0000   1.0000   1.0000   1.0000   1.0000   1.0000   1.0000
     1.0000   1.0000   1.0000   1.0000   1.0000   1.0000  -0.0000  -0.0000
    -0.0000  -0.0000  -0.0000  -0.0000  -0.0000  -0.0000  -0.0000  -0.0000
    -0.0000  -0.0000  -0.0000  -0.0000  -0.0000  -0.0000

          k = 0.0000 0.1000 0.2000 (  9636 PWs)   bands (ev):

   -56.5132 -56.5132 -56.4890 -56.4890 -56.4812 -56.4812 -56.4776 -56.4776
   -28.5915 -28.5849 -28.5778 -28.5772 -28.5599 -28.5562 -28.4938 -28.4938
   -27.6368 -27.6306 -27.5975 -27.5916 -27.5551 -27.5491 -27.5412 -27.5390
   -27.5267 -27.5073 -27.4681 -27.4631 -27.4565 -27.4510 -27.4440 -27.4390
     3.0429   3.0429   6.3259   6.3290   7.3971   7.3997   8.3525   8.3587
     9.8332   9.8363  10.6459  10.6488  10.7646  10.7686  11.4219  11.4235
    11.6078  11.6126  12.3954  12.4036  12.6326  12.6361  13.0051  13.0161
    13.0978  13.1042  13.1348  13.1360  13.2135  13.2162  13.2996  13.3019
    13.4891  13.4946  13.7053  13.7187  14.0451  14.0516  15.2130  15.2363
    15.3442  15.3578  15.5932  15.6083  15.7088  15.7268  15.8267  15.8505
    16.3031  16.3202  16.5833  16.5943  17.0599  17.0895

     occupation numbers 
     1.0000   1.0000   1.0000   1.0000   1.0000   1.0000   1.0000   1.0000
     1.0000   1.0000   1.0000   1.0000   1.0000   1.0000   1.0000   1.0000
     1.0000   1.0000   1.0000   1.0000   1.0000   1.0000   1.0000   1.0000
     1.0000   1.0000   1.0000   1.0000   1.0000   1.0000   1.0000   1.0000
     1.0000   1.0000   1.0000   1.0000   1.0000   1.0000   1.0000   1.0000
     1.0000   1.0000   1.0000   1.0000   1.0000   1.0000   1.0000   1.0000
     1.0000   1.0000   1.0000   1.0000   1.0000   1.0000   1.0000   1.0000
     1.0000   1.0000   1.0000   1.0000   1.0000   1.0000   1.0000   1.0000
     1.0000   1.0000   1.0000   1.0000   1.0000   1.0000  -0.0001  -0.0000
    -0.0000  -0.0000  -0.0000  -0.0000  -0.0000  -0.0000  -0.0000  -0.0000
    -0.0000  -0.0000  -0.0000  -0.0000  -0.0000  -0.0000

          k = 0.0000 0.1000 0.3000 (  9642 PWs)   bands (ev):

   -56.5102 -56.5102 -56.4931 -56.4931 -56.4804 -56.4804 -56.4773 -56.4773
   -28.5923 -28.5860 -28.5811 -28.5787 -28.5492 -28.5463 -28.5021 -28.5018
   -27.6407 -27.6336 -27.5880 -27.5826 -27.5618 -27.5487 -27.5420 -27.5351
   -27.5273 -27.4966 -27.4793 -27.4660 -27.4601 -27.4538 -27.4424 -27.4376
     3.3783   3.3784   5.6884   5.6899   7.5764   7.5782   8.5077   8.5134
     9.6889   9.6903  10.3947  10.3991  10.9283  10.9299  11.2920  11.3026
    11.7039  11.7071  12.2164  12.2295  12.7191  12.7227  13.0163  13.0263
    13.0318  13.0347  13.2262  13.2323  13.2979  13.2995  13.4127  13.4168
    13.5150  13.5238  13.8854  13.8975  14.1187  14.1242  14.9669  14.9983
    15.3124  15.3251  15.4889  15.5038  15.6982  15.7225  15.8512  15.8770
    16.1923  16.2058  16.4505  16.4639  17.2317  17.2601

     occupation numbers 
     1.0000   1.0000   1.0000   1.0000   1.0000   1.0000   1.0000   1.0000
     1.0000   1.0000   1.0000   1.0000   1.0000   1.0000   1.0000   1.0000
     1.0000   1.0000   1.0000   1.0000   1.0000   1.0000   1.0000   1.0000
     1.0000   1.0000   1.0000   1.0000   1.0000   1.0000   1.0000   1.0000
     1.0000   1.0000   1.0000   1.0000   1.0000   1.0000   1.0000   1.0000
     1.0000   1.0000   1.0000   1.0000   1.0000   1.0000   1.0000   1.0000
     1.0000   1.0000   1.0000   1.0000   1.0000   1.0000   1.0000   1.0000
     1.0000   1.0000   1.0000   1.0000   1.0000   1.0000   1.0000   1.0000
     1.0000   1.0000   1.0000   1.0000   1.0000   1.0000   0.4208   0.1423
    -0.0000  -0.0000  -0.0000  -0.0000  -0.0000  -0.0000  -0.0000  -0.0000
    -0.0000  -0.0000  -0.0000  -0.0000  -0.0000  -0.0000

          k = 0.0000 0.1000 0.4000 (  9650 PWs)   bands (ev):

   -56.5065 -56.5065 -56.4976 -56.4976 -56.4793 -56.4793 -56.4776 -56.4776
   -28.5915 -28.5867 -28.5838 -28.5809 -28.5372 -28.5351 -28.5127 -28.5119
   -27.6417 -27.6371 -27.5797 -27.5730 -27.5683 -27.5503 -27.5436 -27.5326
   -27.5224 -27.4935 -27.4854 -27.4694 -27.4618 -27.4569 -27.4409 -27.4379
     3.8327   3.8329   5.0208   5.0216   7.8364   7.8388   8.4143   8.4188
     9.7550   9.7584  10.2271  10.2311  11.0030  11.0077  11.0667  11.0796
    11.9589  11.9646  12.1919  12.2005  12.6468  12.6517  12.8513  12.8603
    13.0637  13.0684  13.2672  13.2711  13.3060  13.3084  13.3720  13.3737
    13.6275  13.6316  13.9414  13.9466  14.3359  14.3553  14.7773  14.8114
    15.3072  15.3222  15.3957  15.4102  15.7195  15.7464  15.8297  15.8581
    16.1460  16.1549  16.3080  16.3210  17.3505  17.3683

     occupation numbers 
     1.0000   1.0000   1.0000   1.0000   1.0000   1.0000   1.0000   1.0000
     1.0000   1.0000   1.0000   1.0000   1.0000   1.0000   1.0000   1.0000
     1.0000   1.0000   1.0000   1.0000   1.0000   1.0000   1.0000   1.0000
     1.0000   1.0000   1.0000   1.0000   1.0000   1.0000   1.0000   1.0000
     1.0000   1.0000   1.0000   1.0000   1.0000   1.0000   1.0000   1.0000
     1.0000   1.0000   1.0000   1.0000   1.0000   1.0000   1.0000   1.0000
     1.0000   1.0000   1.0000   1.0000   1.0000   1.0000   1.0000   1.0000
     1.0000   1.0000   1.0000   1.0000   1.0000   1.0000   1.0000   1.0000
     1.0000   1.0000   1.0000   1.0000   1.0000   1.0000   1.0036   1.0140
    -0.0000  -0.0000  -0.0000  -0.0000  -0.0000  -0.0000  -0.0000  -0.0000
    -0.0000  -0.0000  -0.0000  -0.0000  -0.0000  -0.0000

          k = 0.0000 0.1000-0.5000 (  9676 PWs)   bands (ev):

   -56.5022 -56.5022 -56.5022 -56.5022 -56.4783 -56.4783 -56.4783 -56.4783
   -28.5892 -28.5892 -28.5831 -28.5831 -28.5250 -28.5250 -28.5230 -28.5230
   -27.6402 -27.6402 -27.5741 -27.5741 -27.5609 -27.5609 -27.5382 -27.5382
   -27.5081 -27.5081 -27.4765 -27.4765 -27.4599 -27.4599 -27.4392 -27.4392
     4.3888   4.3888   4.3893   4.3893   8.1378   8.1378   8.1446   8.1446
     9.9958   9.9958  10.0003  10.0003  10.9956  10.9956  11.0093  11.0093
    12.1786  12.1786  12.1844  12.1844  12.6269  12.6269  12.6430  12.6430
    13.1984  13.1984  13.2022  13.2022  13.3002  13.3002  13.3018  13.3018
    13.8128  13.8128  13.8163  13.8163  14.5879  14.5879  14.6177  14.6177
    15.3339  15.3339  15.3504  15.3504  15.7749  15.7749  15.8046  15.8046
    16.1899  16.1899  16.2015  16.2015  17.5340  17.5374

     occupation numbers 
     1.0000   1.0000   1.0000   1.0000   1.0000   1.0000   1.0000   1.0000
     1.0000   1.0000   1.0000   1.0000   1.0000   1.0000   1.0000   1.0000
     1.0000   1.0000   1.0000   1.0000   1.0000   1.0000   1.0000   1.0000
     1.0000   1.0000   1.0000   1.0000   1.0000   1.0000   1.0000   1.0000
     1.0000   1.0000   1.0000   1.0000   1.0000   1.0000   1.0000   1.0000
     1.0000   1.0000   1.0000   1.0000   1.0000   1.0000   1.0000   1.0000
     1.0000   1.0000   1.0000   1.0000   1.0000   1.0000   1.0000   1.0000
     1.0000   1.0000   1.0000   1.0000   1.0000   1.0000   1.0000   1.0000
     1.0000   1.0000   1.0000   1.0000   1.0000   1.0000   1.0000   1.0000
    -0.0000  -0.0000  -0.0000  -0.0000  -0.0000  -0.0000  -0.0000  -0.0000
    -0.0000  -0.0000  -0.0000  -0.0000  -0.0000  -0.0000

          k = 0.0000 0.2000 0.2000 (  9629 PWs)   bands (ev):

   -56.5114 -56.5114 -56.4906 -56.4906 -56.4816 -56.4816 -56.4773 -56.4773
   -28.5921 -28.5862 -28.5764 -28.5760 -28.5565 -28.5525 -28.4988 -28.4986
   -27.6367 -27.6328 -27.5903 -27.5875 -27.5548 -27.5539 -27.5431 -27.5411
   -27.5230 -27.5001 -27.4755 -27.4696 -27.4608 -27.4497 -27.4407 -27.4363
     3.2453   3.2454   6.2136   6.2175   7.1067   7.1110   8.4947   8.4998
     9.7695   9.7715  10.3198  10.3237  10.8493  10.8512  11.3879  11.3900
    11.7956  11.7971  12.3656  12.3694  12.5711  12.5790  12.9913  12.9988
    13.1296  13.1408  13.1913  13.1947  13.3261  13.3283  13.4078  13.4202
    13.4894  13.4958  13.8244  13.8384  14.1257  14.1331  15.1678  15.1891
    15.2390  15.2603  15.4427  15.4554  15.6636  15.6871  15.8089  15.8349
    16.2126  16.2275  16.5669  16.5777  17.1088  17.1479

     occupation numbers 
     1.0000   1.0000   1.0000   1.0000   1.0000   1.0000   1.0000   1.0000
     1.0000   1.0000   1.0000   1.0000   1.0000   1.0000   1.0000   1.0000
     1.0000   1.0000   1.0000   1.0000   1.0000   1.0000   1.0000   1.0000
     1.0000   1.0000   1.0000   1.0000   1.0000   1.0000   1.0000   1.0000
     1.0000   1.0000   1.0000   1.0000   1.0000   1.0000   1.0000   1.0000
     1.0000   1.0000   1.0000   1.0000   1.0000   1.0000   1.0000   1.0000
     1.0000   1.0000   1.0000   1.0000   1.0000   1.0000   1.0000   1.0000
     1.0000   1.0000   1.0000   1.0000   1.0000   1.0000   1.0000   1.0000
     1.0000   1.0000   1.0000   1.0000   1.0000   1.0000  -0.0009  -0.0003
    -0.0000  -0.0000  -0.0000  -0.0000  -0.0000  -0.0000  -0.0000  -0.0000
    -0.0000  -0.0000  -0.0000  -0.0000  -0.0000  -0.0000

          k = 0.0000 0.2000 0.3000 (  9653 PWs)   bands (ev):

   -56.5087 -56.5087 -56.4936 -56.4936 -56.4812 -56.4812 -56.4775 -56.4775
   -28.5915 -28.5861 -28.5780 -28.5765 -28.5489 -28.5458 -28.5065 -28.5062
   -27.6375 -27.6331 -27.5851 -27.5801 -27.5613 -27.5527 -27.5436 -27.5380
   -27.5236 -27.4934 -27.4863 -27.4734 -27.4639 -27.4501 -27.4382 -27.4344
     3.5755   3.5757   5.7765   5.7791   7.1294   7.1329   8.4353   8.4391
     9.7421   9.7454  10.1782  10.1827  10.9536  10.9554  11.4461  11.4495
    11.7630  11.7645  12.2214  12.2264  12.5371  12.5451  12.8816  12.8895
    13.1660  13.1782  13.2245  13.2285  13.4067  13.4072  13.5501  13.5610
    13.5858  13.5976  13.9899  14.0023  14.2294  14.2383  14.9838  15.0110
    15.1723  15.1939  15.3159  15.3258  15.6285  15.6530  15.7836  15.8137
    16.1556  16.1659  16.4877  16.4994  17.1990  17.2380

     occupation numbers 
     1.0000   1.0000   1.0000   1.0000   1.0000   1.0000   1.0000   1.0000
     1.0000   1.0000   1.0000   1.0000   1.0000   1.0000   1.0000   1.0000
     1.0000   1.0000   1.0000   1.0000   1.0000   1.0000   1.0000   1.0000
     1.0000   1.0000   1.0000   1.0000   1.0000   1.0000   1.0000   1.0000
     1.0000   1.0000   1.0000   1.0000   1.0000   1.0000   1.0000   1.0000
     1.0000   1.0000   1.0000   1.0000   1.0000   1.0000   1.0000   1.0000
     1.0000   1.0000   1.0000   1.0000   1.0000   1.0000   1.0000   1.0000
     1.0000   1.0000   1.0000   1.0000   1.0000   1.0000   1.0000   1.0000
     1.0000   1.0000   1.0000   1.0000   1.0000   1.0000   0.2579   0.0651
    -0.0007  -0.0002  -0.0000  -0.0000  -0.0000  -0.0000  -0.0000  -0.0000
    -0.0000  -0.0000  -0.0000  -0.0000  -0.0000  -0.0000

          k = 0.0000 0.2000 0.4000 (  9651 PWs)   bands (ev):

   -56.5053 -56.5053 -56.4973 -56.4973 -56.4803 -56.4803 -56.4781 -56.4781
   -28.5896 -28.5853 -28.5809 -28.5785 -28.5387 -28.5367 -28.5163 -28.5157
   -27.6372 -27.6339 -27.5811 -27.5738 -27.5656 -27.5533 -27.5431 -27.5310
   -27.5256 -27.5003 -27.4865 -27.4773 -27.4620 -27.4528 -27.4361 -27.4339
     4.0217   4.0221   5.1715   5.1728   7.3848   7.3874   8.1324   8.1351
     9.8720   9.8755  10.1409  10.1443  11.0537  11.0604  11.3123  11.3245
    11.8756  11.8799  12.0988  12.1049  12.4983  12.5091  12.6803  12.6910
    13.2242  13.2297  13.2752  13.2805  13.4053  13.4076  13.5607  13.5631
    13.7422  13.7464  14.0115  14.0191  14.4430  14.4682  14.7927  14.8242
    15.1657  15.1836  15.2238  15.2287  15.6277  15.6538  15.7334  15.7655
    16.1805  16.1866  16.3889  16.4015  17.2686  17.2935

     occupation numbers 
     1.0000   1.0000   1.0000   1.0000   1.0000   1.0000   1.0000   1.0000
     1.0000   1.0000   1.0000   1.0000   1.0000   1.0000   1.0000   1.0000
     1.0000   1.0000   1.0000   1.0000   1.0000   1.0000   1.0000   1.0000
     1.0000   1.0000   1.0000   1.0000   1.0000   1.0000   1.0000   1.0000
     1.0000   1.0000   1.0000   1.0000   1.0000   1.0000   1.0000   1.0000
     1.0000   1.0000   1.0000   1.0000   1.0000   1.0000   1.0000   1.0000
     1.0000   1.0000   1.0000   1.0000   1.0000   1.0000   1.0000   1.0000
     1.0000   1.0000   1.0000   1.0000   1.0000   1.0000   1.0000   1.0000
     1.0000   1.0000   1.0000   1.0000   1.0000   1.0000   1.0070   1.0206
    -0.0010  -0.0004  -0.0000  -0.0000  -0.0000  -0.0000  -0.0000  -0.0000
    -0.0000  -0.0000  -0.0000  -0.0000  -0.0000  -0.0000

          k = 0.0000 0.2000-0.5000 (  9650 PWs)   bands (ev):

   -56.5013 -56.5013 -56.5013 -56.5013 -56.4791 -56.4791 -56.4791 -56.4791
   -28.5867 -28.5867 -28.5809 -28.5809 -28.5283 -28.5283 -28.5253 -28.5253
   -27.6356 -27.6356 -27.5766 -27.5766 -27.5599 -27.5599 -27.5370 -27.5370
   -27.5138 -27.5138 -27.4818 -27.4818 -27.4573 -27.4573 -27.4346 -27.4346
     4.5646   4.5646   4.5654   4.5654   7.7412   7.7412   7.7479   7.7479
    10.0486  10.0486  10.0522  10.0522  11.1495  11.1495  11.1630  11.1630
    12.0402  12.0402  12.0438  12.0438  12.4893  12.4893  12.5041  12.5041
    13.3084  13.3084  13.3115  13.3115  13.4382  13.4382  13.4409  13.4409
    13.9066  13.9066  13.9112  13.9112  14.6382  14.6382  14.6699  14.6699
    15.1766  15.1766  15.1902  15.1902  15.6706  15.6706  15.7002  15.7002
    16.2736  16.2736  16.2843  16.2843  17.4430  17.4474

     occupation numbers 
     1.0000   1.0000   1.0000   1.0000   1.0000   1.0000   1.0000   1.0000
     1.0000   1.0000   1.0000   1.0000   1.0000   1.0000   1.0000   1.0000
     1.0000   1.0000   1.0000   1.0000   1.0000   1.0000   1.0000   1.0000
     1.0000   1.0000   1.0000   1.0000   1.0000   1.0000   1.0000   1.0000
     1.0000   1.0000   1.0000   1.0000   1.0000   1.0000   1.0000   1.0000
     1.0000   1.0000   1.0000   1.0000   1.0000   1.0000   1.0000   1.0000
     1.0000   1.0000   1.0000   1.0000   1.0000   1.0000   1.0000   1.0000
     1.0000   1.0000   1.0000   1.0000   1.0000   1.0000   1.0000   1.0000
     1.0000   1.0000   1.0000   1.0000   1.0000   1.0000   1.0000   1.0000
    -0.0005  -0.0005  -0.0002  -0.0002  -0.0000  -0.0000  -0.0000  -0.0000
    -0.0000  -0.0000  -0.0000  -0.0000  -0.0000  -0.0000

          k = 0.0000 0.3000 0.3000 (  9641 PWs)   bands (ev):

   -56.5064 -56.5064 -56.4949 -56.4949 -56.4816 -56.4816 -56.4781 -56.4781
   -28.5896 -28.5848 -28.5764 -28.5755 -28.5462 -28.5433 -28.5135 -28.5129
   -27.6335 -27.6315 -27.5840 -27.5786 -27.5614 -27.5533 -27.5416 -27.5393
   -27.5230 -27.4961 -27.4933 -27.4816 -27.4621 -27.4461 -27.4356 -27.4323
     3.8963   3.8966   5.7564   5.7590   6.7780   6.7813   8.1200   8.1244
     9.8830   9.8864  10.2221  10.2263  10.9524  10.9547  11.2879  11.2892
    11.9116  11.9182  12.2058  12.2111  12.3902  12.4009  12.7564  12.7635
    13.1513  13.1600  13.3630  13.3720  13.4933  13.4984  13.6394  13.6457
    13.7467  13.7583  14.0592  14.0722  14.3834  14.4037  14.9280  14.9451
    15.0227  15.0456  15.1457  15.1576  15.5570  15.5817  15.6720  15.7024
    16.1810  16.1897  16.4872  16.4958  17.1812  17.2183

     occupation numbers 
     1.0000   1.0000   1.0000   1.0000   1.0000   1.0000   1.0000   1.0000
     1.0000   1.0000   1.0000   1.0000   1.0000   1.0000   1.0000   1.0000
     1.0000   1.0000   1.0000   1.0000   1.0000   1.0000   1.0000   1.0000
     1.0000   1.0000   1.0000   1.0000   1.0000   1.0000   1.0000   1.0000
     1.0000   1.0000   1.0000   1.0000   1.0000   1.0000   1.0000   1.0000
     1.0000   1.0000   1.0000   1.0000   1.0000   1.0000   1.0000   1.0000
     1.0000   1.0000   1.0000   1.0000   1.0000   1.0000   1.0000   1.0000
     1.0000   1.0000   1.0000   1.0000   1.0000   1.0000   1.0000   1.0000
     1.0000   1.0000   1.0000   1.0000   1.0000   1.0000   0.7994   0.6445
     0.0159  -0.0301  -0.0029  -0.0016  -0.0000  -0.0000  -0.0000  -0.0000
    -0.0000  -0.0000  -0.0000  -0.0000  -0.0000  -0.0000

          k = 0.0000 0.3000 0.4000 (  9635 PWs)   bands (ev):

   -56.5034 -56.5034 -56.4972 -56.4972 -56.4812 -56.4812 -56.4791 -56.4791
   -28.5865 -28.5827 -28.5778 -28.5761 -28.5399 -28.5380 -28.5219 -28.5212
   -27.6303 -27.6288 -27.5858 -27.5805 -27.5591 -27.5515 -27.5411 -27.5314
   -27.5271 -27.5056 -27.4962 -27.4884 -27.4556 -27.4458 -27.4337 -27.4315
     4.3269   4.3275   5.3796   5.3815   6.8561   6.8591   7.6669   7.6702
    10.0827  10.0852  10.2805  10.2830  11.0334  11.0368  11.3612  11.3685
    11.8660  11.8697  11.9503  11.9528  12.3434  12.3528  12.5149  12.5249
    13.2526  13.2613  13.4273  13.4285  13.4861  13.4863  13.7135  13.7176
    13.9460  13.9518  14.1242  14.1330  14.5480  14.5760  14.7618  14.7834
    14.9724  14.9919  15.0367  15.0498  15.5243  15.5469  15.5894  15.6200
    16.2733  16.2817  16.4808  16.4888  17.1354  17.1588

     occupation numbers 
     1.0000   1.0000   1.0000   1.0000   1.0000   1.0000   1.0000   1.0000
     1.0000   1.0000   1.0000   1.0000   1.0000   1.0000   1.0000   1.0000
     1.0000   1.0000   1.0000   1.0000   1.0000   1.0000   1.0000   1.0000
     1.0000   1.0000   1.0000   1.0000   1.0000   1.0000   1.0000   1.0000
     1.0000   1.0000   1.0000   1.0000   1.0000   1.0000   1.0000   1.0000
     1.0000   1.0000   1.0000   1.0000   1.0000   1.0000   1.0000   1.0000
     1.0000   1.0000   1.0000   1.0000   1.0000   1.0000   1.0000   1.0000
     1.0000   1.0000   1.0000   1.0000   1.0000   1.0000   1.0000   1.0000
     1.0000   1.0000   1.0000   1.0000   1.0000   1.0000   1.0017   1.0047
     0.3658   0.1899  -0.0190  -0.0331  -0.0000  -0.0000  -0.0000  -0.0000
    -0.0000  -0.0000  -0.0000  -0.0000  -0.0000  -0.0000

          k = 0.0000 0.3000-0.5000 (  9642 PWs)   bands (ev):

   -56.5002 -56.5002 -56.5002 -56.5002 -56.4802 -56.4802 -56.4802 -56.4802
   -28.5831 -28.5831 -28.5781 -28.5781 -28.5322 -28.5322 -28.5290 -28.5290
   -27.6283 -27.6283 -27.5846 -27.5846 -27.5542 -27.5542 -27.5355 -27.5355
   -27.5185 -27.5185 -27.4934 -27.4934 -27.4494 -27.4494 -27.4321 -27.4321
     4.8413   4.8413   4.8425   4.8425   7.2109   7.2109   7.2163   7.2163
    10.2420  10.2420  10.2444  10.2444  11.2287  11.2287  11.2382  11.2382
    11.8468  11.8468  11.8503  11.8503  12.3615  12.3615  12.3709  12.3709
    13.3621  13.3621  13.3697  13.3697  13.6053  13.6053  13.6134  13.6134
    14.0919  14.0919  14.0979  14.0979  14.6425  14.6425  14.6675  14.6675
    14.9949  14.9949  15.0068  15.0068  15.5348  15.5348  15.5616  15.5616
    16.3968  16.3968  16.4078  16.4078  17.2619  17.2651

     occupation numbers 
     1.0000   1.0000   1.0000   1.0000   1.0000   1.0000   1.0000   1.0000
     1.0000   1.0000   1.0000   1.0000   1.0000   1.0000   1.0000   1.0000
     1.0000   1.0000   1.0000   1.0000   1.0000   1.0000   1.0000   1.0000
     1.0000   1.0000   1.0000   1.0000   1.0000   1.0000   1.0000   1.0000
     1.0000   1.0000   1.0000   1.0000   1.0000   1.0000   1.0000   1.0000
     1.0000   1.0000   1.0000   1.0000   1.0000   1.0000   1.0000   1.0000
     1.0000   1.0000   1.0000   1.0000   1.0000   1.0000   1.0000   1.0000
     1.0000   1.0000   1.0000   1.0000   1.0000   1.0000   1.0000   1.0000
     1.0000   1.0000   1.0000   1.0000   1.0000   1.0000   1.0000   1.0000
     0.1664   0.1664   0.0880   0.0880  -0.0000  -0.0000  -0.0000  -0.0000
    -0.0000  -0.0000  -0.0000  -0.0000  -0.0000  -0.0000

          k = 0.0000 0.4000 0.4000 (  9636 PWs)   bands (ev):

   -56.5013 -56.5013 -56.4978 -56.4978 -56.4816 -56.4816 -56.4802 -56.4802
   -28.5826 -28.5798 -28.5762 -28.5753 -28.5389 -28.5374 -28.5284 -28.5275
   -27.6228 -27.6227 -27.5924 -27.5895 -27.5514 -27.5477 -27.5380 -27.5298
   -27.5291 -27.5091 -27.5071 -27.4987 -27.4476 -27.4406 -27.4337 -27.4312
     4.7281   4.7288   5.4692   5.4705   6.5220   6.5236   7.1471   7.1497
    10.3760  10.3764  10.5508  10.5517  10.9050  10.9053  11.2351  11.2385
    11.6914  11.6923  11.9443  11.9497  12.2654  12.2659  12.3946  12.4009
    13.2698  13.2766  13.3813  13.3819  13.7471  13.7488  13.8775  13.8823
    14.1457  14.1542  14.2000  14.2057  14.5513  14.5596  14.6732  14.6916
    14.8202  14.8365  14.9026  14.9270  15.4531  15.4691  15.4747  15.4983
    16.3833  16.3949  16.5292  16.5344  17.0552  17.0729

     occupation numbers 
     1.0000   1.0000   1.0000   1.0000   1.0000   1.0000   1.0000   1.0000
     1.0000   1.0000   1.0000   1.0000   1.0000   1.0000   1.0000   1.0000
     1.0000   1.0000   1.0000   1.0000   1.0000   1.0000   1.0000   1.0000
     1.0000   1.0000   1.0000   1.0000   1.0000   1.0000   1.0000   1.0000
     1.0000   1.0000   1.0000   1.0000   1.0000   1.0000   1.0000   1.0000
     1.0000   1.0000   1.0000   1.0000   1.0000   1.0000   1.0000   1.0000
     1.0000   1.0000   1.0000   1.0000   1.0000   1.0000   1.0000   1.0000
     1.0000   1.0000   1.0000   1.0000   1.0000   1.0000   1.0000   1.0000
     1.0000   1.0000   1.0000   1.0000   1.0000   1.0000   1.0000   1.0000
     1.0184   1.0275   0.9576   0.8072  -0.0000  -0.0000  -0.0000  -0.0000
    -0.0000  -0.0000  -0.0000  -0.0000  -0.0000  -0.0000

          k = 0.0000 0.4000-0.5000 (  9646 PWs)   bands (ev):

   -56.4992 -56.4992 -56.4992 -56.4992 -56.4812 -56.4812 -56.4812 -56.4812
   -28.5792 -28.5792 -28.5761 -28.5761 -28.5352 -28.5352 -28.5330 -28.5330
   -27.6187 -27.6187 -27.5956 -27.5956 -27.5462 -27.5462 -27.5352 -27.5352
   -27.5199 -27.5199 -27.5057 -27.5057 -27.4417 -27.4417 -27.4325 -27.4325
     5.1725   5.1725   5.1739   5.1739   6.6928   6.6928   6.6963   6.6963
    10.5220  10.5220  10.5231  10.5231  11.2415  11.2415  11.2500  11.2500
    11.5666  11.5666  11.5757  11.5757  12.2999  12.2999  12.3037  12.3037
    13.3625  13.3625  13.3672  13.3672  13.8270  13.8270  13.8362  13.8362
    14.3262  14.3262  14.3298  14.3298  14.4964  14.4964  14.5045  14.5045
    14.8519  14.8519  14.8718  14.8718  15.4391  15.4391  15.4554  15.4554
    16.5206  16.5206  16.5299  16.5299  17.0701  17.0713

     occupation numbers 
     1.0000   1.0000   1.0000   1.0000   1.0000   1.0000   1.0000   1.0000
     1.0000   1.0000   1.0000   1.0000   1.0000   1.0000   1.0000   1.0000
     1.0000   1.0000   1.0000   1.0000   1.0000   1.0000   1.0000   1.0000
     1.0000   1.0000   1.0000   1.0000   1.0000   1.0000   1.0000   1.0000
     1.0000   1.0000   1.0000   1.0000   1.0000   1.0000   1.0000   1.0000
     1.0000   1.0000   1.0000   1.0000   1.0000   1.0000   1.0000   1.0000
     1.0000   1.0000   1.0000   1.0000   1.0000   1.0000   1.0000   1.0000
     1.0000   1.0000   1.0000   1.0000   1.0000   1.0000   1.0000   1.0000
     1.0000   1.0000   1.0000   1.0000   1.0000   1.0000   1.0000   1.0000
     1.0343   1.0343   1.0310   1.0310  -0.0000  -0.0000  -0.0000  -0.0000
    -0.0000  -0.0000  -0.0000  -0.0000  -0.0000  -0.0000

          k = 0.0000-0.5000-0.5000 (  9580 PWs)   bands (ev):

   -56.4988 -56.4988 -56.4988 -56.4988 -56.4816 -56.4816 -56.4816 -56.4816
   -28.5764 -28.5764 -28.5764 -28.5764 -28.5355 -28.5355 -28.5355 -28.5355
   -27.6075 -27.6075 -27.6075 -27.6075 -27.5389 -27.5389 -27.5389 -27.5389
   -27.5155 -27.5155 -27.5155 -27.5155 -27.4358 -27.4358 -27.4358 -27.4358
     5.3719   5.3719   5.3719   5.3719   6.4280   6.4280   6.4280   6.4280
    10.7057  10.7057  10.7057  10.7057  11.2421  11.2421  11.2421  11.2421
    11.3850  11.3850  11.3850  11.3850  12.2846  12.2846  12.2846  12.2846
    13.3607  13.3607  13.3607  13.3607  14.0066  14.0066  14.0066  14.0066
    14.2915  14.2915  14.2915  14.2915  14.5255  14.5255  14.5255  14.5255
    14.7581  14.7581  14.7581  14.7581  15.4148  15.4148  15.4148  15.4148
    16.5873  16.5873  16.5873  16.5873  16.9825  16.9825

     occupation numbers 
     1.0000   1.0000   1.0000   1.0000   1.0000   1.0000   1.0000   1.0000
     1.0000   1.0000   1.0000   1.0000   1.0000   1.0000   1.0000   1.0000
     1.0000   1.0000   1.0000   1.0000   1.0000   1.0000   1.0000   1.0000
     1.0000   1.0000   1.0000   1.0000   1.0000   1.0000   1.0000   1.0000
     1.0000   1.0000   1.0000   1.0000   1.0000   1.0000   1.0000   1.0000
     1.0000   1.0000   1.0000   1.0000   1.0000   1.0000   1.0000   1.0000
     1.0000   1.0000   1.0000   1.0000   1.0000   1.0000   1.0000   1.0000
     1.0000   1.0000   1.0000   1.0000   1.0000   1.0000   1.0000   1.0000
     1.0000   1.0000   1.0000   1.0000   1.0000   1.0000   1.0000   1.0000
     1.0014   1.0014   1.0014   1.0014  -0.0000  -0.0000  -0.0000  -0.0000
    -0.0000  -0.0000  -0.0000  -0.0000  -0.0000  -0.0000

          k = 0.1000 0.1000 0.1000 (  9669 PWs)   bands (ev):

   -56.5144 -56.5144 -56.4868 -56.4868 -56.4818 -56.4818 -56.4780 -56.4780
   -28.5903 -28.5838 -28.5765 -28.5751 -28.5660 -28.5615 -28.4904 -28.4903
   -27.6317 -27.6306 -27.6015 -27.5981 -27.5519 -27.5450 -27.5432 -27.5418
   -27.5267 -27.5131 -27.4649 -27.4580 -27.4546 -27.4518 -27.4436 -27.4406
     2.9063   2.9064   6.7167   6.7232   7.2688   7.2750   8.1858   8.1908
     9.9890   9.9945  10.6189  10.6196  10.8716  10.8718  11.1921  11.1974
    11.9281  11.9292  12.3622  12.3757  12.6873  12.6885  12.8056  12.8139
    13.0087  13.0094  13.1658  13.1662  13.2128  13.2179  13.2394  13.2427
    13.4568  13.4605  13.6789  13.6826  13.9961  14.0012  15.3601  15.3643
    15.4269  15.4282  15.6205  15.6259  15.6859  15.6986  15.7999  15.8093
    16.3817  16.4016  16.6660  16.6722  16.9089  16.9403

     occupation numbers 
     1.0000   1.0000   1.0000   1.0000   1.0000   1.0000   1.0000   1.0000
     1.0000   1.0000   1.0000   1.0000   1.0000   1.0000   1.0000   1.0000
     1.0000   1.0000   1.0000   1.0000   1.0000   1.0000   1.0000   1.0000
     1.0000   1.0000   1.0000   1.0000   1.0000   1.0000   1.0000   1.0000
     1.0000   1.0000   1.0000   1.0000   1.0000   1.0000   1.0000   1.0000
     1.0000   1.0000   1.0000   1.0000   1.0000   1.0000   1.0000   1.0000
     1.0000   1.0000   1.0000   1.0000   1.0000   1.0000   1.0000   1.0000
     1.0000   1.0000   1.0000   1.0000   1.0000   1.0000   1.0000   1.0000
     1.0000   1.0000   1.0000   1.0000   1.0000   1.0000  -0.0000  -0.0000
    -0.0000  -0.0000  -0.0000  -0.0000  -0.0000  -0.0000  -0.0000  -0.0000
    -0.0000  -0.0000  -0.0000  -0.0000  -0.0000  -0.0000

          k = 0.1000 0.1000 0.2000 (  9653 PWs)   bands (ev):

   -56.5126 -56.5126 -56.4894 -56.4894 -56.4816 -56.4816 -56.4774 -56.4774
   -28.5919 -28.5856 -28.5765 -28.5762 -28.5594 -28.5554 -28.4956 -28.4954
   -27.6364 -27.6317 -27.5954 -27.5894 -27.5550 -27.5495 -27.5433 -27.5418
   -27.5236 -27.5045 -27.4729 -27.4624 -27.4574 -27.4537 -27.4412 -27.4381
     3.1108   3.1108   6.3285   6.3324   7.2722   7.2766   8.3627   8.3676
     9.8303   9.8335  10.5510  10.5533  10.6971  10.7001  11.3545  11.3594
    11.8172  11.8218  12.3555  12.3583  12.7047  12.7083  12.9593  12.9605
    13.0692  13.0771  13.1330  13.1363  13.2679  13.2725  13.3448  13.3574
    13.5125  13.5275  13.7241  13.7333  14.0852  14.0923  15.2030  15.2263
    15.3331  15.3477  15.5453  15.5588  15.6460  15.6622  15.8239  15.8415
    16.2725  16.2906  16.5962  16.6080  17.0413  17.0745

     occupation numbers 
     1.0000   1.0000   1.0000   1.0000   1.0000   1.0000   1.0000   1.0000
     1.0000   1.0000   1.0000   1.0000   1.0000   1.0000   1.0000   1.0000
     1.0000   1.0000   1.0000   1.0000   1.0000   1.0000   1.0000   1.0000
     1.0000   1.0000   1.0000   1.0000   1.0000   1.0000   1.0000   1.0000
     1.0000   1.0000   1.0000   1.0000   1.0000   1.0000   1.0000   1.0000
     1.0000   1.0000   1.0000   1.0000   1.0000   1.0000   1.0000   1.0000
     1.0000   1.0000   1.0000   1.0000   1.0000   1.0000   1.0000   1.0000
     1.0000   1.0000   1.0000   1.0000   1.0000   1.0000   1.0000   1.0000
     1.0000   1.0000   1.0000   1.0000   1.0000   1.0000  -0.0001  -0.0000
    -0.0000  -0.0000  -0.0000  -0.0000  -0.0000  -0.0000  -0.0000  -0.0000
    -0.0000  -0.0000  -0.0000  -0.0000  -0.0000  -0.0000

          k = 0.1000 0.1000 0.3000 (  9634 PWs)   bands (ev):

   -56.5097 -56.5097 -56.4931 -56.4931 -56.4808 -56.4808 -56.4773 -56.4773
   -28.5921 -28.5863 -28.5796 -28.5777 -28.5495 -28.5463 -28.5037 -28.5032
   -27.6396 -27.6334 -27.5869 -27.5814 -27.5611 -27.5494 -27.5450 -27.5372
   -27.5242 -27.4957 -27.4817 -27.4664 -27.4611 -27.4560 -27.4395 -27.4365
     3.4444   3.4445   5.7265   5.7282   7.4473   7.4496   8.4626   8.4681
     9.6444   9.6455  10.3745  10.3790  10.8190  10.8226  11.3613  11.3658
    11.7650  11.7660  12.2468  12.2547  12.7656  12.7689  13.0164  13.0246
    13.0582  13.0648  13.1621  13.1675  13.3264  13.3300  13.3860  13.3924
    13.5961  13.5990  13.9085  13.9178  14.1570  14.1619  14.9664  14.9966
    15.2967  15.3108  15.4374  15.4523  15.6377  15.6586  15.8282  15.8501
    16.1782  16.1924  16.4656  16.4805  17.1983  17.2275

     occupation numbers 
     1.0000   1.0000   1.0000   1.0000   1.0000   1.0000   1.0000   1.0000
     1.0000   1.0000   1.0000   1.0000   1.0000   1.0000   1.0000   1.0000
     1.0000   1.0000   1.0000   1.0000   1.0000   1.0000   1.0000   1.0000
     1.0000   1.0000   1.0000   1.0000   1.0000   1.0000   1.0000   1.0000
     1.0000   1.0000   1.0000   1.0000   1.0000   1.0000   1.0000   1.0000
     1.0000   1.0000   1.0000   1.0000   1.0000   1.0000   1.0000   1.0000
     1.0000   1.0000   1.0000   1.0000   1.0000   1.0000   1.0000   1.0000
     1.0000   1.0000   1.0000   1.0000   1.0000   1.0000   1.0000   1.0000
     1.0000   1.0000   1.0000   1.0000   1.0000   1.0000   0.4260   0.1539
    -0.0000  -0.0000  -0.0000  -0.0000  -0.0000  -0.0000  -0.0000  -0.0000
    -0.0000  -0.0000  -0.0000  -0.0000  -0.0000  -0.0000

          k = 0.1000 0.1000 0.4000 (  9660 PWs)   bands (ev):

   -56.5061 -56.5061 -56.4974 -56.4974 -56.4797 -56.4797 -56.4778 -56.4778
   -28.5908 -28.5863 -28.5826 -28.5800 -28.5380 -28.5357 -28.5140 -28.5131
   -27.6402 -27.6360 -27.5789 -27.5732 -27.5675 -27.5526 -27.5437 -27.5321
   -27.5234 -27.4981 -27.4820 -27.4694 -27.4631 -27.4592 -27.4383 -27.4364
     3.8962   3.8964   5.0732   5.0739   7.7155   7.7178   8.3340   8.3388
     9.6764   9.6778  10.1908  10.1946  10.9271  10.9311  11.2412  11.2475
    11.8796  11.8840  12.2197  12.2236  12.7270  12.7303  12.9293  12.9370
    13.0623  13.0692  13.2315  13.2373  13.3067  13.3085  13.3793  13.3854
    13.6675  13.6707  13.9454  13.9512  14.3711  14.3922  14.7826  14.8165
    15.2799  15.2961  15.3467  15.3623  15.6653  15.6881  15.7912  15.8156
    16.1490  16.1584  16.3234  16.3373  17.3631  17.3809

     occupation numbers 
     1.0000   1.0000   1.0000   1.0000   1.0000   1.0000   1.0000   1.0000
     1.0000   1.0000   1.0000   1.0000   1.0000   1.0000   1.0000   1.0000
     1.0000   1.0000   1.0000   1.0000   1.0000   1.0000   1.0000   1.0000
     1.0000   1.0000   1.0000   1.0000   1.0000   1.0000   1.0000   1.0000
     1.0000   1.0000   1.0000   1.0000   1.0000   1.0000   1.0000   1.0000
     1.0000   1.0000   1.0000   1.0000   1.0000   1.0000   1.0000   1.0000
     1.0000   1.0000   1.0000   1.0000   1.0000   1.0000   1.0000   1.0000
     1.0000   1.0000   1.0000   1.0000   1.0000   1.0000   1.0000   1.0000
     1.0000   1.0000   1.0000   1.0000   1.0000   1.0000   1.0046   1.0165
    -0.0000  -0.0000  -0.0000  -0.0000  -0.0000  -0.0000  -0.0000  -0.0000
    -0.0000  -0.0000  -0.0000  -0.0000  -0.0000  -0.0000

          k = 0.1000 0.1000-0.5000 (  9662 PWs)   bands (ev):

   -56.5018 -56.5018 -56.5018 -56.5018 -56.4786 -56.4786 -56.4786 -56.4786
   -28.5883 -28.5883 -28.5823 -28.5823 -28.5263 -28.5263 -28.5237 -28.5237
   -27.6387 -27.6387 -27.5733 -27.5733 -27.5623 -27.5623 -27.5375 -27.5375
   -27.5110 -27.5110 -27.4748 -27.4748 -27.4620 -27.4620 -27.4371 -27.4371
     4.4482   4.4482   4.4487   4.4487   8.0331   8.0331   8.0394   8.0394
     9.9194   9.9194   9.9221   9.9221  11.0692  11.0692  11.0798  11.0798
    12.1013  12.1013  12.1055  12.1055  12.7594  12.7594  12.7726  12.7726
    13.1688  13.1688  13.1755  13.1755  13.3250  13.3250  13.3278  13.3278
    13.8210  13.8210  13.8259  13.8259  14.6065  14.6065  14.6374  14.6374
    15.2931  15.2931  15.3118  15.3118  15.7253  15.7253  15.7530  15.7530
    16.2036  16.2036  16.2145  16.2145  17.6017  17.6047

     occupation numbers 
     1.0000   1.0000   1.0000   1.0000   1.0000   1.0000   1.0000   1.0000
     1.0000   1.0000   1.0000   1.0000   1.0000   1.0000   1.0000   1.0000
     1.0000   1.0000   1.0000   1.0000   1.0000   1.0000   1.0000   1.0000
     1.0000   1.0000   1.0000   1.0000   1.0000   1.0000   1.0000   1.0000
     1.0000   1.0000   1.0000   1.0000   1.0000   1.0000   1.0000   1.0000
     1.0000   1.0000   1.0000   1.0000   1.0000   1.0000   1.0000   1.0000
     1.0000   1.0000   1.0000   1.0000   1.0000   1.0000   1.0000   1.0000
     1.0000   1.0000   1.0000   1.0000   1.0000   1.0000   1.0000   1.0000
     1.0000   1.0000   1.0000   1.0000   1.0000   1.0000   1.0000   1.0000
    -0.0000  -0.0000  -0.0000  -0.0000  -0.0000  -0.0000  -0.0000  -0.0000
    -0.0000  -0.0000  -0.0000  -0.0000  -0.0000  -0.0000

          k = 0.1000 0.2000 0.2000 (  9644 PWs)   bands (ev):

   -56.5109 -56.5109 -56.4908 -56.4908 -56.4820 -56.4820 -56.4773 -56.4773
   -28.5920 -28.5863 -28.5753 -28.5750 -28.5564 -28.5523 -28.5005 -28.5001
   -27.6360 -27.6328 -27.5907 -27.5840 -27.5546 -27.5536 -27.5457 -27.5435
   -27.5201 -27.4990 -27.4798 -27.4659 -27.4625 -27.4530 -27.4382 -27.4358
     3.3122   3.3123   6.2300   6.2350   7.0573   7.0637   8.3960   8.3996
     9.6898   9.6922  10.4534  10.4561  10.6338  10.6365  11.4239  11.4290
    11.8992  11.9027  12.3330  12.3373  12.6661  12.6726  13.0038  13.0062
    13.0639  13.0712  13.1652  13.1700  13.2553  13.2606  13.4813  13.4922
    13.5993  13.6083  13.8294  13.8385  14.1573  14.1646  15.1587  15.1765
    15.2415  15.2601  15.4233  15.4352  15.5768  15.5923  15.7942  15.8130
    16.2055  16.2212  16.5742  16.5864  17.0894  17.1296

     occupation numbers 
     1.0000   1.0000   1.0000   1.0000   1.0000   1.0000   1.0000   1.0000
     1.0000   1.0000   1.0000   1.0000   1.0000   1.0000   1.0000   1.0000
     1.0000   1.0000   1.0000   1.0000   1.0000   1.0000   1.0000   1.0000
     1.0000   1.0000   1.0000   1.0000   1.0000   1.0000   1.0000   1.0000
     1.0000   1.0000   1.0000   1.0000   1.0000   1.0000   1.0000   1.0000
     1.0000   1.0000   1.0000   1.0000   1.0000   1.0000   1.0000   1.0000
     1.0000   1.0000   1.0000   1.0000   1.0000   1.0000   1.0000   1.0000
     1.0000   1.0000   1.0000   1.0000   1.0000   1.0000   1.0000   1.0000
     1.0000   1.0000   1.0000   1.0000   1.0000   1.0000  -0.0015  -0.0005
    -0.0000  -0.0000  -0.0000  -0.0000  -0.0000  -0.0000  -0.0000  -0.0000
    -0.0000  -0.0000  -0.0000  -0.0000  -0.0000  -0.0000

          k = 0.1000 0.2000 0.3000 (  9631 PWs)   bands (ev):

   -56.5082 -56.5082 -56.4935 -56.4935 -56.4816 -56.4816 -56.4776 -56.4776
   -28.5911 -28.5858 -28.5769 -28.5756 -28.5493 -28.5461 -28.5081 -28.5076
   -27.6364 -27.6324 -27.5853 -27.5782 -27.5611 -27.5526 -27.5463 -27.5400
   -27.5206 -27.4978 -27.4836 -27.4704 -27.4661 -27.4528 -27.4364 -27.4340
     3.6406   3.6408   5.8143   5.8172   7.0980   7.1025   8.3493   8.3526
     9.5030   9.5053  10.3405  10.3433  10.7927  10.7974  11.5156  11.5206
    11.8104  11.8164  12.2470  12.2497  12.5914  12.5997  12.9281  12.9356
    13.1502  13.1607  13.2094  13.2142  13.3131  13.3193  13.5191  13.5237
    13.7289  13.7340  13.9817  13.9908  14.2720  14.2816  14.9770  15.0020
    15.1785  15.1969  15.3002  15.3107  15.5579  15.5743  15.7517  15.7757
    16.1613  16.1723  16.4929  16.5061  17.1715  17.2089

     occupation numbers 
     1.0000   1.0000   1.0000   1.0000   1.0000   1.0000   1.0000   1.0000
     1.0000   1.0000   1.0000   1.0000   1.0000   1.0000   1.0000   1.0000
     1.0000   1.0000   1.0000   1.0000   1.0000   1.0000   1.0000   1.0000
     1.0000   1.0000   1.0000   1.0000   1.0000   1.0000   1.0000   1.0000
     1.0000   1.0000   1.0000   1.0000   1.0000   1.0000   1.0000   1.0000
     1.0000   1.0000   1.0000   1.0000   1.0000   1.0000   1.0000   1.0000
     1.0000   1.0000   1.0000   1.0000   1.0000   1.0000   1.0000   1.0000
     1.0000   1.0000   1.0000   1.0000   1.0000   1.0000   1.0000   1.0000
     1.0000   1.0000   1.0000   1.0000   1.0000   1.0000   0.3206   0.1170
    -0.0005  -0.0002  -0.0000  -0.0000  -0.0000  -0.0000  -0.0000  -0.0000
    -0.0000  -0.0000  -0.0000  -0.0000  -0.0000  -0.0000

          k = 0.1000 0.2000 0.4000 (  9656 PWs)   bands (ev):

   -56.5048 -56.5048 -56.4971 -56.4971 -56.4807 -56.4807 -56.4784 -56.4784
   -28.5889 -28.5847 -28.5799 -28.5777 -28.5395 -28.5373 -28.5177 -28.5168
   -27.6359 -27.6327 -27.5804 -27.5729 -27.5666 -27.5554 -27.5428 -27.5324
   -27.5242 -27.5053 -27.4822 -27.4751 -27.4640 -27.4551 -27.4349 -27.4333
     4.0841   4.0845   5.2225   5.2238   7.3549   7.3577   8.0850   8.0877
     9.5721   9.5735  10.1180  10.1203  11.0718  11.0770  11.5568  11.5630
    11.7333  11.7355  12.0998  12.1024  12.5618  12.5710  12.7857  12.7937
    13.1890  13.1968  13.2800  13.2850  13.3627  13.3670  13.5199  13.5261
    13.7981  13.8043  14.0209  14.0295  14.4751  14.5020  14.8018  14.8333
    15.1535  15.1678  15.2079  15.2142  15.5802  15.5996  15.6966  15.7228
    16.1849  16.1915  16.3893  16.4020  17.2752  17.2984

     occupation numbers 
     1.0000   1.0000   1.0000   1.0000   1.0000   1.0000   1.0000   1.0000
     1.0000   1.0000   1.0000   1.0000   1.0000   1.0000   1.0000   1.0000
     1.0000   1.0000   1.0000   1.0000   1.0000   1.0000   1.0000   1.0000
     1.0000   1.0000   1.0000   1.0000   1.0000   1.0000   1.0000   1.0000
     1.0000   1.0000   1.0000   1.0000   1.0000   1.0000   1.0000   1.0000
     1.0000   1.0000   1.0000   1.0000   1.0000   1.0000   1.0000   1.0000
     1.0000   1.0000   1.0000   1.0000   1.0000   1.0000   1.0000   1.0000
     1.0000   1.0000   1.0000   1.0000   1.0000   1.0000   1.0000   1.0000
[...]
    11.8847  11.8847  11.8886  11.8886  12.3764  12.3764  12.3839  12.3839
    13.2697  13.2697  13.2746  13.2746  13.8512  13.8512  13.8641  13.8641
    14.2102  14.2102  14.2172  14.2172  14.6455  14.6455  14.6728  14.6728
    14.8179  14.8179  14.8575  14.8575  15.4124  15.4124  15.4270  15.4270
    16.4543  16.4543  16.4656  16.4656  17.1047  17.1070

     occupation numbers 
     1.0000   1.0000   1.0000   1.0000   1.0000   1.0000   1.0000   1.0000
     1.0000   1.0000   1.0000   1.0000   1.0000   1.0000   1.0000   1.0000
     1.0000   1.0000   1.0000   1.0000   1.0000   1.0000   1.0000   1.0000
     1.0000   1.0000   1.0000   1.0000   1.0000   1.0000   1.0000   1.0000
     1.0000   1.0000   1.0000   1.0000   1.0000   1.0000   1.0000   1.0000
     1.0000   1.0000   1.0000   1.0000   1.0000   1.0000   1.0000   1.0000
     1.0000   1.0000   1.0000   1.0000   1.0000   1.0000   1.0000   1.0000
     1.0000   1.0000   1.0000   1.0000   1.0000   1.0000   1.0000   1.0000
     1.0000   1.0000   1.0000   1.0000   1.0000   1.0000   1.0000   1.0000
     1.0172   1.0172   1.0354   1.0354  -0.0000  -0.0000  -0.0000  -0.0000
    -0.0000  -0.0000  -0.0000  -0.0000  -0.0000  -0.0000

          k =-0.2000 0.4000 0.3000 (  9651 PWs)   bands (ev):

   -56.5018 -56.5018 -56.4962 -56.4962 -56.4827 -56.4827 -56.4803 -56.4803
   -28.5835 -28.5800 -28.5742 -28.5728 -28.5433 -28.5409 -28.5269 -28.5255
   -27.6262 -27.6238 -27.5827 -27.5778 -27.5671 -27.5618 -27.5398 -27.5325
   -27.5241 -27.5148 -27.4836 -27.4771 -27.4608 -27.4532 -27.4340 -27.4316
     4.5653   4.5657   5.5674   5.5695   6.8875   6.8918   7.6194   7.6227
     9.1377   9.1412   9.7832   9.7866  11.0153  11.0178  11.5298  11.5316
    11.7529  11.7560  12.2098  12.2130  12.6684  12.6738  12.8317  12.8383
    13.1077  13.1141  13.1935  13.2059  13.4195  13.4259  13.6480  13.6595
    13.9717  13.9821  14.2843  14.2944  14.6199  14.6456  14.8153  14.8309
    14.9751  14.9919  15.1249  15.1536  15.3606  15.3658  15.5048  15.5181
    16.2473  16.2554  16.4033  16.4121  17.1300  17.1461

     occupation numbers 
     1.0000   1.0000   1.0000   1.0000   1.0000   1.0000   1.0000   1.0000
     1.0000   1.0000   1.0000   1.0000   1.0000   1.0000   1.0000   1.0000
     1.0000   1.0000   1.0000   1.0000   1.0000   1.0000   1.0000   1.0000
     1.0000   1.0000   1.0000   1.0000   1.0000   1.0000   1.0000   1.0000
     1.0000   1.0000   1.0000   1.0000   1.0000   1.0000   1.0000   1.0000
     1.0000   1.0000   1.0000   1.0000   1.0000   1.0000   1.0000   1.0000
     1.0000   1.0000   1.0000   1.0000   1.0000   1.0000   1.0000   1.0000
     1.0000   1.0000   1.0000   1.0000   1.0000   1.0000   1.0000   1.0000
     1.0000   1.0000   1.0000   1.0000   1.0000   1.0000   1.0159   1.0244
     0.3392   0.1900  -0.0073  -0.0019  -0.0000  -0.0000  -0.0000  -0.0000
    -0.0000  -0.0000  -0.0000  -0.0000  -0.0000  -0.0000

          k =-0.2000-0.5000 0.3000 (  9660 PWs)   bands (ev):

   -56.4988 -56.4988 -56.4988 -56.4988 -56.4816 -56.4816 -56.4816 -56.4816
   -28.5798 -28.5798 -28.5749 -28.5749 -28.5365 -28.5365 -28.5327 -28.5327
   -27.6236 -27.6236 -27.5811 -27.5811 -27.5651 -27.5651 -27.5335 -27.5335
   -27.5217 -27.5217 -27.4820 -27.4820 -27.4553 -27.4553 -27.4328 -27.4328
     5.0604   5.0604   5.0615   5.0615   7.2220   7.2220   7.2269   7.2269
     9.4399   9.4399   9.4432   9.4432  11.2334  11.2334  11.2362  11.2362
    11.9947  11.9947  12.0019  12.0019  12.7534  12.7534  12.7640  12.7640
    13.1379  13.1379  13.1484  13.1484  13.5463  13.5463  13.5560  13.5560
    14.1597  14.1597  14.1690  14.1690  14.7348  14.7348  14.7605  14.7605
    15.0212  15.0212  15.0462  15.0462  15.4229  15.4229  15.4395  15.4395
    16.3231  16.3231  16.3335  16.3335  17.2482  17.2539

     occupation numbers 
     1.0000   1.0000   1.0000   1.0000   1.0000   1.0000   1.0000   1.0000
     1.0000   1.0000   1.0000   1.0000   1.0000   1.0000   1.0000   1.0000
     1.0000   1.0000   1.0000   1.0000   1.0000   1.0000   1.0000   1.0000
     1.0000   1.0000   1.0000   1.0000   1.0000   1.0000   1.0000   1.0000
     1.0000   1.0000   1.0000   1.0000   1.0000   1.0000   1.0000   1.0000
     1.0000   1.0000   1.0000   1.0000   1.0000   1.0000   1.0000   1.0000
     1.0000   1.0000   1.0000   1.0000   1.0000   1.0000   1.0000   1.0000
     1.0000   1.0000   1.0000   1.0000   1.0000   1.0000   1.0000   1.0000
     1.0000   1.0000   1.0000   1.0000   1.0004   1.0004   1.0015   1.0015
     0.0213   0.0213  -0.0307  -0.0307  -0.0000  -0.0000  -0.0000  -0.0000
    -0.0000  -0.0000  -0.0000  -0.0000  -0.0000  -0.0000

          k =-0.2000-0.5000 0.4000 (  9638 PWs)   bands (ev):

   -56.4977 -56.4977 -56.4977 -56.4977 -56.4828 -56.4828 -56.4828 -56.4828
   -28.5758 -28.5758 -28.5726 -28.5726 -28.5396 -28.5396 -28.5370 -28.5370
   -27.6149 -27.6149 -27.5916 -27.5916 -27.5612 -27.5612 -27.5365 -27.5365
   -27.5177 -27.5177 -27.4896 -27.4896 -27.4483 -27.4483 -27.4349 -27.4349
     5.3785   5.3785   5.3799   5.3799   6.8023   6.8023   6.8060   6.8060
     9.5481   9.5481   9.5521   9.5521  10.9112  10.9112  10.9136  10.9136
    12.1981  12.1981  12.2060  12.2060  12.5664  12.5664  12.5764  12.5764
    13.1583  13.1583  13.1643  13.1643  13.6485  13.6485  13.6616  13.6616
    14.3388  14.3388  14.3446  14.3446  14.7475  14.7475  14.7713  14.7713
    14.9077  14.9077  14.9457  14.9457  15.3597  15.3597  15.3721  15.3721
    16.3979  16.3979  16.4076  16.4076  17.0253  17.0294

     occupation numbers 
     1.0000   1.0000   1.0000   1.0000   1.0000   1.0000   1.0000   1.0000
     1.0000   1.0000   1.0000   1.0000   1.0000   1.0000   1.0000   1.0000
     1.0000   1.0000   1.0000   1.0000   1.0000   1.0000   1.0000   1.0000
     1.0000   1.0000   1.0000   1.0000   1.0000   1.0000   1.0000   1.0000
     1.0000   1.0000   1.0000   1.0000   1.0000   1.0000   1.0000   1.0000
     1.0000   1.0000   1.0000   1.0000   1.0000   1.0000   1.0000   1.0000
     1.0000   1.0000   1.0000   1.0000   1.0000   1.0000   1.0000   1.0000
     1.0000   1.0000   1.0000   1.0000   1.0000   1.0000   1.0000   1.0000
     1.0000   1.0000   1.0000   1.0000   1.0008   1.0008   1.0027   1.0027
     0.9338   0.9338   0.6387   0.6387  -0.0000  -0.0000  -0.0000  -0.0000
    -0.0000  -0.0000  -0.0000  -0.0000  -0.0000  -0.0000

          k =-0.3000-0.5000 0.4000 (  9654 PWs)   bands (ev):

   -56.4959 -56.4959 -56.4959 -56.4959 -56.4845 -56.4845 -56.4845 -56.4845
   -28.5718 -28.5718 -28.5688 -28.5688 -28.5442 -28.5442 -28.5415 -28.5415
   -27.6100 -27.6100 -27.5885 -27.5885 -27.5710 -27.5710 -27.5422 -27.5422
   -27.5101 -27.5101 -27.4791 -27.4791 -27.4541 -27.4541 -27.4388 -27.4388
     5.6194   5.6194   5.6215   5.6215   6.8421   6.8421   6.8473   6.8473
     9.1179   9.1179   9.1237   9.1237  10.4442  10.4442  10.4474  10.4474
    12.4412  12.4412  12.4494  12.4494  12.7821  12.7821  12.7911  12.7911
    13.0785  13.0785  13.0880  13.0880  13.4287  13.4287  13.4398  13.4398
    14.5065  14.5065  14.5135  14.5135  14.8783  14.8783  14.9007  14.9007
    15.0312  15.0312  15.0640  15.0640  15.2840  15.2840  15.2998  15.2998
    16.3475  16.3475  16.3564  16.3564  16.8699  16.8757

     occupation numbers 
     1.0000   1.0000   1.0000   1.0000   1.0000   1.0000   1.0000   1.0000
     1.0000   1.0000   1.0000   1.0000   1.0000   1.0000   1.0000   1.0000
     1.0000   1.0000   1.0000   1.0000   1.0000   1.0000   1.0000   1.0000
     1.0000   1.0000   1.0000   1.0000   1.0000   1.0000   1.0000   1.0000
     1.0000   1.0000   1.0000   1.0000   1.0000   1.0000   1.0000   1.0000
     1.0000   1.0000   1.0000   1.0000   1.0000   1.0000   1.0000   1.0000
     1.0000   1.0000   1.0000   1.0000   1.0000   1.0000   1.0000   1.0000
     1.0000   1.0000   1.0000   1.0000   1.0000   1.0000   1.0000   1.0000
     1.0000   1.0000   1.0000   1.0000   1.0243   1.0243   0.9658   0.9658
    -0.0080  -0.0080  -0.0350  -0.0350  -0.0000  -0.0000  -0.0000  -0.0000
    -0.0000  -0.0000  -0.0000  -0.0000  -0.0000  -0.0000

     the Fermi energy is    14.9592 ev

!    total energy              =   -1180.35020979 Ry

     total all-electron energy =    -10727.811046 Ry
     estimated scf accuracy    <       0.00000053 Ry
     smearing contrib. (-TS)   =      -0.00019727 Ry
     internal energy E=F+TS    =   -1180.35001252 Ry

     The total energy is F=E-TS. E is the sum of the following terms:
     one-electron contribution =    -336.79962364 Ry
     hartree contribution      =     207.04503465 Ry
     xc contribution           =    -114.36268463 Ry
     ewald contribution        =    -496.51183961 Ry
     one-center paw contrib.   =    -439.72089929 Ry
      -> PAW hartree energy AE =     126.71750283 Ry
      -> PAW hartree energy PS =    -125.75013927 Ry
      -> PAW xc energy AE      =     -96.24010043 Ry
      -> PAW xc energy PS      =      20.93271032 Ry
      -> total E_H with PAW    =     208.01239821 Ry
      -> total E_XC with PAW   =    -189.67007473 Ry

     convergence has been achieved in   8 iterations

     Forces acting on atoms (cartesian axes, Ry/au):

     atom    1 type  1   force =    -0.00274202   -0.00274202    0.00274202
     atom    2 type  1   force =    -0.00274202    0.00274202   -0.00274202
     atom    3 type  1   force =     0.00274202   -0.00274202   -0.00274202
     atom    4 type  1   force =     0.00274202    0.00274202    0.00274202
     atom    5 type  2   force =    -0.00443102   -0.00443102    0.00443102
     atom    6 type  2   force =    -0.00443102    0.00443102   -0.00443102
     atom    7 type  2   force =     0.00443102   -0.00443102   -0.00443102
     atom    8 type  2   force =     0.00443102    0.00443102    0.00443102
     The non-local contrib.  to forces
     atom    1 type  1   force =     0.05124119    0.05124119   -0.05124119
     atom    2 type  1   force =     0.05124119   -0.05124119    0.05124119
     atom    3 type  1   force =    -0.05124119    0.05124119    0.05124119
     atom    4 type  1   force =    -0.05124119   -0.05124119   -0.05124119
     atom    5 type  2   force =    -0.00812050   -0.00812050    0.00812050
     atom    6 type  2   force =    -0.00812050    0.00812050   -0.00812050
     atom    7 type  2   force =     0.00812050   -0.00812050   -0.00812050
     atom    8 type  2   force =     0.00812050    0.00812050    0.00812050
     The ionic contribution  to forces
     atom    1 type  1   force =    -0.85044630   -0.85044630    0.85044630
     atom    2 type  1   force =    -0.85044630    0.85044630   -0.85044630
     atom    3 type  1   force =     0.85044630   -0.85044630   -0.85044630
     atom    4 type  1   force =     0.85044630    0.85044630    0.85044630
     atom    5 type  2   force =    -0.24524978   -0.24524978    0.24524978
     atom    6 type  2   force =    -0.24524978    0.24524978   -0.24524978
     atom    7 type  2   force =     0.24524978   -0.24524978   -0.24524978
     atom    8 type  2   force =     0.24524978    0.24524978    0.24524978
     The local contribution  to forces
     atom    1 type  1   force =     0.79741008    0.79741008   -0.79741008
     atom    2 type  1   force =     0.79741008   -0.79741008    0.79741008
     atom    3 type  1   force =    -0.79741008    0.79741008    0.79741008
     atom    4 type  1   force =    -0.79741008   -0.79741008   -0.79741008
     atom    5 type  2   force =     0.24815322    0.24815322   -0.24815322
     atom    6 type  2   force =     0.24815322   -0.24815322    0.24815322
     atom    7 type  2   force =    -0.24815322    0.24815322    0.24815322
     atom    8 type  2   force =    -0.24815322   -0.24815322   -0.24815322
     The core correction contribution to forces
     atom    1 type  1   force =    -0.00103171   -0.00103171    0.00103171
     atom    2 type  1   force =    -0.00103171    0.00103171   -0.00103171
     atom    3 type  1   force =     0.00103171   -0.00103171   -0.00103171
     atom    4 type  1   force =     0.00103171    0.00103171    0.00103171
     atom    5 type  2   force =     0.00079953    0.00079953   -0.00079953
     atom    6 type  2   force =     0.00079953   -0.00079953    0.00079953
     atom    7 type  2   force =    -0.00079953    0.00079953    0.00079953
     atom    8 type  2   force =    -0.00079953   -0.00079953   -0.00079953
     The Hubbard contrib.    to forces
     atom    1 type  1   force =     0.00000000    0.00000000    0.00000000
     atom    2 type  1   force =     0.00000000    0.00000000    0.00000000
     atom    3 type  1   force =     0.00000000    0.00000000    0.00000000
     atom    4 type  1   force =     0.00000000    0.00000000    0.00000000
     atom    5 type  2   force =     0.00000000    0.00000000    0.00000000
     atom    6 type  2   force =     0.00000000    0.00000000    0.00000000
     atom    7 type  2   force =     0.00000000    0.00000000    0.00000000
     atom    8 type  2   force =     0.00000000    0.00000000    0.00000000
     The SCF correction term to forces
     atom    1 type  1   force =     0.00008472    0.00008472   -0.00008472
     atom    2 type  1   force =     0.00008472   -0.00008472    0.00008472
     atom    3 type  1   force =    -0.00008472    0.00008472    0.00008472
     atom    4 type  1   force =    -0.00008472   -0.00008472   -0.00008472
     atom    5 type  2   force =    -0.00001350   -0.00001350    0.00001350
     atom    6 type  2   force =    -0.00001350    0.00001350   -0.00001350
     atom    7 type  2   force =     0.00001350   -0.00001350   -0.00001350
     atom    8 type  2   force =     0.00001350    0.00001350    0.00001350

     Total force =     0.018051     Total SCF correction =     0.000297


     Computing stress (Cartesian axis) and pressure

          total   stress  (Ry/bohr**3)                   (kbar)     P=      -40.83
  -0.00027752   0.00000000   0.00000000          -40.83        0.00        0.00
   0.00000000  -0.00027752   0.00000000            0.00      -40.83        0.00
   0.00000000   0.00000000  -0.00027752            0.00        0.00      -40.83

     kinetic stress (kbar)  35760.08      0.00      0.00
                                0.00  35760.08      0.00
                                0.00      0.00  35760.08

     local   stress (kbar) -10012.56      0.00     -0.00
                                0.00 -10012.56     -0.00
                               -0.00     -0.00 -10012.56

     nonloc. stress (kbar)   2428.10      0.00      0.00
                                0.00   2428.10      0.00
                                0.00      0.00   2428.10

     hartree stress (kbar)  15167.47     -0.00     -0.00
                               -0.00  15167.47      0.00
                               -0.00      0.00  15167.47

     exc-cor stress (kbar)  -1706.64     -0.00     -0.00
                               -0.00  -1706.64     -0.00
                               -0.00     -0.00  -1706.64

     corecor stress (kbar)  -5304.38      0.00      0.00
                                0.00  -5304.38     -0.00
                                0.00     -0.00  -5304.38

     ewald   stress (kbar) -36372.90      0.00      0.00
                                0.00 -36372.90      0.00
                                0.00      0.00 -36372.90

     hubbard stress (kbar)      0.00      0.00      0.00
                                0.00      0.00      0.00
                                0.00      0.00      0.00

     DFT-D   stress (kbar)      0.00      0.00      0.00
                                0.00      0.00      0.00
                                0.00      0.00      0.00

     XDM     stress (kbar)      0.00      0.00      0.00
                                0.00      0.00      0.00
                                0.00      0.00      0.00

     dft-nl  stress (kbar)      0.00      0.00      0.00
                                0.00      0.00      0.00
                                0.00      0.00      0.00

     TS-vdW  stress (kbar)      0.00      0.00      0.00
                                0.00      0.00      0.00
                                0.00      0.00      0.00



     Writing output data file /zfs_data/vergnior/martin/Scratch/OAL/CrSi/convergence/smearing/10x10x10/0.006/tmp/CrSi.save/
 
     init_run     :     14.27s CPU     14.73s WALL (       1 calls)
     electrons    :    497.76s CPU    513.51s WALL (       1 calls)
     forces       :     13.77s CPU     14.72s WALL (       1 calls)
     stress       :     42.93s CPU     43.32s WALL (       1 calls)

     Called by init_run:
     wfcinit      :     13.06s CPU     13.38s WALL (       1 calls)
     wfcinit:atom :      0.11s CPU      0.11s WALL (      76 calls)
     wfcinit:wfcr :     12.48s CPU     12.78s WALL (      76 calls)
     potinit      :      0.19s CPU      0.26s WALL (       1 calls)
     hinit0       :      0.17s CPU      0.18s WALL (       1 calls)

     Called by electrons:
     c_bands      :    401.16s CPU    412.87s WALL (       9 calls)
     sum_band     :     89.53s CPU     92.54s WALL (       9 calls)
     v_of_rho     :      0.32s CPU      0.34s WALL (       9 calls)
     v_h          :      0.03s CPU      0.03s WALL (       9 calls)
     v_xc         :      0.35s CPU      0.37s WALL (      11 calls)
     newd         :      5.57s CPU      6.57s WALL (       9 calls)
     PAW_pot      :      1.42s CPU      1.46s WALL (       9 calls)
     mix_rho      :      0.20s CPU      0.20s WALL (       9 calls)

     Called by c_bands:
     init_us_2    :      2.39s CPU      2.45s WALL (    1596 calls)
     cegterg      :    372.01s CPU    383.00s WALL (     684 calls)

     Called by sum_band:
     sum_band:wei :      0.09s CPU      0.10s WALL (       9 calls)
     sum_band:loo :     84.90s CPU     86.60s WALL (       9 calls)
     sum_band:buf :      0.60s CPU      0.69s WALL (     684 calls)
     sum_band:ini :      1.13s CPU      1.15s WALL (     684 calls)
     sum_band:cal :      5.14s CPU      5.19s WALL (     684 calls)
     sum_band:bec :     10.04s CPU     10.09s WALL (     684 calls)
     addusdens    :      4.24s CPU      5.53s WALL (       9 calls)
     addusd:skk   :      0.01s CPU      0.01s WALL (      18 calls)
     addusd:dgemm :      1.60s CPU      2.82s WALL (      18 calls)
     addusd:qvan2 :      2.59s CPU      2.62s WALL (      18 calls)

     Called by *egterg:
     cdiaghg      :     30.65s CPU     30.91s WALL (    3809 calls)
     cegterg:over :     19.44s CPU     19.83s WALL (    3201 calls)
     cegterg:upda :      9.45s CPU      9.60s WALL (    3201 calls)
     cegterg:last :     18.93s CPU     19.27s WALL (    2029 calls)
     h_psi        :    263.24s CPU    272.56s WALL (    3961 calls)
     s_psi        :     33.91s CPU     34.42s WALL (    3961 calls)
     g_psi        :      0.59s CPU      0.60s WALL (    3201 calls)

     Called by h_psi:
     h_psi:calbec :     17.29s CPU     17.64s WALL (    3961 calls)
     vloc_psi     :    213.58s CPU    221.85s WALL (    3961 calls)
     add_vuspsi   :     31.01s CPU     31.57s WALL (    3961 calls)

     General routines
     calbec       :     26.46s CPU     26.99s WALL (    5025 calls)
     fft          :      0.35s CPU      0.37s WALL (     216 calls)
     ffts         :      0.03s CPU      0.10s WALL (      72 calls)
     fftw         :    176.88s CPU    182.81s WALL (  949756 calls)
     interpolate  :      0.09s CPU      0.16s WALL (      36 calls)
 
     Parallel routines
     fft_scatt_xy :     17.15s CPU     17.76s WALL (  950044 calls)
     fft_scatt_yz :     70.80s CPU     73.08s WALL (  950044 calls)

     PAW routines
     PAW_pot      :      1.42s CPU      1.46s WALL (       9 calls)
     PAW_symme    :      0.02s CPU      0.02s WALL (      18 calls)
 
     PWSCF        :   9m32.90s CPU   9m53.97s WALL

 
   This run was terminated on:  12:39:14   1Aug2021            

=------------------------------------------------------------------------------=
   JOB DONE.
=------------------------------------------------------------------------------=
