MPI startup(): Warning: I_MPI_PMI_LIBRARY will be ignored since the hydra process manager was found
MPI startup(): Warning: I_MPI_PMI_LIBRARY will be ignored since the hydra process manager was found
MPI startup(): Warning: I_MPI_PMI_LIBRARY will be ignored since the hydra process manager was found
MPI startup(): Warning: I_MPI_PMI_LIBRARY will be ignored since the hydra process manager was found
MPI startup(): Warning: I_MPI_PMI_LIBRARY will be ignored since the hydra process manager was found
MPI startup(): Warning: I_MPI_PMI_LIBRARY will be ignored since the hydra process manager was found
MPI startup(): Warning: I_MPI_PMI_LIBRARY will be ignored since the hydra process manager was found
MPI startup(): Warning: I_MPI_PMI_LIBRARY will be ignored since the hydra process manager was found
MPI startup(): Warning: I_MPI_PMI_LIBRARY will be ignored since the hydra process manager was found
MPI startup(): Warning: I_MPI_PMI_LIBRARY will be ignored since the hydra process manager was found
MPI startup(): Warning: I_MPI_PMI_LIBRARY will be ignored since the hydra process manager was found
MPI startup(): Warning: I_MPI_PMI_LIBRARY will be ignored since the hydra process manager was found
MPI startup(): Warning: I_MPI_PMI_LIBRARY will be ignored since the hydra process manager was found
MPI startup(): Warning: I_MPI_PMI_LIBRARY will be ignored since the hydra process manager was found
MPI startup(): Warning: I_MPI_PMI_LIBRARY will be ignored since the hydra process manager was found
MPI startup(): Warning: I_MPI_PMI_LIBRARY will be ignored since the hydra process manager was found
MPI startup(): Warning: I_MPI_PMI_LIBRARY will be ignored since the hydra process manager was found
MPI startup(): Warning: I_MPI_PMI_LIBRARY will be ignored since the hydra process manager was found
MPI startup(): Warning: I_MPI_PMI_LIBRARY will be ignored since the hydra process manager was found
MPI startup(): Warning: I_MPI_PMI_LIBRARY will be ignored since the hydra process manager was found
MPI startup(): Warning: I_MPI_PMI_LIBRARY will be ignored since the hydra process manager was found
MPI startup(): Warning: I_MPI_PMI_LIBRARY will be ignored since the hydra process manager was found
MPI startup(): Warning: I_MPI_PMI_LIBRARY will be ignored since the hydra process manager was found
MPI startup(): Warning: I_MPI_PMI_LIBRARY will be ignored since the hydra process manager was found

     Program PWSCF v.6.7MaX starts on  1Aug2021 at 12:41:48 

     This program is part of the open-source Quantum ESPRESSO suite
     for quantum simulation of materials; please cite
         "P. Giannozzi et al., J. Phys.:Condens. Matter 21 395502 (2009);
         "P. Giannozzi et al., J. Phys.:Condens. Matter 29 465901 (2017);
          URL http://www.quantum-espresso.org", 
     in publications or presentations arising from this work. More details at
     http://www.quantum-espresso.org/quote

     Parallel version (MPI), running on    24 processors

     MPI processes distributed on     1 nodes
     R & G space division:  proc/nbgrp/npool/nimage =      24
     Waiting for input...
     Reading input from standard input

     Current dimensions of program PWSCF are:
     Max number of different atomic species (ntypx) = 10
     Max number of k-points (npk) =  40000
     Max angular momentum in pseudopotentials (lmaxx) =  3
     file Cr.rel-pbe-spn-kjpaw_psl.1.0.0.UPF: wavefunction(s)  3S 3P 3P 3D 3D renormalized
     file Si.rel-pbe-n-kjpaw_psl.1.0.0.UPF: wavefunction(s)  3S 3P 3P renormalized

     Subspace diagonalization in iterative solution of the eigenvalue problem:
     a serial algorithm will be used

     Message from routine setup:
     using ibrav=0 with symmetry is DISCOURAGED, use correct ibrav instead
 
     Parallelization info
     --------------------
     sticks:   dense  smooth     PW     G-vecs:    dense   smooth      PW
     Min         228      91     25                12702     3210     487
     Max         229      93     26                12704     3214     492
     Sum        5473    2201    621               304867    77053   11753
 


     bravais-lattice index     =            0
     lattice parameter (alat)  =       8.7475  a.u.
     unit-cell volume          =     669.3575 (a.u.)^3
     number of atoms/cell      =            8
     number of atomic types    =            2
     number of electrons       =        72.00
     number of Kohn-Sham states=           86
     kinetic-energy cutoff     =      90.0000  Ry
     charge density cutoff     =     900.0000  Ry
     scf convergence threshold =      1.0E-06
     mixing beta               =       0.7000
     number of iterations used =            8  plain     mixing
     Exchange-correlation= SLA  PW   PBX  PBC
                           (   1   4   3   4   0   0   0)
     Non magnetic calculation with spin-orbit


     celldm(1)=   8.747542  celldm(2)=   0.000000  celldm(3)=   0.000000
     celldm(4)=   0.000000  celldm(5)=   0.000000  celldm(6)=   0.000000

     crystal axes: (cart. coord. in units of alat)
               a(1) = (   1.000000   0.000000   0.000000 )  
               a(2) = (   0.000000   1.000000   0.000000 )  
               a(3) = (   0.000000   0.000000   1.000000 )  

     reciprocal axes: (cart. coord. in units 2 pi/alat)
               b(1) = (  1.000000  0.000000  0.000000 )  
               b(2) = (  0.000000  1.000000  0.000000 )  
               b(3) = (  0.000000  0.000000  1.000000 )  


     PseudoPot. # 1 for Cr read from file:
     ../../../../pseudo/Cr.rel-pbe-spn-kjpaw_psl.1.0.0.UPF
     MD5 check sum: 1e24e2b5251376a8b945118fca0c7981
     Pseudo is Projector augmented-wave + core cor, Zval = 14.0
     Generated using &quot;atomic&quot; code by A. Dal Corso  v.6.3
     Shape of augmentation charge: PSQ
     Using radial grid of 1183 points, 10 beta functions with: 
                l(1) =   0
                l(2) =   0
                l(3) =   1
                l(4) =   1
                l(5) =   1
                l(6) =   1
                l(7) =   2
                l(8) =   2
                l(9) =   2
               l(10) =   2
     Q(r) pseudized with 0 coefficients 


     PseudoPot. # 2 for Si read from file:
     ../../../../pseudo/Si.rel-pbe-n-kjpaw_psl.1.0.0.UPF
     MD5 check sum: d74f6caf6830ea4c2076867160cab1b0
     Pseudo is Projector augmented-wave + core cor, Zval =  4.0
     Generated using &quot;atomic&quot; code by A. Dal Corso  v.6.3
     Shape of augmentation charge: PSQ
     Using radial grid of 1141 points, 10 beta functions with: 
                l(1) =   0
                l(2) =   0
                l(3) =   1
                l(4) =   1
                l(5) =   1
                l(6) =   1
                l(7) =   2
                l(8) =   2
                l(9) =   2
               l(10) =   2
     Q(r) pseudized with 0 coefficients 


     atomic species   valence    mass     pseudopotential
        Cr            14.00    51.99600     Cr( 1.00)
        Si             4.00    28.08500     Si( 1.00)

     12 Sym. Ops. (no inversion) found ( 9 have fractional translation)


                                    s                        frac. trans.

      isym =  1     identity                                     

 cryst.   s( 1) = (     1          0          0      )
                  (     0          1          0      )
                  (     0          0          1      )

 cart.    s( 1) = (  1.0000000  0.0000000  0.0000000 )
                  (  0.0000000  1.0000000  0.0000000 )
                  (  0.0000000  0.0000000  1.0000000 )


      isym =  2     180 deg rotation - cart. axis [0,0,1]        

 cryst.   s( 2) = (    -1          0          0      )    f =(  0.5000000 )
                  (     0         -1          0      )       (  0.0000000 )
                  (     0          0          1      )       ( -0.5000000 )

 cart.    s( 2) = ( -1.0000000  0.0000000  0.0000000 )    f =(  0.5000000 )
                  (  0.0000000 -1.0000000  0.0000000 )       (  0.0000000 )
                  (  0.0000000  0.0000000  1.0000000 )       ( -0.5000000 )


      isym =  3     180 deg rotation - cart. axis [0,1,0]        

 cryst.   s( 3) = (    -1          0          0      )    f =(  0.0000000 )
                  (     0          1          0      )       ( -0.5000000 )
                  (     0          0         -1      )       (  0.5000000 )

 cart.    s( 3) = ( -1.0000000  0.0000000  0.0000000 )    f =(  0.0000000 )
                  (  0.0000000  1.0000000  0.0000000 )       ( -0.5000000 )
                  (  0.0000000  0.0000000 -1.0000000 )       (  0.5000000 )


      isym =  4     180 deg rotation - cart. axis [1,0,0]        

 cryst.   s( 4) = (     1          0          0      )    f =(  0.5000000 )
                  (     0         -1          0      )       (  0.5000000 )
                  (     0          0         -1      )       (  0.0000000 )

 cart.    s( 4) = (  1.0000000  0.0000000  0.0000000 )    f =(  0.5000000 )
                  (  0.0000000 -1.0000000  0.0000000 )       (  0.5000000 )
                  (  0.0000000  0.0000000 -1.0000000 )       (  0.0000000 )


      isym =  5     120 deg rotation - cart. axis [-1,-1,-1]     

 cryst.   s( 5) = (     0          0          1      )
                  (     1          0          0      )
                  (     0          1          0      )

 cart.    s( 5) = (  0.0000000  1.0000000  0.0000000 )
                  (  0.0000000  0.0000000  1.0000000 )
                  (  1.0000000  0.0000000  0.0000000 )


      isym =  6     120 deg rotation - cart. axis [-1,1,1]       

 cryst.   s( 6) = (     0          0         -1      )    f =(  0.0000000 )
                  (    -1          0          0      )       ( -0.5000000 )
                  (     0          1          0      )       (  0.5000000 )

 cart.    s( 6) = (  0.0000000 -1.0000000  0.0000000 )    f =(  0.0000000 )
                  (  0.0000000  0.0000000  1.0000000 )       ( -0.5000000 )
                  ( -1.0000000  0.0000000  0.0000000 )       (  0.5000000 )


      isym =  7     120 deg rotation - cart. axis [1,1,-1]       

 cryst.   s( 7) = (     0          0         -1      )    f =(  0.5000000 )
                  (     1          0          0      )       (  0.5000000 )
                  (     0         -1          0      )       (  0.0000000 )

 cart.    s( 7) = (  0.0000000  1.0000000  0.0000000 )    f =(  0.5000000 )
                  (  0.0000000  0.0000000 -1.0000000 )       (  0.5000000 )
                  ( -1.0000000  0.0000000  0.0000000 )       (  0.0000000 )


      isym =  8     120 deg rotation - cart. axis [1,-1,1]       

 cryst.   s( 8) = (     0          0          1      )    f =(  0.5000000 )
                  (    -1          0          0      )       (  0.0000000 )
                  (     0         -1          0      )       ( -0.5000000 )

 cart.    s( 8) = (  0.0000000 -1.0000000  0.0000000 )    f =(  0.5000000 )
                  (  0.0000000  0.0000000 -1.0000000 )       (  0.0000000 )
                  (  1.0000000  0.0000000  0.0000000 )       ( -0.5000000 )


      isym =  9     120 deg rotation - cart. axis [1,1,1]        

 cryst.   s( 9) = (     0          1          0      )
                  (     0          0          1      )
                  (     1          0          0      )

 cart.    s( 9) = (  0.0000000  0.0000000  1.0000000 )
                  (  1.0000000  0.0000000  0.0000000 )
                  (  0.0000000  1.0000000  0.0000000 )


      isym = 10     120 deg rotation - cart. axis [-1,1,-1]      

 cryst.   s(10) = (     0         -1          0      )    f =(  0.5000000 )
                  (     0          0         -1      )       (  0.5000000 )
                  (     1          0          0      )       (  0.0000000 )

 cart.    s(10) = (  0.0000000  0.0000000  1.0000000 )    f =(  0.5000000 )
                  ( -1.0000000  0.0000000  0.0000000 )       (  0.5000000 )
                  (  0.0000000 -1.0000000  0.0000000 )       (  0.0000000 )


      isym = 11     120 deg rotation - cart. axis [1,-1,-1]      

 cryst.   s(11) = (     0         -1          0      )    f =(  0.5000000 )
                  (     0          0          1      )       (  0.0000000 )
                  (    -1          0          0      )       ( -0.5000000 )

 cart.    s(11) = (  0.0000000  0.0000000 -1.0000000 )    f =(  0.5000000 )
                  ( -1.0000000  0.0000000  0.0000000 )       (  0.0000000 )
                  (  0.0000000  1.0000000  0.0000000 )       ( -0.5000000 )


      isym = 12     120 deg rotation - cart. axis [-1,-1,1]      

 cryst.   s(12) = (     0          1          0      )    f =(  0.0000000 )
                  (     0          0         -1      )       ( -0.5000000 )
                  (    -1          0          0      )       (  0.5000000 )

 cart.    s(12) = (  0.0000000  0.0000000 -1.0000000 )    f =(  0.0000000 )
                  (  1.0000000  0.0000000  0.0000000 )       ( -0.5000000 )
                  (  0.0000000 -1.0000000  0.0000000 )       (  0.5000000 )


   Cartesian axes

     site n.     atom                  positions (alat units)
         1           Cr  tau(   1) = (   0.8640000   0.3640000   0.1360000  )
         2           Cr  tau(   2) = (   0.3640000   0.1360000   0.8640000  )
         3           Cr  tau(   3) = (   0.1360000   0.8640000   0.3640000  )
         4           Cr  tau(   4) = (   0.6360000   0.6360000   0.6360000  )
         5           Si  tau(   5) = (   0.1540000   0.6540000   0.8460000  )
         6           Si  tau(   6) = (   0.6540000   0.8460000   0.1540000  )
         7           Si  tau(   7) = (   0.8460000   0.1540000   0.6540000  )
         8           Si  tau(   8) = (   0.3460000   0.3460000   0.3460000  )

   Crystallographic axes

     site n.     atom                  positions (cryst. coord.)
         1           Cr  tau(   1) = (  0.8640000  0.3640000  0.1360000  )
         2           Cr  tau(   2) = (  0.3640000  0.1360000  0.8640000  )
         3           Cr  tau(   3) = (  0.1360000  0.8640000  0.3640000  )
         4           Cr  tau(   4) = (  0.6360000  0.6360000  0.6360000  )
         5           Si  tau(   5) = (  0.1540000  0.6540000  0.8460000  )
         6           Si  tau(   6) = (  0.6540000  0.8460000  0.1540000  )
         7           Si  tau(   7) = (  0.8460000  0.1540000  0.6540000  )
         8           Si  tau(   8) = (  0.3460000  0.3460000  0.3460000  )

     number of k points=    24  Methfessel-Paxton smearing, width (Ry)=  0.0060
                       cart. coord. in units 2pi/alat
        k(    1) = (   0.0000000   0.0000000   0.0000000), wk =   0.0046296
        k(    2) = (   0.0000000   0.0000000   0.1666667), wk =   0.0277778
        k(    3) = (   0.0000000   0.0000000   0.3333333), wk =   0.0277778
        k(    4) = (   0.0000000   0.0000000  -0.5000000), wk =   0.0138889
        k(    5) = (   0.0000000   0.1666667   0.1666667), wk =   0.0555556
        k(    6) = (   0.0000000   0.1666667   0.3333333), wk =   0.0555556
        k(    7) = (   0.0000000   0.1666667  -0.5000000), wk =   0.0277778
        k(    8) = (   0.0000000   0.3333333   0.3333333), wk =   0.0555556
        k(    9) = (   0.0000000   0.3333333  -0.5000000), wk =   0.0277778
        k(   10) = (   0.0000000  -0.5000000  -0.5000000), wk =   0.0138889
        k(   11) = (   0.1666667   0.1666667   0.1666667), wk =   0.0370370
        k(   12) = (   0.1666667   0.1666667   0.3333333), wk =   0.1111111
        k(   13) = (   0.1666667   0.1666667  -0.5000000), wk =   0.0555556
        k(   14) = (   0.1666667   0.3333333   0.3333333), wk =   0.1111111
        k(   15) = (   0.1666667   0.3333333  -0.5000000), wk =   0.0555556
        k(   16) = (   0.1666667  -0.5000000  -0.5000000), wk =   0.0277778
        k(   17) = (   0.3333333   0.3333333   0.3333333), wk =   0.0370370
        k(   18) = (   0.3333333   0.3333333  -0.5000000), wk =   0.0555556
        k(   19) = (   0.3333333  -0.5000000  -0.5000000), wk =   0.0277778
        k(   20) = (  -0.5000000  -0.5000000  -0.5000000), wk =   0.0046296
        k(   21) = (   0.0000000   0.3333333   0.1666667), wk =   0.0555556
        k(   22) = (   0.0000000  -0.5000000   0.1666667), wk =   0.0277778
        k(   23) = (   0.0000000  -0.5000000   0.3333333), wk =   0.0277778
        k(   24) = (  -0.1666667  -0.5000000   0.3333333), wk =   0.0555556

                       cryst. coord.
        k(    1) = (   0.0000000   0.0000000   0.0000000), wk =   0.0046296
        k(    2) = (   0.0000000   0.0000000   0.1666667), wk =   0.0277778
        k(    3) = (   0.0000000   0.0000000   0.3333333), wk =   0.0277778
        k(    4) = (   0.0000000   0.0000000  -0.5000000), wk =   0.0138889
        k(    5) = (   0.0000000   0.1666667   0.1666667), wk =   0.0555556
        k(    6) = (   0.0000000   0.1666667   0.3333333), wk =   0.0555556
        k(    7) = (   0.0000000   0.1666667  -0.5000000), wk =   0.0277778
        k(    8) = (   0.0000000   0.3333333   0.3333333), wk =   0.0555556
        k(    9) = (   0.0000000   0.3333333  -0.5000000), wk =   0.0277778
        k(   10) = (   0.0000000  -0.5000000  -0.5000000), wk =   0.0138889
        k(   11) = (   0.1666667   0.1666667   0.1666667), wk =   0.0370370
        k(   12) = (   0.1666667   0.1666667   0.3333333), wk =   0.1111111
        k(   13) = (   0.1666667   0.1666667  -0.5000000), wk =   0.0555556
        k(   14) = (   0.1666667   0.3333333   0.3333333), wk =   0.1111111
        k(   15) = (   0.1666667   0.3333333  -0.5000000), wk =   0.0555556
        k(   16) = (   0.1666667  -0.5000000  -0.5000000), wk =   0.0277778
        k(   17) = (   0.3333333   0.3333333   0.3333333), wk =   0.0370370
        k(   18) = (   0.3333333   0.3333333  -0.5000000), wk =   0.0555556
        k(   19) = (   0.3333333  -0.5000000  -0.5000000), wk =   0.0277778
        k(   20) = (  -0.5000000  -0.5000000  -0.5000000), wk =   0.0046296
        k(   21) = (   0.0000000   0.3333333   0.1666667), wk =   0.0555556
        k(   22) = (   0.0000000  -0.5000000   0.1666667), wk =   0.0277778
        k(   23) = (   0.0000000  -0.5000000   0.3333333), wk =   0.0277778
        k(   24) = (  -0.1666667  -0.5000000   0.3333333), wk =   0.0555556

     Dense  grid:   304867 G-vectors     FFT dimensions: (  90,  90,  90)

     Smooth grid:    77053 G-vectors     FFT dimensions: (  54,  54,  54)

     Dynamical RAM for                 wfc:       1.06 MB

     Dynamical RAM for     wfc (w. buffer):      26.38 MB

     Dynamical RAM for           str. fact:       0.39 MB

     Dynamical RAM for           local pot:       0.00 MB

     Dynamical RAM for          nlocal pot:       1.67 MB

     Dynamical RAM for                qrad:      12.61 MB

     Dynamical RAM for          rho,v,vnew:       5.29 MB

     Dynamical RAM for               rhoin:       1.76 MB

     Dynamical RAM for            rho*nmix:      12.41 MB

     Dynamical RAM for           G-vectors:       0.75 MB

     Dynamical RAM for          h,s,v(r/c):       1.35 MB

     Dynamical RAM for          <psi|beta>:       0.71 MB

     Dynamical RAM for                 psi:       2.11 MB

     Dynamical RAM for                hpsi:       2.11 MB

     Dynamical RAM for                spsi:       2.11 MB

     Dynamical RAM for      wfcinit/wfcrot:       2.35 MB

     Dynamical RAM for           addusdens:     119.02 MB

     Dynamical RAM for          addusforce:     120.34 MB

     Dynamical RAM for         addusstress:     121.74 MB

     Estimated static dynamical RAM per process >      63.81 MB

     Estimated max dynamical RAM per process >     185.55 MB

     Estimated total dynamical RAM >       4.35 GB

     Initial potential from superposition of free atoms

     starting charge   71.99469, renormalised to   72.00000
     Starting wfcs are  112 randomized atomic wfcs
     Checking if some PAW data can be deallocated... 
       PAW data deallocated on   12 nodes for type:  1
       PAW data deallocated on   12 nodes for type:  2

     total cpu time spent up to now is        8.2 secs

     Self-consistent Calculation

     iteration #  1     ecut=    90.00 Ry     beta= 0.70
     Davidson diagonalization with overlap
     ethr =  1.00E-02,  avg # of iterations =  2.0

     Threshold (ethr) on eigenvalues was too large:
     Diagonalizing with lowered threshold

     Davidson diagonalization with overlap
     ethr =  2.10E-04,  avg # of iterations =  4.5

     total cpu time spent up to now is       36.7 secs

     total energy              =   -1180.30824442 Ry
     estimated scf accuracy    <       0.18840682 Ry

     iteration #  2     ecut=    90.00 Ry     beta= 0.70
     Davidson diagonalization with overlap
     ethr =  2.62E-04,  avg # of iterations =  3.1

     total cpu time spent up to now is       51.4 secs

     total energy              =   -1180.31590160 Ry
     estimated scf accuracy    <       0.07446588 Ry

     iteration #  3     ecut=    90.00 Ry     beta= 0.70
     Davidson diagonalization with overlap
     ethr =  1.03E-04,  avg # of iterations =  5.0

     total cpu time spent up to now is       69.3 secs

     total energy              =   -1180.32527568 Ry
     estimated scf accuracy    <       0.15594814 Ry

     iteration #  4     ecut=    90.00 Ry     beta= 0.70
     Davidson diagonalization with overlap
     ethr =  1.03E-04,  avg # of iterations =  4.1

     total cpu time spent up to now is       84.0 secs

     total energy              =   -1180.34852504 Ry
     estimated scf accuracy    <       0.00052039 Ry

     iteration #  5     ecut=    90.00 Ry     beta= 0.70
     Davidson diagonalization with overlap
     ethr =  7.23E-07,  avg # of iterations =  7.2

     total cpu time spent up to now is      104.3 secs

     total energy              =   -1180.34909440 Ry
     estimated scf accuracy    <       0.00021366 Ry

     iteration #  6     ecut=    90.00 Ry     beta= 0.70
     Davidson diagonalization with overlap
     ethr =  2.97E-07,  avg # of iterations =  3.0

     total cpu time spent up to now is      117.3 secs

     total energy              =   -1180.34913536 Ry
     estimated scf accuracy    <       0.00000179 Ry

     iteration #  7     ecut=    90.00 Ry     beta= 0.70
     Davidson diagonalization with overlap
     ethr =  2.49E-09,  avg # of iterations =  8.6

     total cpu time spent up to now is      141.3 secs

     total energy              =   -1180.34913711 Ry
     estimated scf accuracy    <       0.00001872 Ry

     iteration #  8     ecut=    90.00 Ry     beta= 0.70
     Davidson diagonalization with overlap
     ethr =  2.49E-09,  avg # of iterations =  5.2

     total cpu time spent up to now is      160.0 secs

     total energy              =   -1180.34914076 Ry
     estimated scf accuracy    <       0.00000141 Ry

     iteration #  9     ecut=    90.00 Ry     beta= 0.70
     Davidson diagonalization with overlap
     ethr =  1.95E-09,  avg # of iterations =  1.2

     total cpu time spent up to now is      171.2 secs

     End of self-consistent calculation

          k = 0.0000 0.0000 0.0000 (  9771 PWs)   bands (ev):

   -56.5137 -56.5137 -56.4790 -56.4790 -56.4790 -56.4790 -56.4790 -56.4790
   -28.5792 -28.5792 -28.5716 -28.5716 -28.5716 -28.5716 -28.4823 -28.4823
   -27.6138 -27.6138 -27.6138 -27.6138 -27.5370 -27.5370 -27.5370 -27.5370
   -27.5318 -27.5318 -27.4493 -27.4493 -27.4493 -27.4493 -27.4493 -27.4493
     2.6986   2.6986   7.4572   7.4572   7.4572   7.4572   7.4663   7.4663
    10.5374  10.5374  10.5453  10.5453  10.5453  10.5453  11.9115  11.9115
    11.9115  11.9115  11.9226  11.9226  12.6030  12.6030  12.7725  12.7725
    12.7725  12.7725  13.1444  13.1444  13.1444  13.1444  13.1455  13.1455
    13.6722  13.6722  13.6722  13.6722  13.6760  13.6760  15.5529  15.5529
    15.5842  15.5842  15.5842  15.5842  15.7673  15.7673  15.7673  15.7673
    16.6663  16.6663  16.6966  16.6966  16.6966  16.6966

     occupation numbers 
     1.0000   1.0000   1.0000   1.0000   1.0000   1.0000   1.0000   1.0000
     1.0000   1.0000   1.0000   1.0000   1.0000   1.0000   1.0000   1.0000
     1.0000   1.0000   1.0000   1.0000   1.0000   1.0000   1.0000   1.0000
     1.0000   1.0000   1.0000   1.0000   1.0000   1.0000   1.0000   1.0000
     1.0000   1.0000   1.0000   1.0000   1.0000   1.0000   1.0000   1.0000
     1.0000   1.0000   1.0000   1.0000   1.0000   1.0000   1.0000   1.0000
     1.0000   1.0000   1.0000   1.0000   1.0000   1.0000   1.0000   1.0000
     1.0000   1.0000   1.0000   1.0000   1.0000   1.0000   1.0000   1.0000
     1.0000   1.0000   1.0000   1.0000   1.0000   1.0000  -0.0000  -0.0000
    -0.0000  -0.0000  -0.0000  -0.0000  -0.0000  -0.0000  -0.0000  -0.0000
    -0.0000  -0.0000  -0.0000  -0.0000  -0.0000  -0.0000

          k = 0.0000 0.0000 0.1667 (  9663 PWs)   bands (ev):

   -56.5119 -56.5119 -56.4846 -56.4846 -56.4784 -56.4784 -56.4757 -56.4757
   -28.5869 -28.5799 -28.5759 -28.5753 -28.5611 -28.5579 -28.4874 -28.4873
   -27.6305 -27.6225 -27.6005 -27.5929 -27.5495 -27.5438 -27.5393 -27.5308
   -27.5282 -27.5148 -27.4599 -27.4579 -27.4547 -27.4479 -27.4468 -27.4415
     2.8907   2.8907   6.5402   6.5427   7.5633   7.5653   8.1200   8.1294
     9.9484   9.9526  10.6630  10.6655  11.0719  11.0748  11.2875  11.2883
    11.5004  11.5052  12.4496  12.4600  12.7396  12.7619  12.8031  12.8098
    13.0118  13.0151  13.1086  13.1111  13.1978  13.1998  13.2286  13.2289
    13.5322  13.5422  13.6327  13.6353  13.9639  13.9644  15.2948  15.3157
    15.4183  15.4259  15.6941  15.7036  15.7493  15.7677  15.7934  15.8190
    16.4080  16.4235  16.5962  16.6037  16.9914  17.0119

     occupation numbers 
     1.0000   1.0000   1.0000   1.0000   1.0000   1.0000   1.0000   1.0000
     1.0000   1.0000   1.0000   1.0000   1.0000   1.0000   1.0000   1.0000
     1.0000   1.0000   1.0000   1.0000   1.0000   1.0000   1.0000   1.0000
     1.0000   1.0000   1.0000   1.0000   1.0000   1.0000   1.0000   1.0000
     1.0000   1.0000   1.0000   1.0000   1.0000   1.0000   1.0000   1.0000
     1.0000   1.0000   1.0000   1.0000   1.0000   1.0000   1.0000   1.0000
     1.0000   1.0000   1.0000   1.0000   1.0000   1.0000   1.0000   1.0000
     1.0000   1.0000   1.0000   1.0000   1.0000   1.0000   1.0000   1.0000
     1.0000   1.0000   1.0000   1.0000   1.0000   1.0000  -0.0000  -0.0000
    -0.0000  -0.0000  -0.0000  -0.0000  -0.0000  -0.0000  -0.0000  -0.0000
    -0.0000  -0.0000  -0.0000  -0.0000  -0.0000  -0.0000

          k = 0.0000 0.0000 0.3333 (  9606 PWs)   bands (ev):

   -56.5070 -56.5070 -56.4919 -56.4919 -56.4770 -56.4770 -56.4747 -56.4747
   -28.5895 -28.5827 -28.5816 -28.5778 -28.5423 -28.5397 -28.5013 -28.5008
   -27.6383 -27.6305 -27.5821 -27.5776 -27.5619 -27.5425 -27.5372 -27.5279
   -27.5270 -27.4954 -27.4776 -27.4642 -27.4613 -27.4506 -27.4458 -27.4397
     3.4512   3.4512   5.4202   5.4210   7.8605   7.8646   8.5104   8.5201
     9.6516   9.6531  10.6589  10.6613  10.7714  10.7838  11.0450  11.0480
    11.8633  11.8653  12.1347  12.1504  12.8388  12.8549  12.9336  12.9430
    13.1152  13.1210  13.1706  13.1757  13.2590  13.2619  13.3946  13.3969
    13.4525  13.4546  13.9164  13.9202  14.1182  14.1250  14.8904  14.9245
    15.3592  15.3676  15.5370  15.5554  15.7453  15.7736  15.8557  15.8798
    16.1956  16.2115  16.3715  16.3851  17.3067  17.3227

     occupation numbers 
     1.0000   1.0000   1.0000   1.0000   1.0000   1.0000   1.0000   1.0000
     1.0000   1.0000   1.0000   1.0000   1.0000   1.0000   1.0000   1.0000
     1.0000   1.0000   1.0000   1.0000   1.0000   1.0000   1.0000   1.0000
     1.0000   1.0000   1.0000   1.0000   1.0000   1.0000   1.0000   1.0000
     1.0000   1.0000   1.0000   1.0000   1.0000   1.0000   1.0000   1.0000
     1.0000   1.0000   1.0000   1.0000   1.0000   1.0000   1.0000   1.0000
     1.0000   1.0000   1.0000   1.0000   1.0000   1.0000   1.0000   1.0000
     1.0000   1.0000   1.0000   1.0000   1.0000   1.0000   1.0000   1.0000
     1.0000   1.0000   1.0000   1.0000   1.0000   1.0000   0.9228   0.6561
    -0.0000  -0.0000  -0.0000  -0.0000  -0.0000  -0.0000  -0.0000  -0.0000
    -0.0000  -0.0000  -0.0000  -0.0000  -0.0000  -0.0000

          k = 0.0000 0.0000-0.5000 (  9658 PWs)   bands (ev):

   -56.4999 -56.4999 -56.4999 -56.4999 -56.4754 -56.4754 -56.4754 -56.4754
   -28.5870 -28.5870 -28.5813 -28.5813 -28.5210 -28.5210 -28.5196 -28.5196
   -27.6372 -27.6372 -27.5717 -27.5717 -27.5568 -27.5568 -27.5341 -27.5341
   -27.5028 -27.5028 -27.4779 -27.4779 -27.4563 -27.4563 -27.4426 -27.4426
     4.3287   4.3287   4.3288   4.3288   8.2831   8.2831   8.2896   8.2896
    10.0168  10.0168  10.0208  10.0208  10.8982  10.8982  10.9094  10.9094
    12.2478  12.2478  12.2544  12.2544  12.6859  12.6859  12.6983  12.6983
    13.1427  13.1427  13.1431  13.1431  13.2379  13.2379  13.2416  13.2416
    13.7832  13.7832  13.7863  13.7863  14.5660  14.5660  14.5946  14.5946
    15.4026  15.4026  15.4204  15.4204  15.8073  15.8073  15.8370  15.8370
    16.1667  16.1667  16.1805  16.1805  17.5445  17.5476

     occupation numbers 
     1.0000   1.0000   1.0000   1.0000   1.0000   1.0000   1.0000   1.0000
     1.0000   1.0000   1.0000   1.0000   1.0000   1.0000   1.0000   1.0000
     1.0000   1.0000   1.0000   1.0000   1.0000   1.0000   1.0000   1.0000
     1.0000   1.0000   1.0000   1.0000   1.0000   1.0000   1.0000   1.0000
     1.0000   1.0000   1.0000   1.0000   1.0000   1.0000   1.0000   1.0000
     1.0000   1.0000   1.0000   1.0000   1.0000   1.0000   1.0000   1.0000
     1.0000   1.0000   1.0000   1.0000   1.0000   1.0000   1.0000   1.0000
     1.0000   1.0000   1.0000   1.0000   1.0000   1.0000   1.0000   1.0000
     1.0000   1.0000   1.0000   1.0000   1.0000   1.0000   1.0000   1.0000
    -0.0000  -0.0000  -0.0000  -0.0000  -0.0000  -0.0000  -0.0000  -0.0000
    -0.0000  -0.0000  -0.0000  -0.0000  -0.0000  -0.0000

          k = 0.0000 0.1667 0.1667 (  9657 PWs)   bands (ev):

   -56.5102 -56.5102 -56.4865 -56.4865 -56.4790 -56.4790 -56.4749 -56.4749
   -28.5887 -28.5828 -28.5736 -28.5735 -28.5574 -28.5535 -28.4921 -28.4920
   -27.6313 -27.6272 -27.5913 -27.5874 -27.5508 -27.5475 -27.5426 -27.5364
   -27.5201 -27.5056 -27.4687 -27.4650 -27.4576 -27.4490 -27.4421 -27.4378
     3.0803   3.0804   6.3975   6.4019   7.2079   7.2123   8.4073   8.4127
     9.8328   9.8361  10.5099  10.5124  10.7874  10.7887  11.3574  11.3604
    11.7801  11.7805  12.4123  12.4180  12.5881  12.5958  12.9952  12.9966
    13.0912  13.0994  13.1725  13.1732  13.2441  13.2508  13.3363  13.3413
    13.4677  13.4755  13.7329  13.7470  14.0757  14.0831  15.2527  15.2745
    15.3022  15.3216  15.5366  15.5486  15.6965  15.7175  15.8152  15.8397
    16.2781  16.2951  16.6078  16.6175  17.0335  17.0680

     occupation numbers 
     1.0000   1.0000   1.0000   1.0000   1.0000   1.0000   1.0000   1.0000
     1.0000   1.0000   1.0000   1.0000   1.0000   1.0000   1.0000   1.0000
     1.0000   1.0000   1.0000   1.0000   1.0000   1.0000   1.0000   1.0000
     1.0000   1.0000   1.0000   1.0000   1.0000   1.0000   1.0000   1.0000
     1.0000   1.0000   1.0000   1.0000   1.0000   1.0000   1.0000   1.0000
     1.0000   1.0000   1.0000   1.0000   1.0000   1.0000   1.0000   1.0000
     1.0000   1.0000   1.0000   1.0000   1.0000   1.0000   1.0000   1.0000
     1.0000   1.0000   1.0000   1.0000   1.0000   1.0000   1.0000   1.0000
     1.0000   1.0000   1.0000   1.0000   1.0000   1.0000  -0.0000  -0.0000
    -0.0000  -0.0000  -0.0000  -0.0000  -0.0000  -0.0000  -0.0000  -0.0000
    -0.0000  -0.0000  -0.0000  -0.0000  -0.0000  -0.0000

          k = 0.0000 0.1667 0.3333 (  9647 PWs)   bands (ev):

   -56.5056 -56.5056 -56.4920 -56.4920 -56.4780 -56.4780 -56.4749 -56.4749
   -28.5885 -28.5834 -28.5774 -28.5752 -28.5429 -28.5403 -28.5052 -28.5049
   -27.6346 -27.6292 -27.5803 -27.5747 -27.5606 -27.5474 -27.5407 -27.5326
   -27.5214 -27.4918 -27.4862 -27.4706 -27.4632 -27.4520 -27.4384 -27.4347
     3.6328   3.6330   5.5379   5.5396   7.3632   7.3659   8.4332   8.4365
     9.7330   9.7363  10.1893  10.1936  10.9879  10.9910  11.3853  11.3950
    11.7524  11.7568  12.1894  12.1982  12.5947  12.6023  12.8765  12.8853
    13.1129  13.1223  13.2518  13.2576  13.3795  13.3808  13.5263  13.5364
    13.5897  13.6029  13.9891  13.9997  14.2441  14.2566  14.9101  14.9411
    15.2257  15.2443  15.3460  15.3560  15.6549  15.6799  15.8071  15.8374
    16.1524  16.1619  16.4401  16.4532  17.2369  17.2698

     occupation numbers 
     1.0000   1.0000   1.0000   1.0000   1.0000   1.0000   1.0000   1.0000
     1.0000   1.0000   1.0000   1.0000   1.0000   1.0000   1.0000   1.0000
     1.0000   1.0000   1.0000   1.0000   1.0000   1.0000   1.0000   1.0000
     1.0000   1.0000   1.0000   1.0000   1.0000   1.0000   1.0000   1.0000
     1.0000   1.0000   1.0000   1.0000   1.0000   1.0000   1.0000   1.0000
     1.0000   1.0000   1.0000   1.0000   1.0000   1.0000   1.0000   1.0000
     1.0000   1.0000   1.0000   1.0000   1.0000   1.0000   1.0000   1.0000
     1.0000   1.0000   1.0000   1.0000   1.0000   1.0000   1.0000   1.0000
     1.0000   1.0000   1.0000   1.0000   1.0000   1.0000   0.7870   0.4872
    -0.0000  -0.0000  -0.0000  -0.0000  -0.0000  -0.0000  -0.0000  -0.0000
    -0.0000  -0.0000  -0.0000  -0.0000  -0.0000  -0.0000

          k = 0.0000 0.1667-0.5000 (  9654 PWs)   bands (ev):

   -56.4991 -56.4991 -56.4991 -56.4991 -56.4762 -56.4762 -56.4762 -56.4762
   -28.5847 -28.5847 -28.5791 -28.5791 -28.5243 -28.5243 -28.5217 -28.5217
   -27.6329 -27.6329 -27.5720 -27.5720 -27.5574 -27.5574 -27.5334 -27.5334
   -27.5104 -27.5104 -27.4783 -27.4783 -27.4588 -27.4588 -27.4356 -27.4356
     4.4934   4.4934   4.4941   4.4941   7.8954   7.8954   7.9023   7.9023
    10.0150  10.0150  10.0189  10.0189  11.1034  11.1034  11.1175  11.1175
    12.0906  12.0906  12.0951  12.0951  12.5403  12.5403  12.5561  12.5561
    13.2762  13.2762  13.2771  13.2771  13.3915  13.3915  13.3927  13.3927
    13.8670  13.8670  13.8710  13.8710  14.6212  14.6212  14.6525  14.6525
    15.2385  15.2385  15.2532  15.2532  15.7153  15.7153  15.7450  15.7450
    16.2404  16.2404  16.2510  16.2510  17.4840  17.4871

     occupation numbers 
     1.0000   1.0000   1.0000   1.0000   1.0000   1.0000   1.0000   1.0000
     1.0000   1.0000   1.0000   1.0000   1.0000   1.0000   1.0000   1.0000
     1.0000   1.0000   1.0000   1.0000   1.0000   1.0000   1.0000   1.0000
     1.0000   1.0000   1.0000   1.0000   1.0000   1.0000   1.0000   1.0000
     1.0000   1.0000   1.0000   1.0000   1.0000   1.0000   1.0000   1.0000
     1.0000   1.0000   1.0000   1.0000   1.0000   1.0000   1.0000   1.0000
     1.0000   1.0000   1.0000   1.0000   1.0000   1.0000   1.0000   1.0000
     1.0000   1.0000   1.0000   1.0000   1.0000   1.0000   1.0000   1.0000
     1.0000   1.0000   1.0000   1.0000   1.0000   1.0000   1.0000   1.0000
    -0.0000  -0.0000  -0.0000  -0.0000  -0.0000  -0.0000  -0.0000  -0.0000
    -0.0000  -0.0000  -0.0000  -0.0000  -0.0000  -0.0000

          k = 0.0000 0.3333 0.3333 (  9619 PWs)   bands (ev):

   -56.5020 -56.5020 -56.4934 -56.4934 -56.4790 -56.4790 -56.4761 -56.4761
   -28.5846 -28.5806 -28.5736 -28.5727 -28.5406 -28.5382 -28.5161 -28.5153
   -27.6261 -27.6248 -27.5815 -27.5758 -27.5566 -27.5489 -27.5366 -27.5364
   -27.5202 -27.4998 -27.4976 -27.4862 -27.4573 -27.4436 -27.4341 -27.4310
     4.1584   4.1588   5.6400   5.6422   6.6786   6.6814   7.8201   7.8239
    10.0318  10.0345  10.3052  10.3082  10.9411  10.9429  11.2584  11.2606
    11.8950  11.9016  12.1584  12.1628  12.3098  12.3193  12.6286  12.6364
    13.1795  13.1878  13.3914  13.3964  13.5601  13.5629  13.7208  13.7261
    13.8838  13.8954  14.0947  14.1074  14.4883  14.5140  14.8488  14.8605
    14.9416  14.9618  15.0581  15.0748  15.5229  15.5460  15.6034  15.6334
    16.2331  16.2419  16.4906  16.4975  17.1474  17.1780

     occupation numbers 
     1.0000   1.0000   1.0000   1.0000   1.0000   1.0000   1.0000   1.0000
     1.0000   1.0000   1.0000   1.0000   1.0000   1.0000   1.0000   1.0000
     1.0000   1.0000   1.0000   1.0000   1.0000   1.0000   1.0000   1.0000
     1.0000   1.0000   1.0000   1.0000   1.0000   1.0000   1.0000   1.0000
     1.0000   1.0000   1.0000   1.0000   1.0000   1.0000   1.0000   1.0000
     1.0000   1.0000   1.0000   1.0000   1.0000   1.0000   1.0000   1.0000
     1.0000   1.0000   1.0000   1.0000   1.0000   1.0000   1.0000   1.0000
     1.0000   1.0000   1.0000   1.0000   1.0000   1.0000   1.0000   1.0000
     1.0000   1.0000   1.0000   1.0000   1.0000   1.0000   1.0333   1.0220
     0.4822   0.2813  -0.0298  -0.0206  -0.0000  -0.0000  -0.0000  -0.0000
    -0.0000  -0.0000  -0.0000  -0.0000  -0.0000  -0.0000

          k = 0.0000 0.3333-0.5000 (  9646 PWs)   bands (ev):

   -56.4973 -56.4973 -56.4973 -56.4973 -56.4780 -56.4780 -56.4780 -56.4780
   -28.5788 -28.5788 -28.5746 -28.5746 -28.5307 -28.5307 -28.5278 -28.5278
   -27.6208 -27.6208 -27.5838 -27.5838 -27.5488 -27.5488 -27.5313 -27.5313
   -27.5186 -27.5186 -27.4971 -27.4971 -27.4460 -27.4460 -27.4314 -27.4314
     4.9496   4.9496   4.9509   4.9509   7.0288   7.0288   7.0337   7.0337
    10.3308  10.3308  10.3328  10.3328  11.2380  11.2380  11.2464  11.2464
    11.7611  11.7611  11.7666  11.7666  12.3342  12.3342  12.3416  12.3416
    13.3670  13.3670  13.3741  13.3741  13.6754  13.6754  13.6841  13.6841
    14.1709  14.1709  14.1765  14.1765  14.6113  14.6113  14.6304  14.6304
    14.9441  14.9441  14.9590  14.9590  15.4987  15.4987  15.5229  15.5229
    16.4411  16.4411  16.4519  16.4519  17.1957  17.1961

     occupation numbers 
     1.0000   1.0000   1.0000   1.0000   1.0000   1.0000   1.0000   1.0000
     1.0000   1.0000   1.0000   1.0000   1.0000   1.0000   1.0000   1.0000
     1.0000   1.0000   1.0000   1.0000   1.0000   1.0000   1.0000   1.0000
     1.0000   1.0000   1.0000   1.0000   1.0000   1.0000   1.0000   1.0000
     1.0000   1.0000   1.0000   1.0000   1.0000   1.0000   1.0000   1.0000
     1.0000   1.0000   1.0000   1.0000   1.0000   1.0000   1.0000   1.0000
     1.0000   1.0000   1.0000   1.0000   1.0000   1.0000   1.0000   1.0000
     1.0000   1.0000   1.0000   1.0000   1.0000   1.0000   1.0000   1.0000
     1.0000   1.0000   1.0000   1.0000   1.0000   1.0000   1.0000   1.0000
     0.4559   0.4559   0.3072   0.3072  -0.0000  -0.0000  -0.0000  -0.0000
    -0.0000  -0.0000  -0.0000  -0.0000  -0.0000  -0.0000

          k = 0.0000-0.5000-0.5000 (  9580 PWs)   bands (ev):

   -56.4962 -56.4962 -56.4962 -56.4962 -56.4790 -56.4790 -56.4790 -56.4790
   -28.5735 -28.5735 -28.5735 -28.5735 -28.5329 -28.5329 -28.5329 -28.5329
   -27.6030 -27.6030 -27.6030 -27.6030 -27.5355 -27.5355 -27.5355 -27.5355
   -27.5150 -27.5150 -27.5150 -27.5150 -27.4352 -27.4352 -27.4352 -27.4352
     5.3715   5.3715   5.3715   5.3715   6.4279   6.4279   6.4279   6.4279
    10.7061  10.7061  10.7061  10.7061  11.2431  11.2431  11.2431  11.2431
    11.3854  11.3854  11.3854  11.3854  12.2847  12.2847  12.2847  12.2847
    13.3624  13.3624  13.3624  13.3624  14.0076  14.0076  14.0076  14.0076
    14.2945  14.2945  14.2945  14.2945  14.5257  14.5257  14.5257  14.5257
    14.7583  14.7583  14.7583  14.7583  15.4181  15.4181  15.4181  15.4181
    16.5882  16.5882  16.5882  16.5882  16.9851  16.9851

     occupation numbers 
     1.0000   1.0000   1.0000   1.0000   1.0000   1.0000   1.0000   1.0000
     1.0000   1.0000   1.0000   1.0000   1.0000   1.0000   1.0000   1.0000
     1.0000   1.0000   1.0000   1.0000   1.0000   1.0000   1.0000   1.0000
     1.0000   1.0000   1.0000   1.0000   1.0000   1.0000   1.0000   1.0000
     1.0000   1.0000   1.0000   1.0000   1.0000   1.0000   1.0000   1.0000
     1.0000   1.0000   1.0000   1.0000   1.0000   1.0000   1.0000   1.0000
     1.0000   1.0000   1.0000   1.0000   1.0000   1.0000   1.0000   1.0000
     1.0000   1.0000   1.0000   1.0000   1.0000   1.0000   1.0000   1.0000
     1.0000   1.0000   1.0000   1.0000   1.0000   1.0000   1.0000   1.0000
     1.0036   1.0036   1.0036   1.0036  -0.0000  -0.0000  -0.0000  -0.0000
    -0.0000  -0.0000  -0.0000  -0.0000  -0.0000  -0.0000

          k = 0.1667 0.1667 0.1667 (  9627 PWs)   bands (ev):

   -56.5087 -56.5087 -56.4876 -56.4876 -56.4796 -56.4796 -56.4747 -56.4747
   -28.5890 -28.5836 -28.5717 -28.5716 -28.5553 -28.5513 -28.4968 -28.4964
   -27.6307 -27.6283 -27.5888 -27.5801 -27.5511 -27.5472 -27.5454 -27.5434
   -27.5145 -27.5003 -27.4783 -27.4648 -27.4582 -27.4549 -27.4370 -27.4364
     3.2675   3.2675   6.3452   6.3519   7.0386   7.0472   8.3237   8.3260
     9.7324   9.7351  10.5176  10.5185  10.5473  10.5487  11.3856  11.3912
    11.9879  11.9885  12.3202  12.3284  12.8287  12.8343  12.8348  12.8411
    13.1024  13.1077  13.1341  13.1342  13.2100  13.2160  13.5215  13.5266
    13.6008  13.6103  13.7836  13.7891  14.1528  14.1614  15.2054  15.2200
    15.2728  15.2875  15.4713  15.4726  15.5232  15.5388  15.7929  15.8077
    16.2243  16.2411  16.6033  16.6149  17.0478  17.0879

     occupation numbers 
     1.0000   1.0000   1.0000   1.0000   1.0000   1.0000   1.0000   1.0000
     1.0000   1.0000   1.0000   1.0000   1.0000   1.0000   1.0000   1.0000
     1.0000   1.0000   1.0000   1.0000   1.0000   1.0000   1.0000   1.0000
     1.0000   1.0000   1.0000   1.0000   1.0000   1.0000   1.0000   1.0000
     1.0000   1.0000   1.0000   1.0000   1.0000   1.0000   1.0000   1.0000
     1.0000   1.0000   1.0000   1.0000   1.0000   1.0000   1.0000   1.0000
     1.0000   1.0000   1.0000   1.0000   1.0000   1.0000   1.0000   1.0000
     1.0000   1.0000   1.0000   1.0000   1.0000   1.0000   1.0000   1.0000
     1.0000   1.0000   1.0000   1.0000   1.0000   1.0000  -0.0000  -0.0000
    -0.0000  -0.0000  -0.0000  -0.0000  -0.0000  -0.0000  -0.0000  -0.0000
    -0.0000  -0.0000  -0.0000  -0.0000  -0.0000  -0.0000

          k = 0.1667 0.1667 0.3333 (  9629 PWs)   bands (ev):

   -56.5043 -56.5043 -56.4919 -56.4919 -56.4790 -56.4790 -56.4753 -56.4753
   -28.5872 -28.5825 -28.5744 -28.5728 -28.5439 -28.5412 -28.5093 -28.5085
   -27.6313 -27.6271 -27.5798 -27.5717 -27.5595 -27.5504 -27.5432 -27.5378
   -27.5159 -27.5019 -27.4794 -27.4691 -27.4670 -27.4555 -27.4347 -27.4331
     3.8118   3.8120   5.6524   5.6546   7.1829   7.1869   8.2393   8.2429
     9.3520   9.3545  10.2216  10.2240  10.9247  10.9284  11.4678  11.4711
    11.8292  11.8334  12.2177  12.2198  12.7508  12.7597  12.9442  12.9503
    13.0781  13.0868  13.1964  13.2049  13.2924  13.2960  13.5437  13.5505
    13.7619  13.7671  14.0125  14.0214  14.3522  14.3696  14.9067  14.9341
    15.1899  15.2051  15.2822  15.2922  15.5025  15.5171  15.7132  15.7340
    16.1658  16.1753  16.4531  16.4669  17.2168  17.2480

     occupation numbers 
     1.0000   1.0000   1.0000   1.0000   1.0000   1.0000   1.0000   1.0000
     1.0000   1.0000   1.0000   1.0000   1.0000   1.0000   1.0000   1.0000
     1.0000   1.0000   1.0000   1.0000   1.0000   1.0000   1.0000   1.0000
     1.0000   1.0000   1.0000   1.0000   1.0000   1.0000   1.0000   1.0000
     1.0000   1.0000   1.0000   1.0000   1.0000   1.0000   1.0000   1.0000
     1.0000   1.0000   1.0000   1.0000   1.0000   1.0000   1.0000   1.0000
     1.0000   1.0000   1.0000   1.0000   1.0000   1.0000   1.0000   1.0000
     1.0000   1.0000   1.0000   1.0000   1.0000   1.0000   1.0000   1.0000
     1.0000   1.0000   1.0000   1.0000   1.0000   1.0000   0.8145   0.5593
    -0.0001  -0.0000  -0.0000  -0.0000  -0.0000  -0.0000  -0.0000  -0.0000
    -0.0000  -0.0000  -0.0000  -0.0000  -0.0000  -0.0000

          k = 0.1667 0.1667-0.5000 (  9658 PWs)   bands (ev):

   -56.4982 -56.4982 -56.4982 -56.4982 -56.4771 -56.4771 -56.4771 -56.4771
   -28.5824 -28.5824 -28.5769 -28.5769 -28.5274 -28.5274 -28.5241 -28.5241
   -27.6290 -27.6290 -27.5702 -27.5702 -27.5614 -27.5614 -27.5318 -27.5318
   -27.5166 -27.5166 -27.4746 -27.4746 -27.4617 -27.4617 -27.4330 -27.4330
     4.6546   4.6546   4.6554   4.6554   7.7186   7.7186   7.7249   7.7249
     9.6725   9.6725   9.6738   9.6738  11.3991  11.3991  11.4073  11.4073
    11.8732  11.8732  11.8768  11.8768  12.7972  12.7972  12.8092  12.8092
    13.1813  13.1813  13.1918  13.1918  13.4173  13.4173  13.4214  13.4214
    13.9222  13.9222  13.9301  13.9301  14.6727  14.6727  14.7066  14.7066
    15.1622  15.1622  15.1822  15.1822  15.6035  15.6035  15.6262  15.6262
    16.2597  16.2597  16.2693  16.2693  17.5698  17.5704

     occupation numbers 
     1.0000   1.0000   1.0000   1.0000   1.0000   1.0000   1.0000   1.0000
     1.0000   1.0000   1.0000   1.0000   1.0000   1.0000   1.0000   1.0000
     1.0000   1.0000   1.0000   1.0000   1.0000   1.0000   1.0000   1.0000
     1.0000   1.0000   1.0000   1.0000   1.0000   1.0000   1.0000   1.0000
     1.0000   1.0000   1.0000   1.0000   1.0000   1.0000   1.0000   1.0000
     1.0000   1.0000   1.0000   1.0000   1.0000   1.0000   1.0000   1.0000
     1.0000   1.0000   1.0000   1.0000   1.0000   1.0000   1.0000   1.0000
     1.0000   1.0000   1.0000   1.0000   1.0000   1.0000   1.0000   1.0000
     1.0000   1.0000   1.0000   1.0000   1.0000   1.0000   1.0002   1.0002
    -0.0004  -0.0004  -0.0001  -0.0001  -0.0000  -0.0000  -0.0000  -0.0000
    -0.0000  -0.0000  -0.0000  -0.0000  -0.0000  -0.0000

          k = 0.1667 0.3333 0.3333 (  9651 PWs)   bands (ev):

   -56.5008 -56.5008 -56.4928 -56.4928 -56.4801 -56.4801 -56.4769 -56.4769
   -28.5827 -28.5789 -28.5710 -28.5702 -28.5426 -28.5403 -28.5197 -28.5186
   -27.6238 -27.6210 -27.5805 -27.5733 -27.5615 -27.5530 -27.5411 -27.5346
   -27.5183 -27.5100 -27.4854 -27.4774 -27.4612 -27.4498 -27.4339 -27.4307
     4.3284   4.3287   5.7583   5.7617   6.7216   6.7271   7.7771   7.7807
     9.2004   9.2037  10.0628  10.0664  10.9682  10.9705  11.5786  11.5828
    11.7447  11.7469  12.2590  12.2625  12.4932  12.4995  12.8109  12.8175
    13.1507  13.1550  13.2525  13.2647  13.3994  13.4067  13.6916  13.7069
    13.9166  13.9328  14.2281  14.2389  14.5641  14.5923  14.8635  14.8776
    14.9472  14.9583  15.1229  15.1497  15.4059  15.4086  15.5521  15.5676
    16.2281  16.2357  16.4574  16.4655  17.0966  17.1215

     occupation numbers 
     1.0000   1.0000   1.0000   1.0000   1.0000   1.0000   1.0000   1.0000
     1.0000   1.0000   1.0000   1.0000   1.0000   1.0000   1.0000   1.0000
     1.0000   1.0000   1.0000   1.0000   1.0000   1.0000   1.0000   1.0000
     1.0000   1.0000   1.0000   1.0000   1.0000   1.0000   1.0000   1.0000
     1.0000   1.0000   1.0000   1.0000   1.0000   1.0000   1.0000   1.0000
     1.0000   1.0000   1.0000   1.0000   1.0000   1.0000   1.0000   1.0000
     1.0000   1.0000   1.0000   1.0000   1.0000   1.0000   1.0000   1.0000
     1.0000   1.0000   1.0000   1.0000   1.0000   1.0000   1.0000   1.0000
     1.0000   1.0000   1.0000   1.0000   1.0000   1.0000   1.0170   0.9799
     0.4238   0.3138  -0.0034  -0.0008  -0.0000  -0.0000  -0.0000  -0.0000
    -0.0000  -0.0000  -0.0000  -0.0000  -0.0000  -0.0000

          k = 0.1667 0.3333-0.5000 (  9682 PWs)   bands (ev):

   -56.4962 -56.4962 -56.4962 -56.4962 -56.4790 -56.4790 -56.4790 -56.4790
   -28.5765 -28.5765 -28.5723 -28.5723 -28.5337 -28.5337 -28.5305 -28.5305
   -27.6176 -27.6176 -27.5815 -27.5815 -27.5570 -27.5570 -27.5324 -27.5324
   -27.5188 -27.5188 -27.4870 -27.4870 -27.4507 -27.4507 -27.4323 -27.4323
     5.1002   5.1002   5.1017   5.1017   7.0734   7.0734   7.0788   7.0788
     9.6227   9.6227   9.6263   9.6263  11.2869  11.2869  11.2887  11.2887
    11.9344  11.9344  11.9433  11.9433  12.5632  12.5632  12.5725  12.5725
    13.2647  13.2647  13.2708  13.2708  13.5483  13.5483  13.5633  13.5633
    14.2340  14.2340  14.2429  14.2429  14.7090  14.7090  14.7302  14.7302
    14.9618  14.9618  14.9796  14.9796  15.4427  15.4427  15.4596  15.4596
    16.3838  16.3838  16.3914  16.3914  17.1586  17.1613

     occupation numbers 
     1.0000   1.0000   1.0000   1.0000   1.0000   1.0000   1.0000   1.0000
     1.0000   1.0000   1.0000   1.0000   1.0000   1.0000   1.0000   1.0000
     1.0000   1.0000   1.0000   1.0000   1.0000   1.0000   1.0000   1.0000
     1.0000   1.0000   1.0000   1.0000   1.0000   1.0000   1.0000   1.0000
     1.0000   1.0000   1.0000   1.0000   1.0000   1.0000   1.0000   1.0000
     1.0000   1.0000   1.0000   1.0000   1.0000   1.0000   1.0000   1.0000
     1.0000   1.0000   1.0000   1.0000   1.0000   1.0000   1.0000   1.0000
     1.0000   1.0000   1.0000   1.0000   1.0000   1.0000   1.0000   1.0000
     1.0000   1.0000   1.0000   1.0000   1.0002   1.0002   1.0009   1.0009
     0.2814   0.2814   0.1370   0.1370  -0.0000  -0.0000  -0.0000  -0.0000
    -0.0000  -0.0000  -0.0000  -0.0000  -0.0000  -0.0000

          k = 0.1667-0.5000-0.5000 (  9628 PWs)   bands (ev):

   -56.4951 -56.4951 -56.4951 -56.4951 -56.4802 -56.4802 -56.4802 -56.4802
   -28.5712 -28.5712 -28.5710 -28.5710 -28.5360 -28.5360 -28.5357 -28.5357
   -27.6037 -27.6037 -27.5969 -27.5969 -27.5516 -27.5516 -27.5361 -27.5361
   -27.5135 -27.5135 -27.4975 -27.4975 -27.4416 -27.4416 -27.4357 -27.4357
     5.5080   5.5080   5.5094   5.5094   6.5307   6.5307   6.5334   6.5334
     9.8343   9.8343   9.8385   9.8385  10.8959  10.8959  10.8981  10.8981
    12.1892  12.1892  12.1918  12.1918  12.3742  12.3742  12.3773  12.3773
    13.2212  13.2212  13.2220  13.2220  13.7555  13.7555  13.7694  13.7694
    14.3904  14.3904  14.3974  14.3974  14.6956  14.6956  14.7129  14.7129
    14.8371  14.8371  14.8389  14.8389  15.3648  15.3648  15.3650  15.3650
    16.4848  16.4848  16.4863  16.4863  16.9510  16.9526

     occupation numbers 
     1.0000   1.0000   1.0000   1.0000   1.0000   1.0000   1.0000   1.0000
     1.0000   1.0000   1.0000   1.0000   1.0000   1.0000   1.0000   1.0000
     1.0000   1.0000   1.0000   1.0000   1.0000   1.0000   1.0000   1.0000
     1.0000   1.0000   1.0000   1.0000   1.0000   1.0000   1.0000   1.0000
     1.0000   1.0000   1.0000   1.0000   1.0000   1.0000   1.0000   1.0000
     1.0000   1.0000   1.0000   1.0000   1.0000   1.0000   1.0000   1.0000
     1.0000   1.0000   1.0000   1.0000   1.0000   1.0000   1.0000   1.0000
     1.0000   1.0000   1.0000   1.0000   1.0000   1.0000   1.0000   1.0000
     1.0000   1.0000   1.0000   1.0000   1.0001   1.0001   1.0003   1.0003
     1.0353   1.0353   1.0354   1.0354  -0.0000  -0.0000  -0.0000  -0.0000
    -0.0000  -0.0000  -0.0000  -0.0000  -0.0000  -0.0000

          k = 0.3333 0.3333 0.3333 (  9690 PWs)   bands (ev):

   -56.4976 -56.4976 -56.4919 -56.4919 -56.4820 -56.4820 -56.4790 -56.4790
   -28.5771 -28.5739 -28.5660 -28.5660 -28.5453 -28.5433 -28.5289 -28.5274
   -27.6161 -27.6126 -27.5790 -27.5693 -27.5691 -27.5678 -27.5448 -27.5318
   -27.5223 -27.5026 -27.4810 -27.4628 -27.4627 -27.4624 -27.4361 -27.4328
     4.8145   4.8149   5.9668   5.9733   6.6629   6.6733   7.5022   7.5048
     8.7481   8.7531   9.4977   9.5041  10.5490  10.5535  11.1928  11.1947
    12.0053  12.0071  12.4958  12.4988  12.7673  12.7714  12.8472  12.8488
    13.1366  13.1484  13.1944  13.2012  13.2639  13.2662  13.5427  13.5459
    14.1378  14.1424  14.4899  14.4982  14.7903  14.8271  14.8478  14.8595
    14.9938  15.0047  15.1347  15.1406  15.2611  15.2881  15.4108  15.4301
    16.2523  16.2593  16.3866  16.3894  16.9526  16.9609

     occupation numbers 
     1.0000   1.0000   1.0000   1.0000   1.0000   1.0000   1.0000   1.0000
     1.0000   1.0000   1.0000   1.0000   1.0000   1.0000   1.0000   1.0000
     1.0000   1.0000   1.0000   1.0000   1.0000   1.0000   1.0000   1.0000
     1.0000   1.0000   1.0000   1.0000   1.0000   1.0000   1.0000   1.0000
     1.0000   1.0000   1.0000   1.0000   1.0000   1.0000   1.0000   1.0000
     1.0000   1.0000   1.0000   1.0000   1.0000   1.0000   1.0000   1.0000
     1.0000   1.0000   1.0000   1.0000   1.0000   1.0000   1.0000   1.0000
     1.0000   1.0000   1.0000   1.0000   1.0000   1.0000   1.0000   1.0000
     1.0000   1.0000   1.0000   1.0000   1.0132   1.0324   1.0338   1.0234
     0.0547   0.0115  -0.0019  -0.0014  -0.0000  -0.0000  -0.0000  -0.0000
    -0.0000  -0.0000  -0.0000  -0.0000  -0.0000  -0.0000

          k = 0.3333 0.3333-0.5000 (  9648 PWs)   bands (ev):

   -56.4937 -56.4937 -56.4937 -56.4937 -56.4815 -56.4815 -56.4815 -56.4815
   -28.5703 -28.5703 -28.5666 -28.5666 -28.5407 -28.5407 -28.5374 -28.5374
   -27.6084 -27.6084 -27.5796 -27.5796 -27.5690 -27.5690 -27.5415 -27.5415
   -27.5080 -27.5080 -27.4755 -27.4755 -27.4570 -27.4570 -27.4371 -27.4371
     5.5138   5.5138   5.5157   5.5157   6.9763   6.9763   6.9822   6.9822
     9.0501   9.0501   9.0560   9.0560  10.5630  10.5630  10.5660  10.5660
    12.3837  12.3837  12.3921  12.3921  12.8170  12.8170  12.8247  12.8247
    13.1311  13.1311  13.1421  13.1421  13.3758  13.3758  13.3842  13.3842
    14.4635  14.4635  14.4719  14.4719  14.8591  14.8591  14.8747  14.8747
    15.0785  15.0785  15.0978  15.0978  15.2943  15.2943  15.3106  15.3106
    16.3286  16.3286  16.3380  16.3380  16.9270  16.9290

     occupation numbers 
     1.0000   1.0000   1.0000   1.0000   1.0000   1.0000   1.0000   1.0000
     1.0000   1.0000   1.0000   1.0000   1.0000   1.0000   1.0000   1.0000
     1.0000   1.0000   1.0000   1.0000   1.0000   1.0000   1.0000   1.0000
     1.0000   1.0000   1.0000   1.0000   1.0000   1.0000   1.0000   1.0000
     1.0000   1.0000   1.0000   1.0000   1.0000   1.0000   1.0000   1.0000
     1.0000   1.0000   1.0000   1.0000   1.0000   1.0000   1.0000   1.0000
     1.0000   1.0000   1.0000   1.0000   1.0000   1.0000   1.0000   1.0000
     1.0000   1.0000   1.0000   1.0000   1.0000   1.0000   1.0000   1.0000
     1.0000   1.0000   1.0000   1.0000   1.0240   1.0240   0.9894   0.9894
    -0.0186  -0.0186  -0.0098  -0.0098  -0.0000  -0.0000  -0.0000  -0.0000
    -0.0000  -0.0000  -0.0000  -0.0000  -0.0000  -0.0000

          k = 0.3333-0.5000-0.5000 (  9668 PWs)   bands (ev):

   -56.4919 -56.4919 -56.4919 -56.4919 -56.4833 -56.4833 -56.4833 -56.4833
   -28.5644 -28.5644 -28.5640 -28.5640 -28.5441 -28.5441 -28.5436 -28.5436
   -27.5977 -27.5977 -27.5893 -27.5893 -27.5693 -27.5693 -27.5458 -27.5458
   -27.5005 -27.5005 -27.4773 -27.4773 -27.4520 -27.4520 -27.4437 -27.4437
     5.8921   5.8921   5.8952   5.8952   6.6649   6.6649   6.6704   6.6704
     9.0935   9.0935   9.1001   9.1001  10.0570  10.0570  10.0611  10.0611
    12.6127  12.6127  12.6167  12.6167  12.7982  12.7982  12.8003  12.8003
    13.0409  13.0409  13.0410  13.0410  13.3505  13.3505  13.3611  13.3611
    14.6538  14.6538  14.6614  14.6614  14.9706  14.9706  14.9781  14.9781
    15.0629  15.0629  15.0684  15.0684  15.2530  15.2530  15.2648  15.2648
    16.3657  16.3657  16.3670  16.3670  16.7179  16.7185

     occupation numbers 
     1.0000   1.0000   1.0000   1.0000   1.0000   1.0000   1.0000   1.0000
     1.0000   1.0000   1.0000   1.0000   1.0000   1.0000   1.0000   1.0000
     1.0000   1.0000   1.0000   1.0000   1.0000   1.0000   1.0000   1.0000
     1.0000   1.0000   1.0000   1.0000   1.0000   1.0000   1.0000   1.0000
     1.0000   1.0000   1.0000   1.0000   1.0000   1.0000   1.0000   1.0000
     1.0000   1.0000   1.0000   1.0000   1.0000   1.0000   1.0000   1.0000
     1.0000   1.0000   1.0000   1.0000   1.0000   1.0000   1.0000   1.0000
     1.0000   1.0000   1.0000   1.0000   1.0000   1.0000   1.0000   1.0000
     1.0000   1.0000   1.0000   1.0000   0.2049   0.2049   0.1478   0.1478
    -0.0273  -0.0273  -0.0242  -0.0242  -0.0000  -0.0000  -0.0000  -0.0000
    -0.0000  -0.0000  -0.0000  -0.0000  -0.0000  -0.0000

          k =-0.5000-0.5000-0.5000 (  9568 PWs)   bands (ev):

   -56.4876 -56.4876 -56.4876 -56.4876 -56.4876 -56.4876 -56.4876 -56.4876
   -28.5550 -28.5550 -28.5541 -28.5541 -28.5541 -28.5541 -28.5541 -28.5541
   -27.5855 -27.5855 -27.5855 -27.5855 -27.5855 -27.5855 -27.5498 -27.5498
   -27.4935 -27.4935 -27.4584 -27.4584 -27.4584 -27.4584 -27.4584 -27.4584
     6.3991   6.3991   6.3991   6.3991   6.3991   6.3991   6.4094   6.4094
     9.2381   9.2381   9.2505   9.2505   9.2505   9.2505   9.2505   9.2505
    12.9160  12.9160  12.9225  12.9225  12.9225  12.9225  12.9225  12.9225
    12.9989  12.9989  13.0036  13.0036  13.0036  13.0036  13.0036  13.0036
    14.9316  14.9316  14.9335  14.9335  14.9335  14.9335  14.9335  14.9335
    15.2351  15.2351  15.2351  15.2351  15.2351  15.2351  15.2782  15.2782
    16.4080  16.4080  16.4203  16.4203  16.4203  16.4203

     occupation numbers 
     1.0000   1.0000   1.0000   1.0000   1.0000   1.0000   1.0000   1.0000
     1.0000   1.0000   1.0000   1.0000   1.0000   1.0000   1.0000   1.0000
     1.0000   1.0000   1.0000   1.0000   1.0000   1.0000   1.0000   1.0000
     1.0000   1.0000   1.0000   1.0000   1.0000   1.0000   1.0000   1.0000
     1.0000   1.0000   1.0000   1.0000   1.0000   1.0000   1.0000   1.0000
     1.0000   1.0000   1.0000   1.0000   1.0000   1.0000   1.0000   1.0000
     1.0000   1.0000   1.0000   1.0000   1.0000   1.0000   1.0000   1.0000
     1.0000   1.0000   1.0000   1.0000   1.0000   1.0000   1.0000   1.0000
     0.5848   0.5848   0.5654   0.5654   0.5654   0.5654   0.5654   0.5654
    -0.0000  -0.0000  -0.0000  -0.0000  -0.0000  -0.0000  -0.0000  -0.0000
    -0.0000  -0.0000  -0.0000  -0.0000  -0.0000  -0.0000

          k = 0.0000 0.3333 0.1667 (  9647 PWs)   bands (ev):

   -56.5056 -56.5056 -56.4920 -56.4920 -56.4780 -56.4780 -56.4749 -56.4749
   -28.5885 -28.5835 -28.5772 -28.5753 -28.5430 -28.5402 -28.5054 -28.5047
   -27.6346 -27.6293 -27.5780 -27.5771 -27.5595 -27.5476 -27.5418 -27.5329
   -27.5208 -27.4937 -27.4834 -27.4722 -27.4628 -27.4517 -27.4383 -27.4350
     3.6328   3.6329   5.5375   5.5385   7.3653   7.3665   8.4329   8.4395
     9.7432   9.7456  10.2563  10.2625  10.9714  10.9746  11.0973  11.0999
    11.8630  11.8653  12.2421  12.2460  12.7970  12.8021  12.9748  12.9800
    13.0656  13.0718  13.2439  13.2502  13.3398  13.3445  13.4879  13.4925
    13.5379  13.5404  13.9655  13.9755  14.2293  14.2414  14.8896  14.9216
    15.2770  15.2953  15.3369  15.3539  15.6445  15.6722  15.7840  15.8098
    16.1544  16.1668  16.4217  16.4359  17.2708  17.3006

     occupation numbers 
     1.0000   1.0000   1.0000   1.0000   1.0000   1.0000   1.0000   1.0000
     1.0000   1.0000   1.0000   1.0000   1.0000   1.0000   1.0000   1.0000
     1.0000   1.0000   1.0000   1.0000   1.0000   1.0000   1.0000   1.0000
     1.0000   1.0000   1.0000   1.0000   1.0000   1.0000   1.0000   1.0000
     1.0000   1.0000   1.0000   1.0000   1.0000   1.0000   1.0000   1.0000
     1.0000   1.0000   1.0000   1.0000   1.0000   1.0000   1.0000   1.0000
     1.0000   1.0000   1.0000   1.0000   1.0000   1.0000   1.0000   1.0000
     1.0000   1.0000   1.0000   1.0000   1.0000   1.0000   1.0000   1.0000
     1.0000   1.0000   1.0000   1.0000   1.0000   1.0000   0.9267   0.6841
    -0.0000  -0.0000  -0.0000  -0.0000  -0.0000  -0.0000  -0.0000  -0.0000
    -0.0000  -0.0000  -0.0000  -0.0000  -0.0000  -0.0000

          k = 0.0000-0.5000 0.1667 (  9654 PWs)   bands (ev):

   -56.4991 -56.4991 -56.4991 -56.4991 -56.4762 -56.4762 -56.4762 -56.4762
   -28.5847 -28.5847 -28.5791 -28.5791 -28.5244 -28.5244 -28.5216 -28.5216
   -27.6330 -27.6330 -27.5710 -27.5710 -27.5582 -27.5582 -27.5335 -27.5335
   -27.5106 -27.5106 -27.4783 -27.4783 -27.4585 -27.4585 -27.4357 -27.4357
     4.4931   4.4931   4.4936   4.4936   7.8974   7.8974   7.9020   7.9020
    10.1027  10.1027  10.1077  10.1077  10.8749  10.8749  10.8821  10.8821
    12.1416  12.1416  12.1465  12.1465  12.8619  12.8619  12.8710  12.8710
    13.1080  13.1080  13.1160  13.1160  13.3968  13.3968  13.4060  13.4060
    13.8072  13.8072  13.8126  13.8126  14.6074  14.6074  14.6385  14.6385
    15.2587  15.2587  15.2810  15.2810  15.6826  15.6826  15.7111  15.7111
    16.2153  16.2153  16.2270  16.2270  17.5919  17.5977

     occupation numbers 
     1.0000   1.0000   1.0000   1.0000   1.0000   1.0000   1.0000   1.0000
     1.0000   1.0000   1.0000   1.0000   1.0000   1.0000   1.0000   1.0000
     1.0000   1.0000   1.0000   1.0000   1.0000   1.0000   1.0000   1.0000
     1.0000   1.0000   1.0000   1.0000   1.0000   1.0000   1.0000   1.0000
     1.0000   1.0000   1.0000   1.0000   1.0000   1.0000   1.0000   1.0000
     1.0000   1.0000   1.0000   1.0000   1.0000   1.0000   1.0000   1.0000
     1.0000   1.0000   1.0000   1.0000   1.0000   1.0000   1.0000   1.0000
     1.0000   1.0000   1.0000   1.0000   1.0000   1.0000   1.0000   1.0000
     1.0000   1.0000   1.0000   1.0000   1.0000   1.0000   1.0000   1.0000
    -0.0000  -0.0000  -0.0000  -0.0000  -0.0000  -0.0000  -0.0000  -0.0000
    -0.0000  -0.0000  -0.0000  -0.0000  -0.0000  -0.0000

          k = 0.0000-0.5000 0.3333 (  9646 PWs)   bands (ev):

   -56.4973 -56.4973 -56.4973 -56.4973 -56.4780 -56.4780 -56.4780 -56.4780
   -28.5788 -28.5788 -28.5745 -28.5745 -28.5308 -28.5308 -28.5276 -28.5276
   -27.6211 -27.6211 -27.5830 -27.5830 -27.5495 -27.5495 -27.5305 -27.5305
   -27.5196 -27.5196 -27.4967 -27.4967 -27.4459 -27.4459 -27.4316 -27.4316
     4.9491   4.9491   4.9500   4.9500   7.0319   7.0319   7.0344   7.0344
    10.5072  10.5072  10.5107  10.5107  10.8272  10.8272  10.8295  10.8295
    11.9940  11.9940  11.9994  11.9994  12.4097  12.4097  12.4202  12.4202
    13.2669  13.2669  13.2733  13.2733  13.9139  13.9139  13.9204  13.9204
    13.9555  13.9555  13.9686  13.9686  14.6429  14.6429  14.6764  14.6764
    14.9019  14.9019  14.9378  14.9378  15.4785  15.4785  15.5017  15.5017
    16.3858  16.3858  16.3977  16.3977  17.2936  17.2950

     occupation numbers 
     1.0000   1.0000   1.0000   1.0000   1.0000   1.0000   1.0000   1.0000
     1.0000   1.0000   1.0000   1.0000   1.0000   1.0000   1.0000   1.0000
     1.0000   1.0000   1.0000   1.0000   1.0000   1.0000   1.0000   1.0000
     1.0000   1.0000   1.0000   1.0000   1.0000   1.0000   1.0000   1.0000
     1.0000   1.0000   1.0000   1.0000   1.0000   1.0000   1.0000   1.0000
     1.0000   1.0000   1.0000   1.0000   1.0000   1.0000   1.0000   1.0000
     1.0000   1.0000   1.0000   1.0000   1.0000   1.0000   1.0000   1.0000
     1.0000   1.0000   1.0000   1.0000   1.0000   1.0000   1.0000   1.0000
     1.0000   1.0000   1.0000   1.0000   1.0000   1.0000   1.0000   1.0000
     0.8500   0.8500   0.5211   0.5211  -0.0000  -0.0000  -0.0000  -0.0000
    -0.0000  -0.0000  -0.0000  -0.0000  -0.0000  -0.0000

          k =-0.1667-0.5000 0.3333 (  9682 PWs)   bands (ev):

   -56.4962 -56.4962 -56.4962 -56.4962 -56.4790 -56.4790 -56.4790 -56.4790
   -28.5765 -28.5765 -28.5722 -28.5722 -28.5338 -28.5338 -28.5304 -28.5304
   -27.6178 -27.6178 -27.5810 -27.5810 -27.5575 -27.5575 -27.5320 -27.5320
   -27.5192 -27.5192 -27.4868 -27.4868 -27.4507 -27.4507 -27.4323 -27.4323
     5.1000   5.1000   5.1011   5.1011   7.0754   7.0754   7.0793   7.0793
     9.6361   9.6361   9.6389   9.6389  11.1977  11.1977  11.2007  11.2007
    11.9966  11.9966  12.0032  12.0032  12.6307  12.6307  12.6410  12.6410
    13.1714  13.1714  13.1794  13.1794  13.6492  13.6492  13.6609  13.6609
    14.1692  14.1692  14.1785  14.1785  14.7157  14.7157  14.7409  14.7409
    14.9609  14.9609  14.9922  14.9922  15.4232  15.4232  15.4404  15.4404
    16.3553  16.3553  16.3661  16.3661  17.2145  17.2166

     occupation numbers 
     1.0000   1.0000   1.0000   1.0000   1.0000   1.0000   1.0000   1.0000
     1.0000   1.0000   1.0000   1.0000   1.0000   1.0000   1.0000   1.0000
     1.0000   1.0000   1.0000   1.0000   1.0000   1.0000   1.0000   1.0000
     1.0000   1.0000   1.0000   1.0000   1.0000   1.0000   1.0000   1.0000
     1.0000   1.0000   1.0000   1.0000   1.0000   1.0000   1.0000   1.0000
     1.0000   1.0000   1.0000   1.0000   1.0000   1.0000   1.0000   1.0000
     1.0000   1.0000   1.0000   1.0000   1.0000   1.0000   1.0000   1.0000
     1.0000   1.0000   1.0000   1.0000   1.0000   1.0000   1.0000   1.0000
     1.0000   1.0000   1.0000   1.0000   1.0004   1.0004   1.0015   1.0015
     0.2892   0.2892   0.0621   0.0621  -0.0000  -0.0000  -0.0000  -0.0000
    -0.0000  -0.0000  -0.0000  -0.0000  -0.0000  -0.0000

     the Fermi energy is    14.9398 ev

!    total energy              =   -1180.34914054 Ry

     total all-electron energy =    -10727.809977 Ry
     estimated scf accuracy    <       0.00000035 Ry
     smearing contrib. (-TS)   =      -0.00065627 Ry
     internal energy E=F+TS    =   -1180.34848427 Ry

     The total energy is F=E-TS. E is the sum of the following terms:
     one-electron contribution =    -336.80152081 Ry
     hartree contribution      =     207.04872866 Ry
     xc contribution           =    -114.36305324 Ry
     ewald contribution        =    -496.51183961 Ry
     one-center paw contrib.   =    -439.72079928 Ry
      -> PAW hartree energy AE =     126.72271954 Ry
      -> PAW hartree energy PS =    -125.75536762 Ry
      -> PAW xc energy AE      =     -96.24040161 Ry
      -> PAW xc energy PS      =      20.93305014 Ry
      -> total E_H with PAW    =     208.01608057 Ry
      -> total E_XC with PAW   =    -189.67040471 Ry

     convergence has been achieved in   9 iterations

     Forces acting on atoms (cartesian axes, Ry/au):

     atom    1 type  1   force =    -0.00265262   -0.00265262    0.00265262
     atom    2 type  1   force =    -0.00265262    0.00265262   -0.00265262
     atom    3 type  1   force =     0.00265262   -0.00265262   -0.00265262
     atom    4 type  1   force =     0.00265262    0.00265262    0.00265262
     atom    5 type  2   force =    -0.00402825   -0.00402825    0.00402825
     atom    6 type  2   force =    -0.00402825    0.00402825   -0.00402825
     atom    7 type  2   force =     0.00402825   -0.00402825   -0.00402825
     atom    8 type  2   force =     0.00402825    0.00402825    0.00402825
     The non-local contrib.  to forces
     atom    1 type  1   force =     0.05192362    0.05192362   -0.05192362
     atom    2 type  1   force =     0.05192362   -0.05192362    0.05192362
     atom    3 type  1   force =    -0.05192362    0.05192362    0.05192362
     atom    4 type  1   force =    -0.05192362   -0.05192362   -0.05192362
     atom    5 type  2   force =    -0.00835973   -0.00835973    0.00835973
     atom    6 type  2   force =    -0.00835973    0.00835973   -0.00835973
     atom    7 type  2   force =     0.00835973   -0.00835973   -0.00835973
     atom    8 type  2   force =     0.00835973    0.00835973    0.00835973
     The ionic contribution  to forces
     atom    1 type  1   force =    -0.85044630   -0.85044630    0.85044630
     atom    2 type  1   force =    -0.85044630    0.85044630   -0.85044630
     atom    3 type  1   force =     0.85044630   -0.85044630   -0.85044630
     atom    4 type  1   force =     0.85044630    0.85044630    0.85044630
     atom    5 type  2   force =    -0.24524978   -0.24524978    0.24524978
     atom    6 type  2   force =    -0.24524978    0.24524978   -0.24524978
     atom    7 type  2   force =     0.24524978   -0.24524978   -0.24524978
     atom    8 type  2   force =     0.24524978    0.24524978    0.24524978
     The local contribution  to forces
     atom    1 type  1   force =     0.79692376    0.79692376   -0.79692376
     atom    2 type  1   force =     0.79692376   -0.79692376    0.79692376
     atom    3 type  1   force =    -0.79692376    0.79692376    0.79692376
     atom    4 type  1   force =    -0.79692376   -0.79692376   -0.79692376
     atom    5 type  2   force =     0.24876560    0.24876560   -0.24876560
     atom    6 type  2   force =     0.24876560   -0.24876560    0.24876560
     atom    7 type  2   force =    -0.24876560    0.24876560    0.24876560
     atom    8 type  2   force =    -0.24876560   -0.24876560   -0.24876560
     The core correction contribution to forces
     atom    1 type  1   force =    -0.00104765   -0.00104765    0.00104765
     atom    2 type  1   force =    -0.00104765    0.00104765   -0.00104765
     atom    3 type  1   force =     0.00104765   -0.00104765   -0.00104765
     atom    4 type  1   force =     0.00104765    0.00104765    0.00104765
     atom    5 type  2   force =     0.00082834    0.00082834   -0.00082834
     atom    6 type  2   force =     0.00082834   -0.00082834    0.00082834
     atom    7 type  2   force =    -0.00082834    0.00082834    0.00082834
     atom    8 type  2   force =    -0.00082834   -0.00082834   -0.00082834
     The Hubbard contrib.    to forces
     atom    1 type  1   force =     0.00000000    0.00000000    0.00000000
     atom    2 type  1   force =     0.00000000    0.00000000    0.00000000
     atom    3 type  1   force =     0.00000000    0.00000000    0.00000000
     atom    4 type  1   force =     0.00000000    0.00000000    0.00000000
     atom    5 type  2   force =     0.00000000    0.00000000    0.00000000
     atom    6 type  2   force =     0.00000000    0.00000000    0.00000000
     atom    7 type  2   force =     0.00000000    0.00000000    0.00000000
     atom    8 type  2   force =     0.00000000    0.00000000    0.00000000
     The SCF correction term to forces
     atom    1 type  1   force =    -0.00000604   -0.00000604    0.00000604
     atom    2 type  1   force =    -0.00000604    0.00000604   -0.00000604
     atom    3 type  1   force =     0.00000604   -0.00000604   -0.00000604
     atom    4 type  1   force =     0.00000604    0.00000604    0.00000604
     atom    5 type  2   force =    -0.00001269   -0.00001269    0.00001269
     atom    6 type  2   force =    -0.00001269    0.00001269   -0.00001269
     atom    7 type  2   force =     0.00001269   -0.00001269   -0.00001269
     atom    8 type  2   force =     0.00001269    0.00001269    0.00001269

     Total force =     0.016708     Total SCF correction =     0.000049


     Computing stress (Cartesian axis) and pressure

          total   stress  (Ry/bohr**3)                   (kbar)     P=      -41.04
  -0.00027897   0.00000000   0.00000000          -41.04        0.00        0.00
   0.00000000  -0.00027897   0.00000000            0.00      -41.04        0.00
   0.00000000   0.00000000  -0.00027897            0.00        0.00      -41.04

     kinetic stress (kbar)  35760.63      0.00      0.00
                                0.00  35760.63      0.00
                                0.00      0.00  35760.63

     local   stress (kbar) -10012.89     -0.00     -0.00
                               -0.00 -10012.89     -0.00
                               -0.00     -0.00 -10012.89

     nonloc. stress (kbar)   2427.43      0.00      0.00
                                0.00   2427.43      0.00
                                0.00      0.00   2427.43

     hartree stress (kbar)  15167.74      0.00      0.00
                                0.00  15167.74      0.00
                                0.00      0.00  15167.74

     exc-cor stress (kbar)  -1706.66     -0.00     -0.00
                               -0.00  -1706.66     -0.00
                               -0.00     -0.00  -1706.66

     corecor stress (kbar)  -5304.39      0.00     -0.00
                                0.00  -5304.39     -0.00
                               -0.00     -0.00  -5304.39

     ewald   stress (kbar) -36372.90      0.00      0.00
                                0.00 -36372.90      0.00
                                0.00      0.00 -36372.90

     hubbard stress (kbar)      0.00      0.00      0.00
                                0.00      0.00      0.00
                                0.00      0.00      0.00

     DFT-D   stress (kbar)      0.00      0.00      0.00
                                0.00      0.00      0.00
                                0.00      0.00      0.00

     XDM     stress (kbar)      0.00      0.00      0.00
                                0.00      0.00      0.00
                                0.00      0.00      0.00

     dft-nl  stress (kbar)      0.00      0.00      0.00
                                0.00      0.00      0.00
                                0.00      0.00      0.00

     TS-vdW  stress (kbar)      0.00      0.00      0.00
                                0.00      0.00      0.00
                                0.00      0.00      0.00



     Writing output data file /zfs_data/vergnior/martin/Scratch/OAL/CrSi/convergence/smearing/6x6x6/0.006/tmp/CrSi.save/
 
     init_run     :      5.30s CPU      5.58s WALL (       1 calls)
     electrons    :    158.87s CPU    163.13s WALL (       1 calls)
     forces       :      4.83s CPU      4.91s WALL (       1 calls)
     stress       :     12.56s CPU     12.82s WALL (       1 calls)

     Called by init_run:
     wfcinit      :      4.02s CPU      4.12s WALL (       1 calls)
     wfcinit:atom :      0.03s CPU      0.03s WALL (      24 calls)
     wfcinit:wfcr :      3.85s CPU      3.94s WALL (      24 calls)
     potinit      :      0.21s CPU      0.28s WALL (       1 calls)
     hinit0       :      0.20s CPU      0.20s WALL (       1 calls)

     Called by electrons:
     c_bands      :    124.07s CPU    126.26s WALL (      10 calls)
     sum_band     :     28.34s CPU     29.68s WALL (      10 calls)
     v_of_rho     :      0.27s CPU      0.28s WALL (      10 calls)
     v_h          :      0.02s CPU      0.02s WALL (      10 calls)
     v_xc         :      0.30s CPU      0.31s WALL (      12 calls)
     newd         :      5.16s CPU      5.90s WALL (      10 calls)
     PAW_pot      :      1.39s CPU      1.41s WALL (      10 calls)
     mix_rho      :      0.17s CPU      0.18s WALL (      10 calls)

     Called by c_bands:
     init_us_2    :      0.56s CPU      0.57s WALL (     552 calls)
     cegterg      :    114.24s CPU    116.23s WALL (     240 calls)

     Called by sum_band:
     sum_band:wei :      0.03s CPU      0.03s WALL (      10 calls)
     sum_band:loo :     24.38s CPU     24.73s WALL (      10 calls)
     sum_band:buf :      0.18s CPU      0.18s WALL (     240 calls)
     sum_band:ini :      0.25s CPU      0.26s WALL (     240 calls)
     sum_band:cal :      1.50s CPU      1.51s WALL (     240 calls)
     sum_band:bec :      3.36s CPU      3.37s WALL (     240 calls)
     addusdens    :      3.72s CPU      4.71s WALL (      10 calls)
     addusd:skk   :      0.01s CPU      0.01s WALL (      20 calls)
     addusd:dgemm :      1.41s CPU      2.37s WALL (      20 calls)
     addusd:qvan2 :      2.25s CPU      2.26s WALL (      20 calls)

     Called by *egterg:
     cdiaghg      :      9.48s CPU      9.53s WALL (    1269 calls)
     cegterg:over :      6.38s CPU      6.42s WALL (    1053 calls)
     cegterg:upda :      2.87s CPU      2.91s WALL (    1053 calls)
     cegterg:last :      5.71s CPU      5.73s WALL (     687 calls)
     h_psi        :     80.10s CPU     81.91s WALL (    1317 calls)
     s_psi        :     10.45s CPU     10.50s WALL (    1317 calls)
     g_psi        :      0.18s CPU      0.18s WALL (    1053 calls)

     Called by h_psi:
     h_psi:calbec :      5.30s CPU      5.34s WALL (    1317 calls)
     vloc_psi     :     64.85s CPU     66.51s WALL (    1317 calls)
     add_vuspsi   :      9.55s CPU      9.63s WALL (    1317 calls)

     General routines
     calbec       :      7.58s CPU      7.63s WALL (    1677 calls)
     fft          :      0.30s CPU      0.31s WALL (     238 calls)
     ffts         :      0.03s CPU      0.09s WALL (      80 calls)
     fftw         :     54.31s CPU     55.68s WALL (  324040 calls)
     interpolate  :      0.07s CPU      0.14s WALL (      40 calls)
 
     Parallel routines
     fft_scatt_xy :      5.55s CPU      5.70s WALL (  324358 calls)
     fft_scatt_yz :     20.58s CPU     21.07s WALL (  324358 calls)

     PAW routines
     PAW_pot      :      1.39s CPU      1.41s WALL (      10 calls)
     PAW_symme    :      0.02s CPU      0.02s WALL (      20 calls)
 
     PWSCF        :   3m 4.55s CPU   3m10.49s WALL

 
   This run was terminated on:  12:44:59   1Aug2021            

=------------------------------------------------------------------------------=
   JOB DONE.
=------------------------------------------------------------------------------=
