
     Program PWSCF v.6.7MaX starts on 18May2022 at 15:54: 6 

     This program is part of the open-source Quantum ESPRESSO suite
     for quantum simulation of materials; please cite
         "P. Giannozzi et al., J. Phys.:Condens. Matter 21 395502 (2009);
         "P. Giannozzi et al., J. Phys.:Condens. Matter 29 465901 (2017);
          URL http://www.quantum-espresso.org", 
     in publications or presentations arising from this work. More details at
     http://www.quantum-espresso.org/quote

     Parallel version (MPI), running on    48 processors

     MPI processes distributed on     1 nodes
     R & G space division:  proc/nbgrp/npool/nimage =      48
     Waiting for input...
     Reading input from standard input

     Current dimensions of program PWSCF are:
     Max number of different atomic species (ntypx) = 10
     Max number of k-points (npk) =  40000
     Max angular momentum in pseudopotentials (lmaxx) =  3
     file O.pbe-nl-kjpaw_psl.1.0.0.UPF: wavefunction(s)  2S 2P renormalized
     file Cl.pbe-nl-kjpaw_psl.1.0.0.UPF: wavefunction(s)  3S renormalized
     file Nb.pbe-spn-kjpaw_psl.1.0.0.UPF: wavefunction(s)  4S 4P 4D renormalized

     Subspace diagonalization in iterative solution of the eigenvalue problem:
     a serial algorithm will be used

     Message from routine setup:
     using ibrav=0 with symmetry is DISCOURAGED, use correct ibrav instead
 
     Parallelization info
     --------------------
     sticks:   dense  smooth     PW     G-vecs:    dense   smooth      PW
     Min          75      30     11                 1541      391      85
     Max          76      31     12                 1544      392      87
     Sum        3617    1457    531                74033    18773    4123
 


     bravais-lattice index     =            0
     lattice parameter (alat)  =      12.6717  a.u.
     unit-cell volume          =     547.9313 (a.u.)^3
     number of atoms/cell      =            4
     number of atomic types    =            3
     number of electrons       =        33.00
     number of Kohn-Sham states=           21
     kinetic-energy cutoff     =      40.0000  Ry
     charge density cutoff     =     400.0000  Ry
     scf convergence threshold =      1.0E-10
     mixing beta               =       0.7000
     number of iterations used =            8  plain     mixing
     Exchange-correlation= SLA  PW   PBX  PBC
                           (   1   4   3   4   0   0   0)

     celldm(1)=  12.671676  celldm(2)=   0.000000  celldm(3)=   0.000000
     celldm(4)=   0.000000  celldm(5)=   0.000000  celldm(6)=   0.000000

     crystal axes: (cart. coord. in units of alat)
               a(1) = (  -0.250426   0.291161   0.923316 )  
               a(2) = (   0.250426  -0.291161   0.923316 )  
               a(3) = (   0.250426   0.291161  -0.923316 )  

     reciprocal axes: (cart. coord. in units 2 pi/alat)
               b(1) = (  0.000000  1.717261  0.541527 )  
               b(2) = (  1.996594  0.000000  0.541527 )  
               b(3) = (  1.996594  1.717261  0.000000 )  


     PseudoPot. # 1 for O  read from file:
     /zfs_data/gutierre/Scratch/Cl2NbO/convergence/cutoff/8x8x8/40/pseudo/O.pbe-nl-kjpaw_psl.1.0.0.UPF
     MD5 check sum: df3ddea38124b4e5de5e1084591730e4
     Pseudo is Projector augmented-wave + core cor, Zval =  6.0
     Generated using 'atomic' code by A. Dal Corso  v.6.7MaX
     Shape of augmentation charge: PSQ
     Using radial grid of 1095 points,  4 beta functions with: 
                l(1) =   0
                l(2) =   0
                l(3) =   1
                l(4) =   1
     Q(r) pseudized with 0 coefficients 


     PseudoPot. # 2 for Cl read from file:
     /zfs_data/gutierre/Scratch/Cl2NbO/convergence/cutoff/8x8x8/40/pseudo/Cl.pbe-nl-kjpaw_psl.1.0.0.UPF
     MD5 check sum: 8cf6bde52c08f6236e0f72a8870677af
     Pseudo is Projector augmented-wave + core cor, Zval =  7.0
     Generated using 'atomic' code by A. Dal Corso  v.6.7MaX
     Shape of augmentation charge: PSQ
     Using radial grid of 1157 points,  4 beta functions with: 
                l(1) =   0
                l(2) =   0
                l(3) =   1
                l(4) =   1
     Q(r) pseudized with 0 coefficients 


     PseudoPot. # 3 for Nb read from file:
     /zfs_data/gutierre/Scratch/Cl2NbO/convergence/cutoff/8x8x8/40/pseudo/Nb.pbe-spn-kjpaw_psl.1.0.0.UPF
     MD5 check sum: 1ec1a3aa7bf3cbf7f7e0d720422bce7a
     Pseudo is Projector augmented-wave + core cor, Zval = 13.0
     Generated using 'atomic' code by A. Dal Corso  v.6.7MaX
     Shape of augmentation charge: PSQ
     Using radial grid of 1227 points,  6 beta functions with: 
                l(1) =   0
                l(2) =   0
                l(3) =   1
                l(4) =   1
                l(5) =   2
                l(6) =   2
     Q(r) pseudized with 0 coefficients 


     atomic species   valence    mass     pseudopotential
        O              6.00    15.99940     O ( 1.00)
        Cl             7.00    35.45150     Cl( 1.00)
        Nb            13.00    92.90637     Nb( 1.00)

      8 Sym. Ops., with inversion, found


                                    s                        frac. trans.

      isym =  1     identity                                     

 cryst.   s( 1) = (     1          0          0      )
                  (     0          1          0      )
                  (     0          0          1      )

 cart.    s( 1) = (  1.0000000  0.0000000  0.0000000 )
                  (  0.0000000  1.0000000  0.0000000 )
                  (  0.0000000  0.0000000  1.0000000 )


      isym =  2     180 deg rotation - cart. axis [0,0,1]        

 cryst.   s( 2) = (     0          1          0      )
                  (     1          0          0      )
                  (    -1         -1         -1      )

 cart.    s( 2) = ( -1.0000000  0.0000000  0.0000000 )
                  (  0.0000000 -1.0000000  0.0000000 )
                  (  0.0000000  0.0000000  1.0000000 )


      isym =  3     180 deg rotation - cart. axis [0,1,0]        

 cryst.   s( 3) = (     0          0          1      )
                  (    -1         -1         -1      )
                  (     1          0          0      )

 cart.    s( 3) = ( -1.0000000  0.0000000  0.0000000 )
                  (  0.0000000  1.0000000  0.0000000 )
                  (  0.0000000  0.0000000 -1.0000000 )


      isym =  4     180 deg rotation - cart. axis [1,0,0]        

 cryst.   s( 4) = (    -1         -1         -1      )
                  (     0          0          1      )
                  (     0          1          0      )

 cart.    s( 4) = (  1.0000000  0.0000000  0.0000000 )
                  (  0.0000000 -1.0000000  0.0000000 )
                  (  0.0000000  0.0000000 -1.0000000 )


      isym =  5     inversion                                    

 cryst.   s( 5) = (    -1          0          0      )
                  (     0         -1          0      )
                  (     0          0         -1      )

 cart.    s( 5) = ( -1.0000000  0.0000000  0.0000000 )
                  (  0.0000000 -1.0000000  0.0000000 )
                  (  0.0000000  0.0000000 -1.0000000 )


      isym =  6     inv. 180 deg rotation - cart. axis [0,0,1]   

 cryst.   s( 6) = (     0         -1          0      )
                  (    -1          0          0      )
                  (     1          1          1      )

 cart.    s( 6) = (  1.0000000  0.0000000  0.0000000 )
                  (  0.0000000  1.0000000  0.0000000 )
                  (  0.0000000  0.0000000 -1.0000000 )


      isym =  7     inv. 180 deg rotation - cart. axis [0,1,0]   

 cryst.   s( 7) = (     0          0         -1      )
                  (     1          1          1      )
                  (    -1          0          0      )

 cart.    s( 7) = (  1.0000000  0.0000000  0.0000000 )
                  (  0.0000000 -1.0000000  0.0000000 )
                  (  0.0000000  0.0000000  1.0000000 )


      isym =  8     inv. 180 deg rotation - cart. axis [1,0,0]   

 cryst.   s( 8) = (     1          1          1      )
                  (     0          0         -1      )
                  (     0         -1          0      )

 cart.    s( 8) = ( -1.0000000  0.0000000  0.0000000 )
                  (  0.0000000  1.0000000  0.0000000 )
                  (  0.0000000  0.0000000  1.0000000 )


   Cartesian axes

     site n.     atom                  positions (alat units)
         1           O   tau(   1) = (   0.0000000   0.2911613   0.0000000  )
         2           Cl  tau(   2) = (  -0.0000000   0.2911613   0.6365338  )
         3           Cl  tau(   3) = (   0.2504264  -0.0000000   0.2867819  )
         4           Nb  tau(   4) = (   0.0000000   0.0000000   0.0000000  )

   Crystallographic axes

     site n.     atom                  positions (cryst. coord.)
         1           O   tau(   1) = (  0.5000000  0.0000000  0.5000000  )
         2           Cl  tau(   2) = (  0.8447000  0.3447000  0.5000000  )
         3           Cl  tau(   3) = (  0.1553000  0.6553000  0.5000000  )
         4           Nb  tau(   4) = (  0.0000000  0.0000000  0.0000000  )

     number of k points=    95  Methfessel-Paxton smearing, width (Ry)=  0.0120
                       cart. coord. in units 2pi/alat
        k(    1) = (   0.0000000   0.0000000   0.0000000), wk =   0.0039062
        k(    2) = (   0.2495743   0.2146577   0.0000000), wk =   0.0156250
        k(    3) = (   0.4991486   0.4293153   0.0000000), wk =   0.0156250
        k(    4) = (   0.7487229   0.6439730   0.0000000), wk =   0.0156250
        k(    5) = (  -0.9982971  -0.8586307   0.0000000), wk =   0.0078125
        k(    6) = (   0.2495743   0.0000000   0.0676908), wk =   0.0156250
        k(    7) = (   0.4991486   0.2146577   0.0676908), wk =   0.0312500
        k(    8) = (   0.7487229   0.4293153   0.0676908), wk =   0.0312500
        k(    9) = (   0.9982971   0.6439730   0.0676908), wk =   0.0312500
        k(   10) = (  -0.7487229  -0.8586307   0.0676908), wk =   0.0312500
        k(   11) = (  -0.4991486  -0.6439730   0.0676908), wk =   0.0312500
        k(   12) = (  -0.2495743  -0.4293153   0.0676908), wk =   0.0312500
        k(   13) = (   0.0000000  -0.2146577   0.0676908), wk =   0.0156250
        k(   14) = (   0.4991486   0.0000000   0.1353817), wk =   0.0156250
        k(   15) = (   0.7487229   0.2146577   0.1353817), wk =   0.0312500
        k(   16) = (   0.9982971   0.4293153   0.1353817), wk =   0.0312500
        k(   17) = (   1.2478714   0.6439730   0.1353817), wk =   0.0312500
        k(   18) = (  -0.4991486  -0.8586307   0.1353817), wk =   0.0312500
        k(   19) = (  -0.2495743  -0.6439730   0.1353817), wk =   0.0312500
        k(   20) = (   0.0000000  -0.4293153   0.1353817), wk =   0.0156250
        k(   21) = (   0.2495743  -0.2146577   0.1353817), wk =   0.0312500
        k(   22) = (   0.7487229   0.0000000   0.2030725), wk =   0.0156250
        k(   23) = (   0.9982971   0.2146577   0.2030725), wk =   0.0312500
        k(   24) = (   1.2478714   0.4293153   0.2030725), wk =   0.0312500
        k(   25) = (   1.4974457   0.6439730   0.2030725), wk =   0.0312500
        k(   26) = (  -0.2495743  -0.8586307   0.2030725), wk =   0.0312500
        k(   27) = (   0.0000000  -0.6439730   0.2030725), wk =   0.0156250
        k(   28) = (   0.2495743  -0.4293153   0.2030725), wk =   0.0312500
        k(   29) = (   0.4991486  -0.2146577   0.2030725), wk =   0.0312500
        k(   30) = (  -0.9982971   0.0000000  -0.2707633), wk =   0.0078125
        k(   31) = (  -0.7487229   0.2146577  -0.2707633), wk =   0.0312500
        k(   32) = (  -0.4991486   0.4293153  -0.2707633), wk =   0.0312500
        k(   33) = (  -0.2495743   0.6439730  -0.2707633), wk =   0.0312500
        k(   34) = (  -1.9965943  -0.8586307  -0.2707633), wk =   0.0078125
        k(   35) = (   0.4991486   0.4293153   0.1353817), wk =   0.0312500
        k(   36) = (   0.7487229   0.6439730   0.1353817), wk =   0.0312500
        k(   37) = (   0.9982971   0.8586307   0.1353817), wk =   0.0156250
        k(   38) = (   0.0000000   0.0000000   0.1353817), wk =   0.0078125
        k(   39) = (   0.7487229   0.4293153   0.2030725), wk =   0.0312500
        k(   40) = (   0.9982971   0.6439730   0.2030725), wk =   0.0312500
        k(   41) = (   1.2478714   0.8586307   0.2030725), wk =   0.0312500
        k(   42) = (  -0.4991486  -0.6439730   0.2030725), wk =   0.0312500
        k(   43) = (   0.0000000  -0.2146577   0.2030725), wk =   0.0156250
        k(   44) = (   0.2495743   0.0000000   0.2030725), wk =   0.0156250
        k(   45) = (   0.9982971   0.4293153   0.2707633), wk =   0.0156250
        k(   46) = (   1.2478714   0.6439730   0.2707633), wk =   0.0312500
        k(   47) = (   1.4974457   0.8586307   0.2707633), wk =   0.0156250
        k(   48) = (   0.0000000  -0.4293153   0.2707633), wk =   0.0156250
        k(   49) = (   0.2495743  -0.2146577   0.2707633), wk =   0.0312500
        k(   50) = (   0.4991486   0.0000000   0.2707633), wk =   0.0156250
        k(   51) = (  -1.9965943  -0.6439730  -0.2030725), wk =   0.0156250
        k(   52) = (  -1.7470200  -0.4293153  -0.2030725), wk =   0.0312500
        k(   53) = (  -1.4974457  -0.2146577  -0.2030725), wk =   0.0312500
        k(   54) = (  -1.2478714   0.0000000  -0.2030725), wk =   0.0156250
        k(   55) = (   0.0000000   0.8586307  -0.1353817), wk =   0.0156250
        k(   56) = (  -1.7470200  -0.6439730  -0.1353817), wk =   0.0312500
        k(   57) = (  -1.4974457  -0.4293153  -0.1353817), wk =   0.0312500
        k(   58) = (  -1.2478714  -0.2146577  -0.1353817), wk =   0.0312500
        k(   59) = (  -0.9982971   0.0000000  -0.1353817), wk =   0.0156250
        k(   60) = (   0.0000000   0.6439730  -0.0676908), wk =   0.0156250
        k(   61) = (   0.2495743   0.8586307  -0.0676908), wk =   0.0312500
        k(   62) = (  -1.4974457  -0.6439730  -0.0676908), wk =   0.0312500
        k(   63) = (  -1.2478714  -0.4293153  -0.0676908), wk =   0.0312500
        k(   64) = (  -0.9982971  -0.2146577  -0.0676908), wk =   0.0312500
        k(   65) = (  -0.7487229   0.0000000  -0.0676908), wk =   0.0156250
        k(   66) = (   0.0000000   0.4293153   0.0000000), wk =   0.0078125
        k(   67) = (   0.2495743   0.6439730   0.0000000), wk =   0.0156250
        k(   68) = (   0.4991486   0.8586307   0.0000000), wk =   0.0156250
        k(   69) = (  -1.2478714  -0.6439730   0.0000000), wk =   0.0156250
        k(   70) = (  -0.9982971  -0.4293153   0.0000000), wk =   0.0156250
        k(   71) = (  -0.7487229  -0.2146577   0.0000000), wk =   0.0156250
        k(   72) = (  -0.4991486   0.0000000   0.0000000), wk =   0.0078125
        k(   73) = (   0.9982971   0.8586307   0.2707633), wk =   0.0078125
        k(   74) = (   0.0000000   0.0000000   0.2707633), wk =   0.0078125
        k(   75) = (   0.0000000  -0.2146577   0.3384542), wk =   0.0156250
        k(   76) = (   0.2495743   0.0000000   0.3384542), wk =   0.0156250
        k(   77) = (  -1.9965943  -0.4293153  -0.1353817), wk =   0.0156250
        k(   78) = (  -1.7470200  -0.2146577  -0.1353817), wk =   0.0312500
        k(   79) = (  -1.4974457   0.0000000  -0.1353817), wk =   0.0156250
        k(   80) = (   0.0000000   1.0732883  -0.0676908), wk =   0.0156250
        k(   81) = (  -1.7470200  -0.4293153  -0.0676908), wk =   0.0312500
        k(   82) = (  -1.4974457  -0.2146577  -0.0676908), wk =   0.0312500
        k(   83) = (  -1.2478714   0.0000000  -0.0676908), wk =   0.0156250
        k(   84) = (   0.0000000   0.8586307   0.0000000), wk =   0.0078125
        k(   85) = (   0.2495743   1.0732883   0.0000000), wk =   0.0156250
        k(   86) = (  -1.4974457  -0.4293153   0.0000000), wk =   0.0156250
        k(   87) = (  -1.2478714  -0.2146577   0.0000000), wk =   0.0156250
        k(   88) = (  -0.9982971   0.0000000   0.0000000), wk =   0.0078125
        k(   89) = (   0.0000000   0.0000000   0.4061450), wk =   0.0078125
        k(   90) = (  -1.9965943  -0.2146577  -0.0676908), wk =   0.0156250
        k(   91) = (  -1.7470200   0.0000000  -0.0676908), wk =   0.0156250
        k(   92) = (   0.0000000   1.2879460   0.0000000), wk =   0.0078125
        k(   93) = (  -1.7470200  -0.2146577   0.0000000), wk =   0.0156250
        k(   94) = (  -1.4974457   0.0000000   0.0000000), wk =   0.0078125
        k(   95) = (  -1.9965943  -1.7172613  -0.5415266), wk =   0.0039062

                       cryst. coord.
        k(    1) = (   0.0000000   0.0000000   0.0000000), wk =   0.0039062
        k(    2) = (   0.0000000   0.0000000   0.1250000), wk =   0.0156250
        k(    3) = (   0.0000000   0.0000000   0.2500000), wk =   0.0156250
        k(    4) = (  -0.0000000   0.0000000   0.3750000), wk =   0.0156250
        k(    5) = (   0.0000000   0.0000000  -0.5000000), wk =   0.0078125
        k(    6) = (   0.0000000   0.1250000   0.0000000), wk =   0.0156250
        k(    7) = (   0.0000000   0.1250000   0.1250000), wk =   0.0312500
        k(    8) = (   0.0000000   0.1250000   0.2500000), wk =   0.0312500
        k(    9) = (  -0.0000000   0.1250000   0.3750000), wk =   0.0312500
        k(   10) = (   0.0000000   0.1250000  -0.5000000), wk =   0.0312500
        k(   11) = (   0.0000000   0.1250000  -0.3750000), wk =   0.0312500
        k(   12) = (   0.0000000   0.1250000  -0.2500000), wk =   0.0312500
        k(   13) = (   0.0000000   0.1250000  -0.1250000), wk =   0.0156250
        k(   14) = (   0.0000000   0.2500000   0.0000000), wk =   0.0156250
        k(   15) = (   0.0000000   0.2500000   0.1250000), wk =   0.0312500
        k(   16) = (   0.0000000   0.2500000   0.2500000), wk =   0.0312500
        k(   17) = (  -0.0000000   0.2500000   0.3750000), wk =   0.0312500
        k(   18) = (   0.0000000   0.2500000  -0.5000000), wk =   0.0312500
        k(   19) = (   0.0000000   0.2500000  -0.3750000), wk =   0.0312500
        k(   20) = (   0.0000000   0.2500000  -0.2500000), wk =   0.0156250
        k(   21) = (   0.0000000   0.2500000  -0.1250000), wk =   0.0312500
        k(   22) = (   0.0000000   0.3750000   0.0000000), wk =   0.0156250
        k(   23) = (   0.0000000   0.3750000   0.1250000), wk =   0.0312500
        k(   24) = (  -0.0000000   0.3750000   0.2500000), wk =   0.0312500
        k(   25) = (  -0.0000000   0.3750000   0.3750000), wk =   0.0312500
        k(   26) = (   0.0000000   0.3750000  -0.5000000), wk =   0.0312500
        k(   27) = (   0.0000000   0.3750000  -0.3750000), wk =   0.0156250
        k(   28) = (   0.0000000   0.3750000  -0.2500000), wk =   0.0312500
        k(   29) = (   0.0000000   0.3750000  -0.1250000), wk =   0.0312500
        k(   30) = (   0.0000000  -0.5000000   0.0000000), wk =   0.0078125
        k(   31) = (   0.0000000  -0.5000000   0.1250000), wk =   0.0312500
        k(   32) = (   0.0000000  -0.5000000   0.2500000), wk =   0.0312500
        k(   33) = (   0.0000000  -0.5000000   0.3750000), wk =   0.0312500
        k(   34) = (   0.0000000  -0.5000000  -0.5000000), wk =   0.0078125
        k(   35) = (   0.1250000   0.1250000   0.1250000), wk =   0.0312500
        k(   36) = (   0.1250000   0.1250000   0.2500000), wk =   0.0312500
        k(   37) = (   0.1250000   0.1250000   0.3750000), wk =   0.0156250
        k(   38) = (   0.1250000   0.1250000  -0.1250000), wk =   0.0078125
        k(   39) = (   0.1250000   0.2500000   0.1250000), wk =   0.0312500
        k(   40) = (   0.1250000   0.2500000   0.2500000), wk =   0.0312500
        k(   41) = (   0.1250000   0.2500000   0.3750000), wk =   0.0312500
        k(   42) = (   0.1250000   0.2500000  -0.5000000), wk =   0.0312500
        k(   43) = (   0.1250000   0.2500000  -0.2500000), wk =   0.0156250
        k(   44) = (   0.1250000   0.2500000  -0.1250000), wk =   0.0156250
        k(   45) = (   0.1250000   0.3750000   0.1250000), wk =   0.0156250
        k(   46) = (   0.1250000   0.3750000   0.2500000), wk =   0.0312500
        k(   47) = (   0.1250000   0.3750000   0.3750000), wk =   0.0156250
        k(   48) = (   0.1250000   0.3750000  -0.3750000), wk =   0.0156250
        k(   49) = (   0.1250000   0.3750000  -0.2500000), wk =   0.0312500
        k(   50) = (   0.1250000   0.3750000  -0.1250000), wk =   0.0156250
        k(   51) = (   0.1250000  -0.5000000  -0.5000000), wk =   0.0156250
        k(   52) = (   0.1250000  -0.5000000  -0.3750000), wk =   0.0312500
        k(   53) = (   0.1250000  -0.5000000  -0.2500000), wk =   0.0312500
        k(   54) = (   0.1250000  -0.5000000  -0.1250000), wk =   0.0156250
        k(   55) = (   0.1250000  -0.3750000   0.3750000), wk =   0.0156250
        k(   56) = (   0.1250000  -0.3750000  -0.5000000), wk =   0.0312500
        k(   57) = (   0.1250000  -0.3750000  -0.3750000), wk =   0.0312500
        k(   58) = (   0.1250000  -0.3750000  -0.2500000), wk =   0.0312500
        k(   59) = (   0.1250000  -0.3750000  -0.1250000), wk =   0.0156250
        k(   60) = (   0.1250000  -0.2500000   0.2500000), wk =   0.0156250
        k(   61) = (   0.1250000  -0.2500000   0.3750000), wk =   0.0312500
        k(   62) = (   0.1250000  -0.2500000  -0.5000000), wk =   0.0312500
        k(   63) = (   0.1250000  -0.2500000  -0.3750000), wk =   0.0312500
        k(   64) = (   0.1250000  -0.2500000  -0.2500000), wk =   0.0312500
        k(   65) = (   0.1250000  -0.2500000  -0.1250000), wk =   0.0156250
        k(   66) = (   0.1250000  -0.1250000   0.1250000), wk =   0.0078125
        k(   67) = (   0.1250000  -0.1250000   0.2500000), wk =   0.0156250
        k(   68) = (   0.1250000  -0.1250000   0.3750000), wk =   0.0156250
        k(   69) = (   0.1250000  -0.1250000  -0.5000000), wk =   0.0156250
        k(   70) = (   0.1250000  -0.1250000  -0.3750000), wk =   0.0156250
        k(   71) = (   0.1250000  -0.1250000  -0.2500000), wk =   0.0156250
        k(   72) = (   0.1250000  -0.1250000  -0.1250000), wk =   0.0078125
        k(   73) = (   0.2500000   0.2500000   0.2500000), wk =   0.0078125
        k(   74) = (   0.2500000   0.2500000  -0.2500000), wk =   0.0078125
        k(   75) = (   0.2500000   0.3750000  -0.3750000), wk =   0.0156250
        k(   76) = (   0.2500000   0.3750000  -0.2500000), wk =   0.0156250
        k(   77) = (   0.2500000  -0.5000000  -0.5000000), wk =   0.0156250
        k(   78) = (   0.2500000  -0.5000000  -0.3750000), wk =   0.0312500
        k(   79) = (   0.2500000  -0.5000000  -0.2500000), wk =   0.0156250
        k(   80) = (   0.2500000  -0.3750000   0.3750000), wk =   0.0156250
        k(   81) = (   0.2500000  -0.3750000  -0.5000000), wk =   0.0312500
        k(   82) = (   0.2500000  -0.3750000  -0.3750000), wk =   0.0312500
        k(   83) = (   0.2500000  -0.3750000  -0.2500000), wk =   0.0156250
        k(   84) = (   0.2500000  -0.2500000   0.2500000), wk =   0.0078125
        k(   85) = (   0.2500000  -0.2500000   0.3750000), wk =   0.0156250
        k(   86) = (   0.2500000  -0.2500000  -0.5000000), wk =   0.0156250
        k(   87) = (   0.2500000  -0.2500000  -0.3750000), wk =   0.0156250
        k(   88) = (   0.2500000  -0.2500000  -0.2500000), wk =   0.0078125
        k(   89) = (   0.3750000   0.3750000  -0.3750000), wk =   0.0078125
        k(   90) = (   0.3750000  -0.5000000  -0.5000000), wk =   0.0156250
        k(   91) = (   0.3750000  -0.5000000  -0.3750000), wk =   0.0156250
        k(   92) = (   0.3750000  -0.3750000   0.3750000), wk =   0.0078125
        k(   93) = (   0.3750000  -0.3750000  -0.5000000), wk =   0.0156250
        k(   94) = (   0.3750000  -0.3750000  -0.3750000), wk =   0.0078125
        k(   95) = (  -0.5000000  -0.5000000  -0.5000000), wk =   0.0039062

     Dense  grid:    74033 G-vectors     FFT dimensions: (  81,  81,  81)

     Smooth grid:    18773 G-vectors     FFT dimensions: (  54,  54,  54)

     Dynamical RAM for                 wfc:       0.02 MB

     Dynamical RAM for     wfc (w. buffer):       1.48 MB

     Dynamical RAM for           str. fact:       0.07 MB

     Dynamical RAM for           local pot:       0.00 MB

     Dynamical RAM for          nlocal pot:       0.03 MB

     Dynamical RAM for                qrad:       4.82 MB

     Dynamical RAM for          rho,v,vnew:       0.37 MB

     Dynamical RAM for               rhoin:       0.12 MB

     Dynamical RAM for            rho*nmix:       0.38 MB

     Dynamical RAM for           G-vectors:       0.09 MB

     Dynamical RAM for          h,s,v(r/c):       0.08 MB

     Dynamical RAM for          <psi|beta>:       0.01 MB

     Dynamical RAM for                 psi:       0.03 MB

     Dynamical RAM for                hpsi:       0.03 MB

     Dynamical RAM for                spsi:       0.03 MB

     Dynamical RAM for      wfcinit/wfcrot:       0.05 MB

     Dynamical RAM for           addusdens:       4.42 MB

     Dynamical RAM for          addusforce:       4.49 MB

     Dynamical RAM for         addusstress:       4.73 MB

     Estimated static dynamical RAM per process >       7.95 MB

     Estimated max dynamical RAM per process >      12.68 MB

     Estimated total dynamical RAM >     608.66 MB

     Check: negative core charge=   -0.000001

     Initial potential from superposition of free atoms

     starting charge   32.99867, renormalised to   33.00000
     Starting wfcs are   25 randomized atomic wfcs
     Checking if some PAW data can be deallocated... 
       PAW data deallocated on   36 nodes for type:  1
       PAW data deallocated on   24 nodes for type:  2
       PAW data deallocated on   36 nodes for type:  3

     total cpu time spent up to now is        1.6 secs

     Self-consistent Calculation

     iteration #  1     ecut=    40.00 Ry     beta= 0.70
     Davidson diagonalization with overlap
     ethr =  1.00E-02,  avg # of iterations =  2.2

     total cpu time spent up to now is        4.0 secs

     total energy              =    -534.51598083 Ry
     estimated scf accuracy    <       0.76316686 Ry

     iteration #  2     ecut=    40.00 Ry     beta= 0.70
     Davidson diagonalization with overlap
     ethr =  2.31E-03,  avg # of iterations =  3.5

     total cpu time spent up to now is        6.8 secs

     total energy              =    -533.64077986 Ry
     estimated scf accuracy    <       8.26798205 Ry

     iteration #  3     ecut=    40.00 Ry     beta= 0.70
     Davidson diagonalization with overlap
     ethr =  2.31E-03,  avg # of iterations =  2.9

     total cpu time spent up to now is        9.3 secs

     total energy              =    -534.96341021 Ry
     estimated scf accuracy    <       0.11911245 Ry

     iteration #  4     ecut=    40.00 Ry     beta= 0.70
     Davidson diagonalization with overlap
     ethr =  3.61E-04,  avg # of iterations =  1.3

     total cpu time spent up to now is       11.4 secs

     total energy              =    -534.95767934 Ry
     estimated scf accuracy    <       0.05797207 Ry

     iteration #  5     ecut=    40.00 Ry     beta= 0.70
     Davidson diagonalization with overlap
     ethr =  1.76E-04,  avg # of iterations =  1.0

     total cpu time spent up to now is       13.4 secs

     total energy              =    -534.95270246 Ry
     estimated scf accuracy    <       0.02476008 Ry

     iteration #  6     ecut=    40.00 Ry     beta= 0.70
     Davidson diagonalization with overlap
     ethr =  7.50E-05,  avg # of iterations =  2.0

     total cpu time spent up to now is       15.5 secs

     total energy              =    -534.95569188 Ry
     estimated scf accuracy    <       0.00044765 Ry

     iteration #  7     ecut=    40.00 Ry     beta= 0.70
     Davidson diagonalization with overlap
     ethr =  1.36E-06,  avg # of iterations =  3.3

     total cpu time spent up to now is       18.3 secs

     total energy              =    -534.95582815 Ry
     estimated scf accuracy    <       0.00012930 Ry

     iteration #  8     ecut=    40.00 Ry     beta= 0.70
     Davidson diagonalization with overlap
     ethr =  3.92E-07,  avg # of iterations =  1.2

     total cpu time spent up to now is       20.4 secs

     total energy              =    -534.95582745 Ry
     estimated scf accuracy    <       0.00002302 Ry

     iteration #  9     ecut=    40.00 Ry     beta= 0.70
     Davidson diagonalization with overlap
     ethr =  6.97E-08,  avg # of iterations =  2.2

     total cpu time spent up to now is       22.7 secs

     total energy              =    -534.95583273 Ry
     estimated scf accuracy    <       0.00000072 Ry

     iteration # 10     ecut=    40.00 Ry     beta= 0.70
     Davidson diagonalization with overlap
     ethr =  2.18E-09,  avg # of iterations =  2.2

     total cpu time spent up to now is       25.0 secs

     total energy              =    -534.95583288 Ry
     estimated scf accuracy    <       0.00000001 Ry

     iteration # 11     ecut=    40.00 Ry     beta= 0.70
     Davidson diagonalization with overlap
     ethr =  4.40E-11,  avg # of iterations =  4.1

     total cpu time spent up to now is       28.1 secs

     total energy              =    -534.95583289 Ry
     estimated scf accuracy    <       0.00000001 Ry

     iteration # 12     ecut=    40.00 Ry     beta= 0.70
     Davidson diagonalization with overlap
     ethr =  3.67E-11,  avg # of iterations =  2.0

     total cpu time spent up to now is       30.3 secs

     End of self-consistent calculation

          k = 0.0000 0.0000 0.0000 (  2363 PWs)   bands (ev):

   -49.8142 -26.0540 -25.7891 -25.7112 -12.3816  -9.5167  -8.8273   0.6179
     2.4660   2.7397   2.8739   3.0065   3.4610   3.9439   4.2030   4.2837
     5.5126   7.2183   7.3604   8.6659   9.3923

     occupation numbers 
     1.0000   1.0000   1.0000   1.0000   1.0000   1.0000   1.0000   1.0000
     1.0000   1.0000   1.0000   1.0000   1.0000   1.0000   1.0000   1.0000
     1.0000  -0.0016  -0.0000  -0.0000  -0.0000

          k = 0.2496 0.2147 0.0000 (  2349 PWs)   bands (ev):

   -49.8116 -26.0790 -25.7825 -25.7422 -12.1864  -9.4079  -8.8350   0.8296
     2.1235   2.2563   2.4461   2.9959   3.2938   3.5044   3.8850   4.0366
     5.9456   7.5286   7.6053   8.7696  10.0970

     occupation numbers 
     1.0000   1.0000   1.0000   1.0000   1.0000   1.0000   1.0000   1.0000
     1.0000   1.0000   1.0000   1.0000   1.0000   1.0000   1.0000   1.0000
     1.0000  -0.0000  -0.0000  -0.0000  -0.0000

          k = 0.4991 0.4293 0.0000 (  2343 PWs)   bands (ev):

   -49.8052 -26.1379 -25.8162 -25.7665 -11.6874  -9.1304  -8.8572   1.1126
     1.4029   1.7347   1.8978   2.0083   2.1874   2.9248   3.8472   4.0147
     6.8159   8.1681   8.2799   9.1748  11.1657

     occupation numbers 
     1.0000   1.0000   1.0000   1.0000   1.0000   1.0000   1.0000   1.0000
     1.0000   1.0000   1.0000   1.0000   1.0000   1.0000   1.0000   1.0000
     0.5302  -0.0000  -0.0000  -0.0000  -0.0000

          k = 0.7487 0.6440 0.0000 (  2329 PWs)   bands (ev):

   -49.7988 -26.1943 -25.8888 -25.7505 -11.1376  -8.8844  -8.8257  -0.0691
     0.9791   1.2644   1.6663   1.7803   2.1880   2.3120   3.5241   3.9772
     7.8718   8.8575   9.0657   9.5872  11.4197

     occupation numbers 
     1.0000   1.0000   1.0000   1.0000   1.0000   1.0000   1.0000   1.0000
     1.0000   1.0000   1.0000   1.0000   1.0000   1.0000   1.0000   1.0000
    -0.0000  -0.0000  -0.0000  -0.0000  -0.0000

          k =-0.9983-0.8586 0.0000 (  2324 PWs)   bands (ev):

   -49.7962 -26.2171 -25.9185 -25.7439 -10.8903  -8.8972  -8.6891  -0.5580
     0.6060   0.9561   1.7525   1.8300   1.9855   2.5740   3.2698   3.8818
     8.4692   9.1892   9.3827   9.7749  11.4527

     occupation numbers 
     1.0000   1.0000   1.0000   1.0000   1.0000   1.0000   1.0000   1.0000
     1.0000   1.0000   1.0000   1.0000   1.0000   1.0000   1.0000   1.0000
    -0.0000  -0.0000  -0.0000  -0.0000  -0.0000

          k = 0.2496 0.0000 0.0677 (  2351 PWs)   bands (ev):

   -49.8121 -26.0514 -25.7835 -25.7431 -12.3643  -9.4273  -8.8403   0.8076
     2.2501   2.6656   2.9519   3.0610   3.1037   3.8025   3.9348   4.1220
     5.9299   7.1283   7.2999   8.7498   9.7719

     occupation numbers 
     1.0000   1.0000   1.0000   1.0000   1.0000   1.0000   1.0000   1.0000
     1.0000   1.0000   1.0000   1.0000   1.0000   1.0000   1.0000   1.0000
     1.0000  -0.0116  -0.0001  -0.0000  -0.0000

          k = 0.4991 0.2147 0.0677 (  2344 PWs)   bands (ev):

   -49.8064 -26.0728 -25.8186 -25.7688 -12.1454  -9.1875  -8.8590   1.2366
     1.9037   2.0838   2.2424   2.4875   2.8936   3.0665   3.8714   4.0714
     6.7645   7.3254   7.4442   9.1786  10.5629

     occupation numbers 
     1.0000   1.0000   1.0000   1.0000   1.0000   1.0000   1.0000   1.0000
     1.0000   1.0000   1.0000   1.0000   1.0000   1.0000   1.0000   1.0000
     0.7776  -0.0001  -0.0000  -0.0000  -0.0000

          k = 0.7487 0.4293 0.0677 (  2325 PWs)   bands (ev):

   -49.8000 -26.1311 -25.8914 -25.7528 -11.6480  -8.9092  -8.8624   1.0927
     1.2410   1.4442   1.6816   1.9146   2.2631   2.5444   3.7141   4.1154
     7.7241   8.0687   8.1768   9.6641  11.1557

     occupation numbers 
     1.0000   1.0000   1.0000   1.0000   1.0000   1.0000   1.0000   1.0000
     1.0000   1.0000   1.0000   1.0000   1.0000   1.0000   1.0000   1.0000
    -0.0000  -0.0000  -0.0000  -0.0000  -0.0000

          k = 0.9983 0.6440 0.0677 (  2336 PWs)   bands (ev):

   -49.7967 -26.1914 -25.9196 -25.7449 -11.1222  -8.9093  -8.7025  -0.0564
     0.7508   0.9312   1.5598   1.9430   2.2134   2.6041   3.3447   3.9469
     8.4572   8.7847   9.0253   9.7599  11.3247

     occupation numbers 
     1.0000   1.0000   1.0000   1.0000   1.0000   1.0000   1.0000   1.0000
     1.0000   1.0000   1.0000   1.0000   1.0000   1.0000   1.0000   1.0000
    -0.0000  -0.0000  -0.0000  -0.0000  -0.0000

          k =-0.7487-0.8586 0.0677 (  2325 PWs)   bands (ev):

   -49.7983 -26.2201 -25.8878 -25.7496 -10.9051  -8.9030  -8.7800  -0.5687
     0.7922   1.2456   1.4384   1.8071   2.3316   2.4035   3.4333   3.8247
     7.9230   9.2405   9.4306   9.4972  11.3828

     occupation numbers 
     1.0000   1.0000   1.0000   1.0000   1.0000   1.0000   1.0000   1.0000
     1.0000   1.0000   1.0000   1.0000   1.0000   1.0000   1.0000   1.0000
    -0.0000  -0.0000  -0.0000  -0.0000  -0.0000

          k =-0.4991-0.6440 0.0677 (  2333 PWs)   bands (ev):

   -49.8040 -26.2015 -25.8138 -25.7641 -11.1744  -9.0545  -8.8755  -0.0983
     1.3254   1.4623   1.5727   1.8797   2.1366   2.9326   3.7167   3.8082
     6.8924   8.9769   9.0600   9.2282  11.4461

     occupation numbers 
     1.0000   1.0000   1.0000   1.0000   1.0000   1.0000   1.0000   1.0000
     1.0000   1.0000   1.0000   1.0000   1.0000   1.0000   1.0000   1.0000
     0.1691  -0.0000  -0.0000  -0.0000  -0.0000

          k =-0.2496-0.4293 0.0677 (  2350 PWs)   bands (ev):

   -49.8104 -26.1446 -25.7801 -25.7400 -11.7266  -9.3397  -8.8485   0.9182
     1.1351   1.4961   2.2531   2.5219   3.1841   3.4099   3.7296   3.9177
     6.0102   8.3792   8.4077   8.8028  10.6577

     occupation numbers 
     1.0000   1.0000   1.0000   1.0000   1.0000   1.0000   1.0000   1.0000
     1.0000   1.0000   1.0000   1.0000   1.0000   1.0000   1.0000   1.0000
     1.0000  -0.0000  -0.0000  -0.0000  -0.0000

          k = 0.0000-0.2147 0.0677 (  2358 PWs)   bands (ev):

   -49.8137 -26.0816 -25.7881 -25.7103 -12.2033  -9.4863  -8.8360   0.6705
     2.0641   2.4345   2.4886   3.2962   3.3586   3.7552   3.9576   4.1603
     5.5415   7.6437   7.6704   8.6952   9.7295

     occupation numbers 
     1.0000   1.0000   1.0000   1.0000   1.0000   1.0000   1.0000   1.0000
     1.0000   1.0000   1.0000   1.0000   1.0000   1.0000   1.0000   1.0000
     1.0000  -0.0000  -0.0000  -0.0000  -0.0000

          k = 0.4991 0.0000 0.1354 (  2355 PWs)   bands (ev):

   -49.8069 -26.0454 -25.8196 -25.7699 -12.3227  -9.2044  -8.8666   1.1843
     1.9256   2.0259   2.4823   3.0516   3.3275   3.4646   3.7872   3.9105
     6.7936   6.9416   7.1000   9.1199  10.1232

     occupation numbers 
     1.0000   1.0000   1.0000   1.0000   1.0000   1.0000   1.0000   1.0000
     1.0000   1.0000   1.0000   1.0000   1.0000   1.0000   1.0000   1.0000
     0.6433   0.0288  -0.0183  -0.0000  -0.0000

          k = 0.7487 0.2147 0.1354 (  2336 PWs)   bands (ev):

   -49.8012 -26.0665 -25.8939 -25.7552 -12.1044  -8.9695  -8.8614   1.0786
     1.4591   1.8262   2.0195   2.6200   2.7671   3.1415   3.8343   4.0173
     7.0972   7.2331   7.8559   9.6541  10.4710

     occupation numbers 
     1.0000   1.0000   1.0000   1.0000   1.0000   1.0000   1.0000   1.0000
     1.0000   1.0000   1.0000   1.0000   1.0000   1.0000   1.0000   1.0000
    -0.0191  -0.0011  -0.0000  -0.0000  -0.0000

          k = 0.9983 0.4293 0.1354 (  2331 PWs)   bands (ev):

   -49.7979 -26.1283 -25.9222 -25.7472 -11.6315  -8.9380  -8.7342   0.7675
     1.2180   1.2431   1.4292   1.9532   2.6356   2.8154   3.5544   4.0462
     7.8571   8.1258   8.4593   9.7441  10.9352

     occupation numbers 
     1.0000   1.0000   1.0000   1.0000   1.0000   1.0000   1.0000   1.0000
     1.0000   1.0000   1.0000   1.0000   1.0000   1.0000   1.0000   1.0000
    -0.0000  -0.0000  -0.0000  -0.0000  -0.0000

          k = 1.2479 0.6440 0.1354 (  2332 PWs)   bands (ev):

   -49.7988 -26.1943 -25.8888 -25.7506 -11.1374  -8.9402  -8.7659  -0.0694
     0.9227   1.1575   1.3365   1.9102   2.5134   2.5809   3.5047   3.8079
     7.9396   8.8422   9.0713   9.4240  11.2236

     occupation numbers 
     1.0000   1.0000   1.0000   1.0000   1.0000   1.0000   1.0000   1.0000
     1.0000   1.0000   1.0000   1.0000   1.0000   1.0000   1.0000   1.0000
    -0.0000  -0.0000  -0.0000  -0.0000  -0.0000

          k =-0.4991-0.8586 0.1354 (  2328 PWs)   bands (ev):

   -49.8035 -26.2274 -25.8128 -25.7631 -10.9401  -8.9891  -8.9183  -0.5944
     1.1770   1.2224   1.7247   1.8037   2.1817   2.9639   3.5809   3.7486
     6.9464   8.9754   9.4255   9.5238  11.4946

     occupation numbers 
     1.0000   1.0000   1.0000   1.0000   1.0000   1.0000   1.0000   1.0000
     1.0000   1.0000   1.0000   1.0000   1.0000   1.0000   1.0000   1.0000
     0.0199  -0.0000  -0.0000  -0.0000  -0.0000

          k =-0.2496-0.6440 0.1354 (  2339 PWs)   bands (ev):

   -49.8092 -26.2086 -25.7777 -25.7378 -11.2107  -9.2499  -8.8880  -0.1265
     0.9552   1.2496   2.0122   2.2603   2.9747   3.3203   3.5293   3.9384
     6.0789   8.7834   9.2260   9.2582  11.0633

     occupation numbers 
     1.0000   1.0000   1.0000   1.0000   1.0000   1.0000   1.0000   1.0000
     1.0000   1.0000   1.0000   1.0000   1.0000   1.0000   1.0000   1.0000
     1.0000  -0.0000  -0.0000  -0.0000  -0.0000

          k = 0.0000-0.4293 0.1354 (  2350 PWs)   bands (ev):

   -49.8125 -26.1473 -25.7857 -25.7081 -11.7426  -9.4066  -8.8647   0.7822
     1.1117   1.4401   2.5452   2.9063   3.0152   3.5523   3.9540   4.0102
     5.5970   8.4293   8.5386   8.7664  10.3330

     occupation numbers 
     1.0000   1.0000   1.0000   1.0000   1.0000   1.0000   1.0000   1.0000
     1.0000   1.0000   1.0000   1.0000   1.0000   1.0000   1.0000   1.0000
     1.0000  -0.0000  -0.0000  -0.0000  -0.0000

          k = 0.2496-0.2147 0.1354 (  2347 PWs)   bands (ev):

   -49.8116 -26.0790 -25.7825 -25.7422 -12.1861  -9.3889  -8.8581   0.8857
     2.1391   2.2513   2.4571   2.9595   3.2064   3.4986   3.8623   4.0676
     5.9692   7.5227   7.6226   8.7511  10.1631

     occupation numbers 
     1.0000   1.0000   1.0000   1.0000   1.0000   1.0000   1.0000   1.0000
     1.0000   1.0000   1.0000   1.0000   1.0000   1.0000   1.0000   1.0000
     1.0000  -0.0000  -0.0000  -0.0000  -0.0000

          k = 0.7487 0.0000 0.2031 (  2340 PWs)   bands (ev):

   -49.8017 -26.0393 -25.8950 -25.7561 -12.2813  -9.0075  -8.8461   1.0096
     1.3344   1.9976   2.0984   3.1713   3.4427   3.5807   3.7316   3.7615
     6.7858   6.8000   7.8436   9.5577   9.9957

     occupation numbers 
     1.0000   1.0000   1.0000   1.0000   1.0000   1.0000   1.0000   1.0000
     1.0000   1.0000   1.0000   1.0000   1.0000   1.0000   1.0000   1.0000
     0.6812   0.6113  -0.0000  -0.0000  -0.0000

          k = 0.9983 0.2147 0.2031 (  2342 PWs)   bands (ev):

   -49.7991 -26.0639 -25.9249 -25.7495 -12.0874  -8.9664  -8.7655   0.6970
     1.3343   1.7698   1.9312   2.6896   2.9055   3.4041   3.8048   3.9319
     7.0368   7.1257   8.4359   9.6856  10.3331

     occupation numbers 
     1.0000   1.0000   1.0000   1.0000   1.0000   1.0000   1.0000   1.0000
     1.0000   1.0000   1.0000   1.0000   1.0000   1.0000   1.0000   1.0000
    -0.0343  -0.0122  -0.0000  -0.0000  -0.0000

          k = 1.2479 0.4293 0.2031 (  2336 PWs)   bands (ev):

   -49.8000 -26.1311 -25.8914 -25.7529 -11.6477  -8.9824  -8.7835   1.0050
     1.1838   1.2999   1.3962   2.0992   2.6519   2.8099   3.6933   3.9546
     7.8633   7.9954   8.1815   9.4164  10.8937

     occupation numbers 
     1.0000   1.0000   1.0000   1.0000   1.0000   1.0000   1.0000   1.0000
     1.0000   1.0000   1.0000   1.0000   1.0000   1.0000   1.0000   1.0000
    -0.0000  -0.0000  -0.0000  -0.0000  -0.0000

          k = 1.4974 0.6440 0.2031 (  2340 PWs)   bands (ev):

   -49.8040 -26.2015 -25.8138 -25.7641 -11.1740  -9.0197  -8.9112  -0.0995
     1.2560   1.3221   1.6947   1.8499   2.2872   3.0116   3.5572   3.8717
     6.9508   8.8684   9.1257   9.1608  11.3835

     occupation numbers 
     1.0000   1.0000   1.0000   1.0000   1.0000   1.0000   1.0000   1.0000
     1.0000   1.0000   1.0000   1.0000   1.0000   1.0000   1.0000   1.0000
     0.0124  -0.0000  -0.0000  -0.0000  -0.0000

          k =-0.2496-0.8586 0.2031 (  2340 PWs)   bands (ev):

   -49.8087 -26.2347 -25.7767 -25.7369 -10.9745  -9.1858  -8.9351  -0.6200
     0.8401   1.4220   1.7758   2.1708   2.8884   3.2255   3.4813   3.9659
     6.1158   8.7976   9.5756   9.6050  11.2266

     occupation numbers 
     1.0000   1.0000   1.0000   1.0000   1.0000   1.0000   1.0000   1.0000
     1.0000   1.0000   1.0000   1.0000   1.0000   1.0000   1.0000   1.0000
     1.0000  -0.0000  -0.0000  -0.0000  -0.0000

          k = 0.0000-0.6440 0.2031 (  2341 PWs)   bands (ev):

   -49.8113 -26.2115 -25.7833 -25.7059 -11.2254  -9.3120  -8.9120  -0.1385
     0.7875   1.2405   2.4076   2.5621   2.6085   3.4597   3.9243   3.9874
     5.6511   8.8369   9.2289   9.3647  10.8000

     occupation numbers 
     1.0000   1.0000   1.0000   1.0000   1.0000   1.0000   1.0000   1.0000
     1.0000   1.0000   1.0000   1.0000   1.0000   1.0000   1.0000   1.0000
     1.0000  -0.0000  -0.0000  -0.0000  -0.0000

          k = 0.2496-0.4293 0.2031 (  2350 PWs)   bands (ev):

   -49.8104 -26.1446 -25.7801 -25.7400 -11.7261  -9.3053  -8.8889   0.9635
     1.1596   1.5915   2.1779   2.5434   2.9616   3.4657   3.5792   4.0762
     6.0397   8.3975   8.4061   8.7786  10.7593

     occupation numbers 
     1.0000   1.0000   1.0000   1.0000   1.0000   1.0000   1.0000   1.0000
     1.0000   1.0000   1.0000   1.0000   1.0000   1.0000   1.0000   1.0000
     1.0000  -0.0000  -0.0000  -0.0000  -0.0000

          k = 0.4991-0.2147 0.2031 (  2351 PWs)   bands (ev):

   -49.8064 -26.0728 -25.8186 -25.7688 -12.1451  -9.1733  -8.8737   1.2095
     1.8888   1.9450   2.3097   2.5204   2.9344   3.1640   3.8435   4.0834
     6.8199   7.2914   7.4584   9.0467  10.5076

     occupation numbers 
     1.0000   1.0000   1.0000   1.0000   1.0000   1.0000   1.0000   1.0000
     1.0000   1.0000   1.0000   1.0000   1.0000   1.0000   1.0000   1.0000
     0.5097  -0.0002  -0.0000  -0.0000  -0.0000

          k =-0.9983 0.0000-0.2708 (  2346 PWs)   bands (ev):

   -49.7996 -26.0368 -25.9260 -25.7504 -12.2641  -8.9781  -8.7783   0.6631
     1.3140   1.8927   2.0447   3.3083   3.4111   3.5024   3.7844   3.9227
     6.6096   6.7495   8.4233   9.5514  10.0405

     occupation numbers 
     1.0000   1.0000   1.0000   1.0000   1.0000   1.0000   1.0000   1.0000
     1.0000   1.0000   1.0000   1.0000   1.0000   1.0000   1.0000   1.0000
     1.0347   0.8367  -0.0000  -0.0000  -0.0000

          k =-0.7487 0.2147-0.2708 (  2339 PWs)   bands (ev):

   -49.8012 -26.0665 -25.8939 -25.7552 -12.1042  -9.0103  -8.8166   0.9975
     1.2703   1.8256   2.1596   2.6385   2.8956   3.2526   3.8091   4.0115
     7.0863   7.2272   7.8859   9.4733  10.3399

     occupation numbers 
     1.0000   1.0000   1.0000   1.0000   1.0000   1.0000   1.0000   1.0000
     1.0000   1.0000   1.0000   1.0000   1.0000   1.0000   1.0000   1.0000
    -0.0221  -0.0012  -0.0000  -0.0000  -0.0000

          k =-0.4991 0.4293-0.2708 (  2336 PWs)   bands (ev):

   -49.8052 -26.1378 -25.8162 -25.7665 -11.6868  -9.1036  -8.8848   1.0944
     1.3103   1.6919   1.8874   1.9374   2.4035   3.0833   3.6948   4.0596
     6.8992   8.1397   8.3029   9.0018  11.0742

     occupation numbers 
     1.0000   1.0000   1.0000   1.0000   1.0000   1.0000   1.0000   1.0000
     1.0000   1.0000   1.0000   1.0000   1.0000   1.0000   1.0000   1.0000
     0.1442  -0.0000  -0.0000  -0.0000  -0.0000

          k =-0.2496 0.6440-0.2708 (  2342 PWs)   bands (ev):

   -49.8092 -26.2086 -25.7777 -25.7378 -11.2103  -9.2134  -8.9290  -0.1277
     0.9478   1.4658   1.8448   2.2697   2.8840   3.2759   3.5019   4.0218
     6.1008   8.7881   9.2148   9.2607  11.1321

     occupation numbers 
     1.0000   1.0000   1.0000   1.0000   1.0000   1.0000   1.0000   1.0000
     1.0000   1.0000   1.0000   1.0000   1.0000   1.0000   1.0000   1.0000
     1.0000  -0.0000  -0.0000  -0.0000  -0.0000

          k =-1.9966-0.8586-0.2708 (  2352 PWs)   bands (ev):

   -49.8108 -26.2378 -25.7823 -25.7051 -10.9885  -9.2641  -8.9427  -0.6306
     0.6874   1.3339   2.1204   2.4360   2.6331   3.4184   3.8945   3.9841
     5.6736   8.8666   9.5799   9.7024  10.9719

     occupation numbers 
     1.0000   1.0000   1.0000   1.0000   1.0000   1.0000   1.0000   1.0000
     1.0000   1.0000   1.0000   1.0000   1.0000   1.0000   1.0000   1.0000
     1.0000  -0.0000  -0.0000  -0.0000  -0.0000

          k = 0.4991 0.4293 0.1354 (  2338 PWs)   bands (ev):

   -49.8052 -26.1378 -25.8162 -25.7665 -11.6872  -9.1231  -8.8647   1.1068
     1.3674   1.7520   1.8366   2.0675   2.1927   2.9862   3.7959   4.0350
     6.8394   8.1551   8.2900   9.1247  11.1433

     occupation numbers 
     1.0000   1.0000   1.0000   1.0000   1.0000   1.0000   1.0000   1.0000
     1.0000   1.0000   1.0000   1.0000   1.0000   1.0000   1.0000   1.0000
     0.4090  -0.0000  -0.0000  -0.0000  -0.0000

          k = 0.7487 0.6440 0.1354 (  2327 PWs)   bands (ev):

   -49.7988 -26.1943 -25.8888 -25.7505 -11.1376  -8.8996  -8.8098  -0.0692
     0.9720   1.2301   1.6452   1.7377   2.2847   2.3603   3.5183   3.9499
     7.8840   8.8458   9.0659   9.5679  11.4005

     occupation numbers 
     1.0000   1.0000   1.0000   1.0000   1.0000   1.0000   1.0000   1.0000
     1.0000   1.0000   1.0000   1.0000   1.0000   1.0000   1.0000   1.0000
    -0.0000  -0.0000  -0.0000  -0.0000  -0.0000

          k = 0.9983 0.8586 0.1354 (  2324 PWs)   bands (ev):

   -49.7962 -26.2171 -25.9185 -25.7439 -10.8903  -8.8972  -8.6891  -0.5580
     0.6203   0.9262   1.7757   1.8620   1.9514   2.5856   3.2262   3.9098
     8.4708   9.1909   9.3919   9.7473  11.4347

     occupation numbers 
     1.0000   1.0000   1.0000   1.0000   1.0000   1.0000   1.0000   1.0000
     1.0000   1.0000   1.0000   1.0000   1.0000   1.0000   1.0000   1.0000
    -0.0000  -0.0000  -0.0000  -0.0000  -0.0000

          k = 0.0000 0.0000 0.1354 (  2371 PWs)   bands (ev):

   -49.8142 -26.0540 -25.7892 -25.7112 -12.3813  -9.4939  -8.8564   0.6963
     2.4903   2.7086   2.8470   3.0613   3.4475   3.8244   4.1563   4.2483
     5.5306   7.2185   7.3903   8.7171   9.4851

     occupation numbers 
     1.0000   1.0000   1.0000   1.0000   1.0000   1.0000   1.0000   1.0000
     1.0000   1.0000   1.0000   1.0000   1.0000   1.0000   1.0000   1.0000
     1.0000  -0.0016  -0.0000  -0.0000  -0.0000

          k = 0.7487 0.4293 0.2031 (  2334 PWs)   bands (ev):

   -49.8000 -26.1311 -25.8914 -25.7529 -11.6479  -8.9511  -8.8182   1.0543
     1.2111   1.4152   1.4970   1.9900   2.4701   2.6488   3.7018   4.0566
     7.7772   8.0378   8.1783   9.5639  11.0502

     occupation numbers 
     1.0000   1.0000   1.0000   1.0000   1.0000   1.0000   1.0000   1.0000
     1.0000   1.0000   1.0000   1.0000   1.0000   1.0000   1.0000   1.0000
    -0.0000  -0.0000  -0.0000  -0.0000  -0.0000

          k = 0.9983 0.6440 0.2031 (  2327 PWs)   bands (ev):

   -49.7967 -26.1914 -25.9196 -25.7449 -11.1222  -8.9092  -8.7025  -0.0564
     0.7836   0.8785   1.6409   1.8553   2.2266   2.6430   3.2913   3.9764
     8.4653   8.7806   9.0318   9.7292  11.3160

     occupation numbers 
     1.0000   1.0000   1.0000   1.0000   1.0000   1.0000   1.0000   1.0000
     1.0000   1.0000   1.0000   1.0000   1.0000   1.0000   1.0000   1.0000
    -0.0000  -0.0000  -0.0000  -0.0000  -0.0000

          k = 1.2479 0.8586 0.2031 (  2327 PWs)   bands (ev):

   -49.7983 -26.2201 -25.8878 -25.7496 -10.9051  -8.9030  -8.7800  -0.5687
     0.7957   1.2124   1.5395   1.7006   2.3660   2.4125   3.4298   3.8191
     7.9240   9.2041   9.4353   9.5278  11.4208

     occupation numbers 
     1.0000   1.0000   1.0000   1.0000   1.0000   1.0000   1.0000   1.0000
     1.0000   1.0000   1.0000   1.0000   1.0000   1.0000   1.0000   1.0000
    -0.0000  -0.0000  -0.0000  -0.0000  -0.0000

          k =-0.4991-0.6440 0.2031 (  2330 PWs)   bands (ev):

   -49.8040 -26.2015 -25.8138 -25.7641 -11.1743  -9.0421  -8.8882  -0.0988
     1.2931   1.3916   1.6119   1.9272   2.1592   2.9739   3.6292   3.8552
     6.9159   8.9051   9.1217   9.1933  11.4288

     occupation numbers 
     1.0000   1.0000   1.0000   1.0000   1.0000   1.0000   1.0000   1.0000
     1.0000   1.0000   1.0000   1.0000   1.0000   1.0000   1.0000   1.0000
     0.0908  -0.0000  -0.0000  -0.0000  -0.0000

          k = 0.0000-0.2147 0.2031 (  2347 PWs)   bands (ev):

   -49.8137 -26.0816 -25.7881 -25.7102 -12.2027  -9.4424  -8.8907   0.8148
     2.1042   2.4323   2.5324   3.1529   3.2820   3.5646   4.0600   4.0899
     5.5583   7.6433   7.6932   8.7825   9.9135

     occupation numbers 
     1.0000   1.0000   1.0000   1.0000   1.0000   1.0000   1.0000   1.0000
     1.0000   1.0000   1.0000   1.0000   1.0000   1.0000   1.0000   1.0000
     1.0000  -0.0000  -0.0000  -0.0000  -0.0000

          k = 0.2496 0.0000 0.2031 (  2345 PWs)   bands (ev):

   -49.8121 -26.0514 -25.7835 -25.7431 -12.3638  -9.3890  -8.8864   0.9261
     2.2556   2.5897   2.8874   3.0477   3.1776   3.7007   3.9616   4.0503
     5.9831   7.1085   7.3462   8.7207   9.8707

     occupation numbers 
     1.0000   1.0000   1.0000   1.0000   1.0000   1.0000   1.0000   1.0000
     1.0000   1.0000   1.0000   1.0000   1.0000   1.0000   1.0000   1.0000
     1.0000  -0.0162  -0.0000  -0.0000  -0.0000

          k = 0.9983 0.4293 0.2708 (  2338 PWs)   bands (ev):

   -49.7979 -26.1283 -25.9223 -25.7472 -11.6315  -8.9380  -8.7343   0.7545
     1.2177   1.2416   1.5065   1.8633   2.6230   2.8740   3.5277   4.0544
     7.8657   8.1274   8.4528   9.7220  10.9540

     occupation numbers 
     1.0000   1.0000   1.0000   1.0000   1.0000   1.0000   1.0000   1.0000
     1.0000   1.0000   1.0000   1.0000   1.0000   1.0000   1.0000   1.0000
    -0.0000  -0.0000  -0.0000  -0.0000  -0.0000

          k = 1.2479 0.6440 0.2708 (  2323 PWs)   bands (ev):

   -49.7988 -26.1943 -25.8888 -25.7505 -11.1375  -8.9231  -8.7846  -0.0693
     0.9517   1.1729   1.4846   1.8167   2.4255   2.4749   3.5076   3.8817
     7.9127   8.8314   9.0680   9.5074  11.3287

     occupation numbers 
     1.0000   1.0000   1.0000   1.0000   1.0000   1.0000   1.0000   1.0000
     1.0000   1.0000   1.0000   1.0000   1.0000   1.0000   1.0000   1.0000
    -0.0000  -0.0000  -0.0000  -0.0000  -0.0000

          k = 1.4974 0.8586 0.2708 (  2342 PWs)   bands (ev):

   -49.8035 -26.2274 -25.8129 -25.7632 -10.9401  -8.9892  -8.9183  -0.5944
     1.1929   1.2060   1.7106   1.8121   2.1965   2.9518   3.5727   3.7603
     6.9460   8.9653   9.4454   9.5149  11.5057

     occupation numbers 
     1.0000   1.0000   1.0000   1.0000   1.0000   1.0000   1.0000   1.0000
     1.0000   1.0000   1.0000   1.0000   1.0000   1.0000   1.0000   1.0000
     0.0207  -0.0000  -0.0000  -0.0000  -0.0000

          k = 0.0000-0.4293 0.2708 (  2351 PWs)   bands (ev):

   -49.8125 -26.1473 -25.7857 -25.7081 -11.7419  -9.3485  -8.9342   0.8957
     1.1448   1.5762   2.5931   2.6239   2.9021   3.3877   3.9270   4.1565
     5.6093   8.4201   8.5375   8.8542  10.5511

     occupation numbers 
     1.0000   1.0000   1.0000   1.0000   1.0000   1.0000   1.0000   1.0000
     1.0000   1.0000   1.0000   1.0000   1.0000   1.0000   1.0000   1.0000
     1.0000  -0.0000  -0.0000  -0.0000  -0.0000

          k = 0.2496-0.2147 0.2708 (  2349 PWs)   bands (ev):

   -49.8116 -26.0790 -25.7825 -25.7422 -12.1855  -9.3344  -8.9223   1.0469
     2.1094   2.2768   2.4723   2.8384   3.1170   3.4575   3.7869   4.1162
     6.0244   7.5146   7.6526   8.7406  10.2875

     occupation numbers 
     1.0000   1.0000   1.0000   1.0000   1.0000   1.0000   1.0000   1.0000
     1.0000   1.0000   1.0000   1.0000   1.0000   1.0000   1.0000   1.0000
     1.0000  -0.0000  -0.0000  -0.0000  -0.0000

          k = 0.4991 0.0000 0.2708 (  2343 PWs)   bands (ev):

   -49.8069 -26.0453 -25.8196 -25.7698 -12.3223  -9.1848  -8.8868   1.1669
     1.7865   2.0250   2.5660   2.9867   3.4482   3.5450   3.8505   3.8675
     6.8614   6.8919   7.1141   8.9369  10.0457

     occupation numbers 
     1.0000   1.0000   1.0000   1.0000   1.0000   1.0000   1.0000   1.0000
     1.0000   1.0000   1.0000   1.0000   1.0000   1.0000   1.0000   1.0000
     0.3009   0.1708  -0.0148  -0.0000  -0.0000

          k =-1.9966-0.6440-0.2031 (  2346 PWs)   bands (ev):

   -49.8113 -26.2116 -25.7833 -25.7060 -11.2249  -9.2618  -8.9693  -0.1400
     0.8499   1.3911   2.2008   2.5615   2.6385   3.2649   3.8721   4.1478
     5.6575   8.8882   9.2199   9.3640  10.9197

     occupation numbers 
     1.0000   1.0000   1.0000   1.0000   1.0000   1.0000   1.0000   1.0000
     1.0000   1.0000   1.0000   1.0000   1.0000   1.0000   1.0000   1.0000
     1.0000  -0.0000  -0.0000  -0.0000  -0.0000

          k =-1.7470-0.4293-0.2031 (  2350 PWs)   bands (ev):

   -49.8104 -26.1446 -25.7801 -25.7400 -11.7254  -9.2407  -8.9620   1.0134
     1.2532   1.7362   1.9996   2.5357   2.8807   3.3844   3.4254   4.2221
     6.0821   8.3837   8.4136   8.7946  10.8810

     occupation numbers 
     1.0000   1.0000   1.0000   1.0000   1.0000   1.0000   1.0000   1.0000
     1.0000   1.0000   1.0000   1.0000   1.0000   1.0000   1.0000   1.0000
     1.0000  -0.0000  -0.0000  -0.0000  -0.0000

          k =-1.4974-0.2147-0.2031 (  2348 PWs)   bands (ev):

   -49.8064 -26.0728 -25.8186 -25.7689 -12.1446  -9.1505  -8.8972   1.1983
     1.6801   1.9722   2.3824   2.5422   3.0358   3.2515   3.7868   4.1077
     6.9078   7.2584   7.4655   8.8711  10.4099

     occupation numbers 
     1.0000   1.0000   1.0000   1.0000   1.0000   1.0000   1.0000   1.0000
     1.0000   1.0000   1.0000   1.0000   1.0000   1.0000   1.0000   1.0000
     0.1153  -0.0005  -0.0000  -0.0000  -0.0000

          k =-1.2479 0.0000-0.2031 (  2349 PWs)   bands (ev):

   -49.8017 -26.0393 -25.8950 -25.7562 -12.2811  -9.0430  -8.8061   0.9337
     1.1538   2.0162   2.2769   3.1287   3.5586   3.5690   3.7931   3.8491
     6.7457   6.7764   7.8926   9.3540   9.8612

     occupation numbers 
     1.0000   1.0000   1.0000   1.0000   1.0000   1.0000   1.0000   1.0000
     1.0000   1.0000   1.0000   1.0000   1.0000   1.0000   1.0000   1.0000
     0.8505   0.7251  -0.0000  -0.0000  -0.0000

          k = 0.0000 0.8586-0.1354 (  2347 PWs)   bands (ev):

   -49.8108 -26.2378 -25.7822 -25.7051 -10.9885  -9.2641  -8.9426  -0.6305
     0.7416   1.1841   2.3385   2.4361   2.6329   3.1859   3.8946   4.0998
     5.6692   8.8666   9.5894   9.7024  10.9313

     occupation numbers 
     1.0000   1.0000   1.0000   1.0000   1.0000   1.0000   1.0000   1.0000
     1.0000   1.0000   1.0000   1.0000   1.0000   1.0000   1.0000   1.0000
     1.0000  -0.0000  -0.0000  -0.0000  -0.0000

          k =-1.7470-0.6440-0.1354 (  2346 PWs)   bands (ev):

   -49.8092 -26.2086 -25.7777 -25.7378 -11.2099  -9.1612  -8.9858  -0.1289
     1.0352   1.4575   1.8659   2.2212   2.9290   3.1798   3.3450   4.1514
     6.1193   8.7798   9.2326   9.2599  11.1884

     occupation numbers 
     1.0000   1.0000   1.0000   1.0000   1.0000   1.0000   1.0000   1.0000
     1.0000   1.0000   1.0000   1.0000   1.0000   1.0000   1.0000   1.0000
     1.0000  -0.0000  -0.0000  -0.0000  -0.0000

          k =-1.4974-0.4293-0.1354 (  2344 PWs)   bands (ev):

   -49.8052 -26.1378 -25.8162 -25.7665 -11.6865  -9.0796  -8.9095   1.0859
     1.2753   1.6264   1.7957   1.9901   2.6111   3.1238   3.6039   4.0721
     6.9635   8.1480   8.3003   8.8751  10.9862

     occupation numbers 
     1.0000   1.0000   1.0000   1.0000   1.0000   1.0000   1.0000   1.0000
     1.0000   1.0000   1.0000   1.0000   1.0000   1.0000   1.0000   1.0000
    -0.0055  -0.0000  -0.0000  -0.0000  -0.0000

          k =-1.2479-0.2147-0.1354 (  2341 PWs)   bands (ev):

   -49.8012 -26.0665 -25.8940 -25.7552 -12.1041  -9.0374  -8.7855   0.9419
     1.1188   1.7951   2.2972   2.6385   3.0128   3.3690   3.8085   3.9762
     7.0736   7.2226   7.9295   9.2982  10.1949

     occupation numbers 
     1.0000   1.0000   1.0000   1.0000   1.0000   1.0000   1.0000   1.0000
     1.0000   1.0000   1.0000   1.0000   1.0000   1.0000   1.0000   1.0000
    -0.0257  -0.0014  -0.0000  -0.0000  -0.0000

          k =-0.9983 0.0000-0.1354 (  2344 PWs)   bands (ev):

   -49.7996 -26.0368 -25.9260 -25.7505 -12.2641  -8.9781  -8.7783   0.6810
     1.2607   1.9114   2.0721   3.3081   3.4116   3.5168   3.7554   3.9223
     6.6161   6.7430   8.4267   9.6188   9.9650

     occupation numbers 
     1.0000   1.0000   1.0000   1.0000   1.0000   1.0000   1.0000   1.0000
     1.0000   1.0000   1.0000   1.0000   1.0000   1.0000   1.0000   1.0000
     1.0353   0.8602  -0.0000  -0.0000  -0.0000

          k = 0.0000 0.6440-0.0677 (  2329 PWs)   bands (ev):

   -49.8113 -26.2115 -25.7832 -25.7059 -11.2258  -9.3402  -8.8788  -0.1374
     0.8350   1.0152   2.5642   2.5867   2.8046   3.2244   3.9605   4.0297
     5.6418   8.8006   9.2496   9.3649  10.6781

     occupation numbers 
     1.0000   1.0000   1.0000   1.0000   1.0000   1.0000   1.0000   1.0000
     1.0000   1.0000   1.0000   1.0000   1.0000   1.0000   1.0000   1.0000
     1.0000  -0.0000  -0.0000  -0.0000  -0.0000

          k = 0.2496 0.8586-0.0677 (  2341 PWs)   bands (ev):

   -49.8087 -26.2347 -25.7767 -25.7369 -10.9745  -9.1857  -8.9352  -0.6200
     0.9119   1.2238   1.9478   2.1469   2.9904   3.1536   3.3585   4.0392
     6.1120   8.7963   9.5888   9.6013  11.2172

     occupation numbers 
     1.0000   1.0000   1.0000   1.0000   1.0000   1.0000   1.0000   1.0000
     1.0000   1.0000   1.0000   1.0000   1.0000   1.0000   1.0000   1.0000
     1.0000  -0.0000  -0.0000  -0.0000  -0.0000

          k =-1.4974-0.6440-0.0677 (  2341 PWs)   bands (ev):

   -49.8040 -26.2015 -25.8138 -25.7642 -11.1738  -8.9945  -8.9367  -0.1000
     1.2283   1.2958   1.7556   1.7829   2.3724   3.0341   3.5162   3.8714
     6.9768   8.8718   9.0573   9.1792  11.3366

     occupation numbers 
     1.0000   1.0000   1.0000   1.0000   1.0000   1.0000   1.0000   1.0000
     1.0000   1.0000   1.0000   1.0000   1.0000   1.0000   1.0000   1.0000
    -0.0191  -0.0000  -0.0000  -0.0000  -0.0000

          k =-1.2479-0.4293-0.0677 (  2347 PWs)   bands (ev):

   -49.8000 -26.1311 -25.8914 -25.7529 -11.6476  -8.9992  -8.7644   0.9820
     1.1526   1.1966   1.3852   2.1672   2.7668   2.9165   3.7152   3.8468
     7.9340   7.9672   8.1846   9.3054  10.7762

     occupation numbers 
     1.0000   1.0000   1.0000   1.0000   1.0000   1.0000   1.0000   1.0000
     1.0000   1.0000   1.0000   1.0000   1.0000   1.0000   1.0000   1.0000
    -0.0000  -0.0000  -0.0000  -0.0000  -0.0000

          k =-0.9983-0.2147-0.0677 (  2341 PWs)   bands (ev):

   -49.7991 -26.0639 -25.9249 -25.7495 -12.0874  -8.9664  -8.7655   0.7230
     1.2649   1.7172   2.0614   2.6860   2.8963   3.3649   3.8225   3.9307
     7.0331   7.1230   8.4416   9.7540  10.2545

     occupation numbers 
     1.0000   1.0000   1.0000   1.0000   1.0000   1.0000   1.0000   1.0000
     1.0000   1.0000   1.0000   1.0000   1.0000   1.0000   1.0000   1.0000
    -0.0348  -0.0127  -0.0000  -0.0000  -0.0000

          k =-0.7487 0.0000-0.0677 (  2340 PWs)   bands (ev):

   -49.8017 -26.0393 -25.8950 -25.7561 -12.2814  -8.9634  -8.8935   1.0804
     1.5406   1.8265   2.0400   3.2073   3.3574   3.6107   3.6726   3.6874
     6.8020   6.8281   7.8153   9.7229  10.0652

     occupation numbers 
     1.0000   1.0000   1.0000   1.0000   1.0000   1.0000   1.0000   1.0000
     1.0000   1.0000   1.0000   1.0000   1.0000   1.0000   1.0000   1.0000
     0.6012   0.4668  -0.0000  -0.0000  -0.0000

          k = 0.0000 0.4293 0.0000 (  2351 PWs)   bands (ev):

   -49.8125 -26.1473 -25.7857 -25.7081 -11.7429  -9.4267  -8.8399   0.7363
     1.1073   1.3868   2.5271   2.9076   3.3702   3.3995   3.8851   4.0439
     5.5916   8.4391   8.5395   8.7296  10.2371

     occupation numbers 
     1.0000   1.0000   1.0000   1.0000   1.0000   1.0000   1.0000   1.0000
     1.0000   1.0000   1.0000   1.0000   1.0000   1.0000   1.0000   1.0000
     1.0000  -0.0000  -0.0000  -0.0000  -0.0000

          k = 0.2496 0.6440 0.0000 (  2346 PWs)   bands (ev):

   -49.8092 -26.2086 -25.7777 -25.7378 -11.2109  -9.2628  -8.8733  -0.1260
     1.0543   1.0682   2.0976   2.2317   3.1516   3.2052   3.5051   3.9386
     6.0687   8.7773   9.2465   9.2496  11.0304

     occupation numbers 
     1.0000   1.0000   1.0000   1.0000   1.0000   1.0000   1.0000   1.0000
     1.0000   1.0000   1.0000   1.0000   1.0000   1.0000   1.0000   1.0000
     1.0000  -0.0000  -0.0000  -0.0000  -0.0000

          k = 0.4991 0.8586 0.0000 (  2340 PWs)   bands (ev):

   -49.8035 -26.2274 -25.8129 -25.7632 -10.9401  -8.9891  -8.9183  -0.5944
     1.1688   1.2309   1.7503   1.7834   2.1676   2.9754   3.5911   3.7350
     6.9467   8.9857   9.4073   9.5302  11.4833

     occupation numbers 
     1.0000   1.0000   1.0000   1.0000   1.0000   1.0000   1.0000   1.0000
     1.0000   1.0000   1.0000   1.0000   1.0000   1.0000   1.0000   1.0000
     0.0194  -0.0000  -0.0000  -0.0000  -0.0000

          k =-1.2479-0.6440 0.0000 (  2334 PWs)   bands (ev):

   -49.7988 -26.1943 -25.8888 -25.7506 -11.1373  -8.9463  -8.7592  -0.0695
     0.9079   1.1774   1.2613   1.9505   2.5491   2.6131   3.5082   3.7742
     7.9500   8.8576   9.0716   9.3812  11.1710

     occupation numbers 
     1.0000   1.0000   1.0000   1.0000   1.0000   1.0000   1.0000   1.0000
     1.0000   1.0000   1.0000   1.0000   1.0000   1.0000   1.0000   1.0000
    -0.0000  -0.0000  -0.0000  -0.0000  -0.0000

          k =-0.9983-0.4293 0.0000 (  2328 PWs)   bands (ev):

   -49.7979 -26.1283 -25.9222 -25.7472 -11.6315  -8.9380  -8.7342   0.7816
     1.2186   1.2455   1.3668   2.0288   2.6717   2.7318   3.5799   4.0374
     7.8486   8.1244   8.4656   9.7672  10.9154

     occupation numbers 
     1.0000   1.0000   1.0000   1.0000   1.0000   1.0000   1.0000   1.0000
     1.0000   1.0000   1.0000   1.0000   1.0000   1.0000   1.0000   1.0000
    -0.0000  -0.0000  -0.0000  -0.0000  -0.0000

          k =-0.7487-0.2147 0.0000 (  2333 PWs)   bands (ev):

   -49.8012 -26.0665 -25.8939 -25.7551 -12.1045  -8.9318  -8.9007   1.1201
     1.6357   1.6863   2.0136   2.5838   2.7222   3.0993   3.8499   4.0128
     7.1012   7.2358   7.8466   9.7324  10.5206

     occupation numbers 
     1.0000   1.0000   1.0000   1.0000   1.0000   1.0000   1.0000   1.0000
     1.0000   1.0000   1.0000   1.0000   1.0000   1.0000   1.0000   1.0000
    -0.0180  -0.0010  -0.0000  -0.0000  -0.0000

          k =-0.4991 0.0000 0.0000 (  2363 PWs)   bands (ev):

   -49.8069 -26.0454 -25.8196 -25.7699 -12.3229  -9.2119  -8.8589   1.1990
     1.8922   2.1523   2.4082   3.0988   3.2607   3.4315   3.7571   3.9246
     6.7687   6.9670   7.0894   9.2020  10.1488

     occupation numbers 
     1.0000   1.0000   1.0000   1.0000   1.0000   1.0000   1.0000   1.0000
     1.0000   1.0000   1.0000   1.0000   1.0000   1.0000   1.0000   1.0000
     0.7594  -0.0096  -0.0213  -0.0000  -0.0000

          k = 0.9983 0.8586 0.2708 (  2340 PWs)   bands (ev):

   -49.7962 -26.2171 -25.9186 -25.7440 -10.8903  -8.8972  -8.6892  -0.5580
     0.6372   0.8946   1.8124   1.8938   1.9043   2.5967   3.1845   3.9351
     8.4724   9.1925   9.4024   9.7188  11.4160

     occupation numbers 
     1.0000   1.0000   1.0000   1.0000   1.0000   1.0000   1.0000   1.0000
     1.0000   1.0000   1.0000   1.0000   1.0000   1.0000   1.0000   1.0000
    -0.0000  -0.0000  -0.0000  -0.0000  -0.0000

          k = 0.0000 0.0000 0.2708 (  2336 PWs)   bands (ev):

   -49.8142 -26.0539 -25.7891 -25.7111 -12.3805  -9.4281  -8.9369   0.9188
     2.5555   2.5819   2.8116   3.1759   3.4067   3.5787   4.0336   4.1667
     5.5562   7.2189   7.4614   8.8402   9.6942

     occupation numbers 
     1.0000   1.0000   1.0000   1.0000   1.0000   1.0000   1.0000   1.0000
     1.0000   1.0000   1.0000   1.0000   1.0000   1.0000   1.0000   1.0000
     1.0000  -0.0016  -0.0000  -0.0000  -0.0000

          k = 0.0000-0.2147 0.3385 (  2350 PWs)   bands (ev):

   -49.8137 -26.0816 -25.7881 -25.7102 -12.2019  -9.3598  -8.9884   1.0738
     2.1592   2.4279   2.6039   2.7765   3.2536   3.4551   3.9914   4.0871
     5.5757   7.6429   7.7348   8.9054  10.1580

     occupation numbers 
     1.0000   1.0000   1.0000   1.0000   1.0000   1.0000   1.0000   1.0000
     1.0000   1.0000   1.0000   1.0000   1.0000   1.0000   1.0000   1.0000
     1.0000  -0.0000  -0.0000  -0.0000  -0.0000

          k = 0.2496 0.0000 0.3385 (  2348 PWs)   bands (ev):

   -49.8121 -26.0514 -25.7835 -25.7431 -12.3631  -9.3189  -8.9677   1.1489
     2.1133   2.5794   2.8441   2.9623   3.3162   3.6535   3.9112   3.9279
     6.0457   7.0913   7.4007   8.7304   9.9530

     occupation numbers 
     1.0000   1.0000   1.0000   1.0000   1.0000   1.0000   1.0000   1.0000
     1.0000   1.0000   1.0000   1.0000   1.0000   1.0000   1.0000   1.0000
     1.0000  -0.0207  -0.0000  -0.0000  -0.0000

          k =-1.9966-0.4293-0.1354 (  2349 PWs)   bands (ev):

   -49.8125 -26.1474 -25.7857 -25.7081 -11.7412  -9.2593  -9.0346   0.9835
     1.2760   1.6916   2.3301   2.6485   2.8951   3.1227   3.8404   4.3114
     5.6205   8.4274   8.5371   8.9410  10.7519

     occupation numbers 
     1.0000   1.0000   1.0000   1.0000   1.0000   1.0000   1.0000   1.0000
     1.0000   1.0000   1.0000   1.0000   1.0000   1.0000   1.0000   1.0000
     1.0000  -0.0000  -0.0000  -0.0000  -0.0000

          k =-1.7470-0.2147-0.1354 (  2347 PWs)   bands (ev):

   -49.8116 -26.0790 -25.7825 -25.7422 -12.1848  -9.2539  -9.0124   1.2899
     1.9257   2.3521   2.4523   2.7770   3.0863   3.3931   3.6990   4.1400
     6.0759   7.5095   7.6730   8.7688  10.3701

     occupation numbers 
     1.0000   1.0000   1.0000   1.0000   1.0000   1.0000   1.0000   1.0000
     1.0000   1.0000   1.0000   1.0000   1.0000   1.0000   1.0000   1.0000
     1.0000  -0.0000  -0.0000  -0.0000  -0.0000

          k =-1.4974 0.0000-0.1354 (  2345 PWs)   bands (ev):

   -49.8069 -26.0453 -25.8196 -25.7699 -12.3219  -9.1621  -8.9102   1.1796
     1.5900   2.0943   2.6150   2.9432   3.5764   3.6337   3.7957   3.8951
     6.8498   6.9424   7.1207   8.7676   9.9507

     occupation numbers 
     1.0000   1.0000   1.0000   1.0000   1.0000   1.0000   1.0000   1.0000
     1.0000   1.0000   1.0000   1.0000   1.0000   1.0000   1.0000   1.0000
     0.3567   0.0273  -0.0133  -0.0000  -0.0000

          k = 0.0000 1.0733-0.0677 (  2341 PWs)   bands (ev):

   -49.8113 -26.2116 -25.7833 -25.7059 -11.2246  -9.2088  -9.0271  -0.1411
     1.0102   1.2583   2.3755   2.5616   2.6605   2.9004   3.8341   4.2956
     5.6577   8.9246   9.2258   9.3632  10.9608

     occupation numbers 
     1.0000   1.0000   1.0000   1.0000   1.0000   1.0000   1.0000   1.0000
     1.0000   1.0000   1.0000   1.0000   1.0000   1.0000   1.0000   1.0000
     1.0000  -0.0000  -0.0000  -0.0000  -0.0000

          k =-1.7470-0.4293-0.0677 (  2349 PWs)   bands (ev):

   -49.8104 -26.1446 -25.7801 -25.7400 -11.7250  -9.1550  -9.0536   1.0328
     1.4413   1.6999   1.9104   2.4800   2.9706   3.2276   3.3351   4.3037
     6.1121   8.3623   8.4147   8.8337  10.9530

     occupation numbers 
     1.0000   1.0000   1.0000   1.0000   1.0000   1.0000   1.0000   1.0000
     1.0000   1.0000   1.0000   1.0000   1.0000   1.0000   1.0000   1.0000
     1.0000  -0.0000  -0.0000  -0.0000  -0.0000

          k =-1.4974-0.2147-0.0677 (  2347 PWs)   bands (ev):

   -49.8064 -26.0728 -25.8186 -25.7689 -12.1443  -9.1313  -8.9168   1.2180
     1.5308   1.9779   2.4451   2.5444   3.1179   3.3113   3.7214   4.1302
     6.9759   7.2471   7.4624   8.7508  10.3294

     occupation numbers 
     1.0000   1.0000   1.0000   1.0000   1.0000   1.0000   1.0000   1.0000
     1.0000   1.0000   1.0000   1.0000   1.0000   1.0000   1.0000   1.0000
    -0.0183  -0.0007  -0.0000  -0.0000  -0.0000

          k =-1.2479 0.0000-0.0677 (  2349 PWs)   bands (ev):

   -49.8017 -26.0393 -25.8951 -25.7562 -12.2810  -9.0620  -8.7838   0.8993
     1.0393   2.0175   2.3860   3.1026   3.5651   3.6472   3.8282   3.9033
     6.7127   6.7637   7.9363   9.2199   9.7490

     occupation numbers 
     1.0000   1.0000   1.0000   1.0000   1.0000   1.0000   1.0000   1.0000
     1.0000   1.0000   1.0000   1.0000   1.0000   1.0000   1.0000   1.0000
     0.9481   0.7810  -0.0000  -0.0000  -0.0000

          k = 0.0000 0.8586 0.0000 (  2341 PWs)   bands (ev):

   -49.8108 -26.2378 -25.7823 -25.7051 -10.9885  -9.2640  -8.9427  -0.6305
     0.8433   1.0118   2.4362   2.6328   2.7304   2.7883   3.8946   4.1819
     5.6646   8.8665   9.5993   9.7023  10.8919

     occupation numbers 
     1.0000   1.0000   1.0000   1.0000   1.0000   1.0000   1.0000   1.0000
     1.0000   1.0000   1.0000   1.0000   1.0000   1.0000   1.0000   1.0000
     1.0000  -0.0000  -0.0000  -0.0000  -0.0000

          k = 0.2496 1.0733 0.0000 (  2355 PWs)   bands (ev):

   -49.8092 -26.2086 -25.7777 -25.7378 -11.2098  -9.1245  -9.0243  -0.1294
     1.1480   1.3091   2.0039   2.1455   3.0169   3.1091   3.2365   4.2055
     6.1259   8.7733   9.2488   9.2572  11.2083

     occupation numbers 
     1.0000   1.0000   1.0000   1.0000   1.0000   1.0000   1.0000   1.0000
     1.0000   1.0000   1.0000   1.0000   1.0000   1.0000   1.0000   1.0000
     1.0000  -0.0000  -0.0000  -0.0000  -0.0000

          k =-1.4974-0.4293 0.0000 (  2346 PWs)   bands (ev):

   -49.8052 -26.1378 -25.8162 -25.7665 -11.6863  -9.0672  -8.9222   1.0841
     1.2654   1.5935   1.7581   2.0228   2.7066   3.1193   3.5673   4.0759
     6.9915   8.1636   8.2896   8.8213  10.9447

     occupation numbers 
     1.0000   1.0000   1.0000   1.0000   1.0000   1.0000   1.0000   1.0000
     1.0000   1.0000   1.0000   1.0000   1.0000   1.0000   1.0000   1.0000
    -0.0288  -0.0000  -0.0000  -0.0000  -0.0000

          k =-1.2479-0.2147 0.0000 (  2344 PWs)   bands (ev):

   -49.8012 -26.0665 -25.8940 -25.7552 -12.1040  -9.0469  -8.7745   0.9296
     1.0547   1.7843   2.3480   2.6372   3.0599   3.4151   3.8278   3.9424
     7.0675   7.2211   7.9528   9.2256  10.1309

     occupation numbers 
     1.0000   1.0000   1.0000   1.0000   1.0000   1.0000   1.0000   1.0000
     1.0000   1.0000   1.0000   1.0000   1.0000   1.0000   1.0000   1.0000
    -0.0274  -0.0015  -0.0000  -0.0000  -0.0000

          k =-0.9983 0.0000 0.0000 (  2338 PWs)   bands (ev):

   -49.7996 -26.0368 -25.9260 -25.7504 -12.2641  -8.9781  -8.7783   0.7013
     1.2097   1.9231   2.1023   3.3078   3.4121   3.5362   3.7213   3.9220
     6.6234   6.7358   8.4299   9.7725   9.8034

     occupation numbers 
     1.0000   1.0000   1.0000   1.0000   1.0000   1.0000   1.0000   1.0000
     1.0000   1.0000   1.0000   1.0000   1.0000   1.0000   1.0000   1.0000
     1.0354   0.8844  -0.0000  -0.0000  -0.0000

          k = 0.0000 0.0000 0.4061 (  2344 PWs)   bands (ev):

   -49.8142 -26.0540 -25.7891 -25.7111 -12.3797  -9.3289  -9.0510   1.2373
     2.3137   2.6340   2.7898   3.3080   3.3490   3.4023   3.8817   4.0910
     5.5654   7.2193   7.5308   8.9625   9.8775

     occupation numbers 
     1.0000   1.0000   1.0000   1.0000   1.0000   1.0000   1.0000   1.0000
     1.0000   1.0000   1.0000   1.0000   1.0000   1.0000   1.0000   1.0000
     1.0000  -0.0015  -0.0000  -0.0000  -0.0000

          k =-1.9966-0.2147-0.0677 (  2348 PWs)   bands (ev):

   -49.8137 -26.0816 -25.7881 -25.7102 -12.2013  -9.2520  -9.1069   1.3510
     2.1546   2.4085   2.4890   2.6648   3.2236   3.3880   3.9227   4.0892
     5.5842   7.6427   7.7697   8.9921  10.3178

     occupation numbers 
     1.0000   1.0000   1.0000   1.0000   1.0000   1.0000   1.0000   1.0000
     1.0000   1.0000   1.0000   1.0000   1.0000   1.0000   1.0000   1.0000
     1.0000  -0.0000  -0.0000  -0.0000  -0.0000

          k =-1.7470 0.0000-0.0677 (  2339 PWs)   bands (ev):

   -49.8121 -26.0514 -25.7835 -25.7431 -12.3626  -9.2369  -9.0575   1.4444
     1.8100   2.6764   2.8229   2.8644   3.4429   3.6534   3.8037   3.8436
     6.0814   7.0828   7.4349   8.7667   9.9795

     occupation numbers 
     1.0000   1.0000   1.0000   1.0000   1.0000   1.0000   1.0000   1.0000
     1.0000   1.0000   1.0000   1.0000   1.0000   1.0000   1.0000   1.0000
     1.0000  -0.0231  -0.0000  -0.0000  -0.0000

          k = 0.0000 1.2879 0.0000 (  2340 PWs)   bands (ev):

   -49.8125 -26.1473 -25.7857 -25.7081 -11.7409  -9.1599  -9.1386   1.0036
     1.4302   1.6440   2.2660   2.6748   2.8906   2.9777   3.8030   4.3655
     5.6249   8.4346   8.5371   8.9768  10.8297

     occupation numbers 
     1.0000   1.0000   1.0000   1.0000   1.0000   1.0000   1.0000   1.0000
     1.0000   1.0000   1.0000   1.0000   1.0000   1.0000   1.0000   1.0000
     1.0000  -0.0000  -0.0000  -0.0000  -0.0000

          k =-1.7470-0.2147 0.0000 (  2345 PWs)   bands (ev):

   -49.8116 -26.0790 -25.7825 -25.7422 -12.1845  -9.1907  -9.0796   1.5075
     1.7148   2.4025   2.4232   2.7839   3.0773   3.3573   3.6598   4.1456
     6.0957   7.5077   7.6796   8.7902  10.3934

     occupation numbers 
     1.0000   1.0000   1.0000   1.0000   1.0000   1.0000   1.0000   1.0000
     1.0000   1.0000   1.0000   1.0000   1.0000   1.0000   1.0000   1.0000
     1.0000  -0.0000  -0.0000  -0.0000  -0.0000

          k =-1.4974 0.0000 0.0000 (  2344 PWs)   bands (ev):

   -49.8069 -26.0453 -25.8196 -25.7699 -12.3217  -9.1513  -8.9212   1.2013
     1.5005   2.1203   2.6315   2.9283   3.6765   3.6850   3.7073   3.9049
     6.8337   6.9806   7.1221   8.6999   9.9069

     occupation numbers 
     1.0000   1.0000   1.0000   1.0000   1.0000   1.0000   1.0000   1.0000
     1.0000   1.0000   1.0000   1.0000   1.0000   1.0000   1.0000   1.0000
     0.4382  -0.0221  -0.0129  -0.0000  -0.0000

          k =-1.9966-1.7173-0.5415 (  2366 PWs)   bands (ev):

   -49.8142 -26.0540 -25.7892 -25.7111 -12.3794  -9.2424  -9.1438   1.4596
     2.0959   2.6728   2.7826   3.3174   3.3505   3.3834   3.7968   4.0618
     5.5660   7.2194   7.5593   9.0131   9.9445

     occupation numbers 
     1.0000   1.0000   1.0000   1.0000   1.0000   1.0000   1.0000   1.0000
     1.0000   1.0000   1.0000   1.0000   1.0000   1.0000   1.0000   1.0000
     1.0000  -0.0015  -0.0000  -0.0000  -0.0000

     the Fermi energy is     6.8217 ev

!    total energy              =    -534.95583289 Ry

     total all-electron energy =     -9636.846075 Ry
     estimated scf accuracy    <          5.6E-11 Ry
     smearing contrib. (-TS)   =      -0.00022684 Ry
     internal energy E=F+TS    =    -534.95560605 Ry

     The total energy is F=E-TS. E is the sum of the following terms:
     one-electron contribution =     -93.93311125 Ry
     hartree contribution      =      61.21997085 Ry
     xc contribution           =     -39.53572213 Ry
     ewald contribution        =    -135.48921389 Ry
     one-center paw contrib.   =    -327.21752963 Ry
      -> PAW hartree energy AE =      28.83379514 Ry
      -> PAW hartree energy PS =     -28.80369050 Ry
      -> PAW xc energy AE      =     -17.00375979 Ry
      -> PAW xc energy PS      =       7.37895185 Ry
      -> total E_H with PAW    =      61.25007549 Ry
      -> total E_XC with PAW   =     -49.16053008 Ry

     convergence has been achieved in  12 iterations

     Forces acting on atoms (cartesian axes, Ry/au):

     atom    1 type  1   force =    -0.00000000   -0.00000000    0.00000000
     atom    2 type  2   force =     0.00000000    0.00000000    0.03580547
     atom    3 type  2   force =    -0.00000000   -0.00000000   -0.03580547
     atom    4 type  3   force =     0.00000000    0.00000000    0.00000000
     The non-local contrib.  to forces
     atom    1 type  1   force =     0.00000000    0.00000000    0.00000000
     atom    2 type  2   force =     0.00000000    0.00000000    0.14440948
     atom    3 type  2   force =     0.00000000    0.00000000   -0.14440948
     atom    4 type  3   force =     0.00000000    0.00000000    0.00000000
     The ionic contribution  to forces
     atom    1 type  1   force =    -0.00000000   -0.00000000    0.00000000
     atom    2 type  2   force =     0.00000001    0.00000000  -10.07462875
     atom    3 type  2   force =    -0.00000001   -0.00000000   10.07462875
     atom    4 type  3   force =    -0.00000000   -0.00000000    0.00000000
     The local contribution  to forces
     atom    1 type  1   force =     0.00000000    0.00000000    0.00000000
     atom    2 type  2   force =     0.00000002   -0.00000003    9.96578133
     atom    3 type  2   force =    -0.00000002    0.00000003   -9.96578133
     atom    4 type  3   force =     0.00000000    0.00000000    0.00000000
     The core correction contribution to forces
     atom    1 type  1   force =     0.00000000    0.00000000   -0.00000000
     atom    2 type  2   force =    -0.00000000    0.00000000    0.00023345
     atom    3 type  2   force =     0.00000000   -0.00000000   -0.00023345
     atom    4 type  3   force =     0.00000000    0.00000000    0.00000000
     The Hubbard contrib.    to forces
     atom    1 type  1   force =     0.00000000    0.00000000    0.00000000
     atom    2 type  2   force =     0.00000000    0.00000000    0.00000000
     atom    3 type  2   force =     0.00000000    0.00000000    0.00000000
     atom    4 type  3   force =     0.00000000    0.00000000    0.00000000
     The SCF correction term to forces
     atom    1 type  1   force =    -0.00000000    0.00000000    0.00000000
     atom    2 type  2   force =    -0.00000000    0.00000000    0.00000997
     atom    3 type  2   force =     0.00000000   -0.00000000   -0.00000997
     atom    4 type  3   force =     0.00000000   -0.00000000    0.00000000

     Total force =     0.050637     Total SCF correction =     0.000014


     Computing stress (Cartesian axis) and pressure

          total   stress  (Ry/bohr**3)                   (kbar)     P=      -40.27
  -0.00027108   0.00000000  -0.00000000          -39.88        0.00       -0.00
  -0.00000000  -0.00027239  -0.00000000           -0.00      -40.07       -0.00
   0.00000000  -0.00000000  -0.00027784            0.00       -0.00      -40.87

     kinetic stress (kbar)  14742.61     -0.00      0.00
                                0.00  14840.75     -0.00
                                0.00      0.00  14756.16

     local   stress (kbar) -18871.84     -0.00      0.00
                               -0.00 -24241.29      0.00
                                0.00      0.00   4129.44

     nonloc. stress (kbar)   8003.87      0.00      0.00
                               -0.00   7927.26      0.00
                                0.00     -0.00   7998.30

     hartree stress (kbar)   8369.67      0.00     -0.00
                                0.00  10123.93      0.00
                               -0.00      0.00  -2057.65

     exc-cor stress (kbar)  -1130.07     -0.00     -0.00
                               -0.00  -1120.20      0.00
                               -0.00      0.00  -1129.57

     corecor stress (kbar)  -2028.99     -0.00      0.00
                                0.00  -2029.08      0.00
                                0.00      0.00  -2028.85

     ewald   stress (kbar)  -9125.13     -0.00     -0.00
                               -0.00  -5541.44     -0.00
                               -0.00     -0.00 -21708.70

     hubbard stress (kbar)      0.00      0.00      0.00
                                0.00      0.00      0.00
                                0.00      0.00      0.00

     DFT-D   stress (kbar)      0.00      0.00      0.00
                                0.00      0.00      0.00
                                0.00      0.00      0.00

     XDM     stress (kbar)      0.00      0.00      0.00
                                0.00      0.00      0.00
                                0.00      0.00      0.00

     dft-nl  stress (kbar)      0.00      0.00      0.00
                                0.00      0.00      0.00
                                0.00      0.00      0.00

     TS-vdW  stress (kbar)      0.00      0.00      0.00
                                0.00      0.00      0.00
                                0.00      0.00      0.00



     Writing output data file /zfs_data/gutierre/Scratch/Cl2NbO/convergence/cutoff/8x8x8/40/tmp/Cl2NbO.save/
 
     init_run     :      1.21s CPU      1.35s WALL (       1 calls)
     electrons    :     27.67s CPU     28.70s WALL (       1 calls)
     forces       :      0.18s CPU      0.18s WALL (       1 calls)
     stress       :      0.38s CPU      0.38s WALL (       1 calls)

     Called by init_run:
     wfcinit      :      0.91s CPU      0.96s WALL (       1 calls)
     wfcinit:atom :      0.00s CPU      0.00s WALL (      95 calls)
     wfcinit:wfcr :      0.90s CPU      0.94s WALL (      95 calls)
     potinit      :      0.11s CPU      0.12s WALL (       1 calls)
     hinit0       :      0.14s CPU      0.22s WALL (       1 calls)

     Called by electrons:
     c_bands      :     22.03s CPU     22.87s WALL (      12 calls)
     sum_band     :      4.55s CPU      4.71s WALL (      12 calls)
     v_of_rho     :      0.15s CPU      0.16s WALL (      13 calls)
     v_h          :      0.01s CPU      0.01s WALL (      13 calls)
     v_xc         :      0.16s CPU      0.17s WALL (      15 calls)
     newd         :      0.18s CPU      0.19s WALL (      13 calls)
     PAW_pot      :      0.77s CPU      0.79s WALL (      13 calls)
     mix_rho      :      0.02s CPU      0.02s WALL (      12 calls)

     Called by c_bands:
     init_us_2    :      0.13s CPU      0.14s WALL (    2565 calls)
     cegterg      :     21.64s CPU     22.45s WALL (    1140 calls)

     Called by sum_band:
     sum_band:wei :      0.04s CPU      0.04s WALL (      12 calls)
     sum_band:loo :      4.32s CPU      4.47s WALL (      12 calls)
     sum_band:buf :      0.01s CPU      0.01s WALL (    1140 calls)
     sum_band:ini :      0.06s CPU      0.06s WALL (    1140 calls)
     sum_band:cal :      0.09s CPU      0.09s WALL (    1140 calls)
     sum_band:bec :      0.02s CPU      0.02s WALL (    1140 calls)
     addusdens    :      0.17s CPU      0.18s WALL (      12 calls)
     addusd:skk   :      0.00s CPU      0.00s WALL (      36 calls)
     addusd:dgemm :      0.04s CPU      0.05s WALL (      36 calls)
     addusd:qvan2 :      0.12s CPU      0.12s WALL (      36 calls)

     Called by *egterg:
     cdiaghg      :      2.01s CPU      2.08s WALL (    3782 calls)
     cegterg:over :      0.22s CPU      0.23s WALL (    2642 calls)
     cegterg:upda :      0.05s CPU      0.05s WALL (    2642 calls)
     cegterg:last :      0.08s CPU      0.08s WALL (    2128 calls)
     h_psi        :     19.73s CPU     20.49s WALL (    3877 calls)
     s_psi        :      0.09s CPU      0.09s WALL (    3877 calls)
     g_psi        :      0.02s CPU      0.02s WALL (    2642 calls)

     Called by h_psi:
     h_psi:calbec :      0.28s CPU      0.29s WALL (    3877 calls)
     vloc_psi     :     19.28s CPU     20.02s WALL (    3877 calls)
     add_vuspsi   :      0.12s CPU      0.12s WALL (    3877 calls)

     General routines
     calbec       :      0.37s CPU      0.39s WALL (    5492 calls)
     fft          :      0.13s CPU      0.20s WALL (     192 calls)
     ffts         :      0.01s CPU      0.01s WALL (      25 calls)
     fftw         :     21.96s CPU     22.80s WALL (  141598 calls)
     interpolate  :      0.01s CPU      0.01s WALL (      13 calls)
 
     Parallel routines
     fft_scatt_xy :      1.91s CPU      1.97s WALL (  141815 calls)
     fft_scatt_yz :     10.39s CPU     10.77s WALL (  141815 calls)

     PAW routines
     PAW_pot      :      0.77s CPU      0.79s WALL (      13 calls)
     PAW_symme    :      0.01s CPU      0.01s WALL (      25 calls)
 
     PWSCF        :     30.14s CPU     31.71s WALL

 
   This run was terminated on:  15:54:38  18May2022            

=------------------------------------------------------------------------------=
   JOB DONE.
=------------------------------------------------------------------------------=
