
     Program PWSCF v.6.7MaX starts on 18May2022 at 15:54: 6 

     This program is part of the open-source Quantum ESPRESSO suite
     for quantum simulation of materials; please cite
         "P. Giannozzi et al., J. Phys.:Condens. Matter 21 395502 (2009);
         "P. Giannozzi et al., J. Phys.:Condens. Matter 29 465901 (2017);
          URL http://www.quantum-espresso.org", 
     in publications or presentations arising from this work. More details at
     http://www.quantum-espresso.org/quote

     Parallel version (MPI), running on    48 processors

     MPI processes distributed on     1 nodes
     R & G space division:  proc/nbgrp/npool/nimage =      48
     Waiting for input...
     Reading input from standard input

     Current dimensions of program PWSCF are:
     Max number of different atomic species (ntypx) = 10
     Max number of k-points (npk) =  40000
     Max angular momentum in pseudopotentials (lmaxx) =  3
     file O.pbe-nl-kjpaw_psl.1.0.0.UPF: wavefunction(s)  2S 2P renormalized
     file Cl.pbe-nl-kjpaw_psl.1.0.0.UPF: wavefunction(s)  3S renormalized
     file Nb.pbe-spn-kjpaw_psl.1.0.0.UPF: wavefunction(s)  4S 4P 4D renormalized

     Subspace diagonalization in iterative solution of the eigenvalue problem:
     a serial algorithm will be used

     Message from routine setup:
     using ibrav=0 with symmetry is DISCOURAGED, use correct ibrav instead
 
     Parallelization info
     --------------------
     sticks:   dense  smooth     PW     G-vecs:    dense   smooth      PW
     Min          94      37     13                 2156      543     113
     Max          95      38     14                 2157      546     114
     Sum        4529    1805    631               103495    26127    5459
 


     bravais-lattice index     =            0
     lattice parameter (alat)  =      12.6717  a.u.
     unit-cell volume          =     547.9313 (a.u.)^3
     number of atoms/cell      =            4
     number of atomic types    =            3
     number of electrons       =        33.00
     number of Kohn-Sham states=           21
     kinetic-energy cutoff     =      50.0000  Ry
     charge density cutoff     =     500.0000  Ry
     scf convergence threshold =      1.0E-10
     mixing beta               =       0.7000
     number of iterations used =            8  plain     mixing
     Exchange-correlation= SLA  PW   PBX  PBC
                           (   1   4   3   4   0   0   0)

     celldm(1)=  12.671676  celldm(2)=   0.000000  celldm(3)=   0.000000
     celldm(4)=   0.000000  celldm(5)=   0.000000  celldm(6)=   0.000000

     crystal axes: (cart. coord. in units of alat)
               a(1) = (  -0.250426   0.291161   0.923316 )  
               a(2) = (   0.250426  -0.291161   0.923316 )  
               a(3) = (   0.250426   0.291161  -0.923316 )  

     reciprocal axes: (cart. coord. in units 2 pi/alat)
               b(1) = (  0.000000  1.717261  0.541527 )  
               b(2) = (  1.996594  0.000000  0.541527 )  
               b(3) = (  1.996594  1.717261  0.000000 )  


     PseudoPot. # 1 for O  read from file:
     /zfs_data/gutierre/Scratch/Cl2NbO/convergence/cutoff/10x10x10/50/pseudo/O.pbe-nl-kjpaw_psl.1.0.0.UPF
     MD5 check sum: df3ddea38124b4e5de5e1084591730e4
     Pseudo is Projector augmented-wave + core cor, Zval =  6.0
     Generated using 'atomic' code by A. Dal Corso  v.6.7MaX
     Shape of augmentation charge: PSQ
     Using radial grid of 1095 points,  4 beta functions with: 
                l(1) =   0
                l(2) =   0
                l(3) =   1
                l(4) =   1
     Q(r) pseudized with 0 coefficients 


     PseudoPot. # 2 for Cl read from file:
     /zfs_data/gutierre/Scratch/Cl2NbO/convergence/cutoff/10x10x10/50/pseudo/Cl.pbe-nl-kjpaw_psl.1.0.0.UPF
     MD5 check sum: 8cf6bde52c08f6236e0f72a8870677af
     Pseudo is Projector augmented-wave + core cor, Zval =  7.0
     Generated using 'atomic' code by A. Dal Corso  v.6.7MaX
     Shape of augmentation charge: PSQ
     Using radial grid of 1157 points,  4 beta functions with: 
                l(1) =   0
                l(2) =   0
                l(3) =   1
                l(4) =   1
     Q(r) pseudized with 0 coefficients 


     PseudoPot. # 3 for Nb read from file:
     /zfs_data/gutierre/Scratch/Cl2NbO/convergence/cutoff/10x10x10/50/pseudo/Nb.pbe-spn-kjpaw_psl.1.0.0.UPF
     MD5 check sum: 1ec1a3aa7bf3cbf7f7e0d720422bce7a
     Pseudo is Projector augmented-wave + core cor, Zval = 13.0
     Generated using 'atomic' code by A. Dal Corso  v.6.7MaX
     Shape of augmentation charge: PSQ
     Using radial grid of 1227 points,  6 beta functions with: 
                l(1) =   0
                l(2) =   0
                l(3) =   1
                l(4) =   1
                l(5) =   2
                l(6) =   2
     Q(r) pseudized with 0 coefficients 


     atomic species   valence    mass     pseudopotential
        O              6.00    15.99940     O ( 1.00)
        Cl             7.00    35.45150     Cl( 1.00)
        Nb            13.00    92.90637     Nb( 1.00)

      8 Sym. Ops., with inversion, found


                                    s                        frac. trans.

      isym =  1     identity                                     

 cryst.   s( 1) = (     1          0          0      )
                  (     0          1          0      )
                  (     0          0          1      )

 cart.    s( 1) = (  1.0000000  0.0000000  0.0000000 )
                  (  0.0000000  1.0000000  0.0000000 )
                  (  0.0000000  0.0000000  1.0000000 )


      isym =  2     180 deg rotation - cart. axis [0,0,1]        

 cryst.   s( 2) = (     0          1          0      )
                  (     1          0          0      )
                  (    -1         -1         -1      )

 cart.    s( 2) = ( -1.0000000  0.0000000  0.0000000 )
                  (  0.0000000 -1.0000000  0.0000000 )
                  (  0.0000000  0.0000000  1.0000000 )


      isym =  3     180 deg rotation - cart. axis [0,1,0]        

 cryst.   s( 3) = (     0          0          1      )
                  (    -1         -1         -1      )
                  (     1          0          0      )

 cart.    s( 3) = ( -1.0000000  0.0000000  0.0000000 )
                  (  0.0000000  1.0000000  0.0000000 )
                  (  0.0000000  0.0000000 -1.0000000 )


      isym =  4     180 deg rotation - cart. axis [1,0,0]        

 cryst.   s( 4) = (    -1         -1         -1      )
                  (     0          0          1      )
                  (     0          1          0      )

 cart.    s( 4) = (  1.0000000  0.0000000  0.0000000 )
                  (  0.0000000 -1.0000000  0.0000000 )
                  (  0.0000000  0.0000000 -1.0000000 )


      isym =  5     inversion                                    

 cryst.   s( 5) = (    -1          0          0      )
                  (     0         -1          0      )
                  (     0          0         -1      )

 cart.    s( 5) = ( -1.0000000  0.0000000  0.0000000 )
                  (  0.0000000 -1.0000000  0.0000000 )
                  (  0.0000000  0.0000000 -1.0000000 )


      isym =  6     inv. 180 deg rotation - cart. axis [0,0,1]   

 cryst.   s( 6) = (     0         -1          0      )
                  (    -1          0          0      )
                  (     1          1          1      )

 cart.    s( 6) = (  1.0000000  0.0000000  0.0000000 )
                  (  0.0000000  1.0000000  0.0000000 )
                  (  0.0000000  0.0000000 -1.0000000 )


      isym =  7     inv. 180 deg rotation - cart. axis [0,1,0]   

 cryst.   s( 7) = (     0          0         -1      )
                  (     1          1          1      )
                  (    -1          0          0      )

 cart.    s( 7) = (  1.0000000  0.0000000  0.0000000 )
                  (  0.0000000 -1.0000000  0.0000000 )
                  (  0.0000000  0.0000000  1.0000000 )


      isym =  8     inv. 180 deg rotation - cart. axis [1,0,0]   

 cryst.   s( 8) = (     1          1          1      )
                  (     0          0         -1      )
                  (     0         -1          0      )

 cart.    s( 8) = ( -1.0000000  0.0000000  0.0000000 )
                  (  0.0000000  1.0000000  0.0000000 )
                  (  0.0000000  0.0000000  1.0000000 )


   Cartesian axes

     site n.     atom                  positions (alat units)
         1           O   tau(   1) = (   0.0000000   0.2911613   0.0000000  )
         2           Cl  tau(   2) = (  -0.0000000   0.2911613   0.6365338  )
         3           Cl  tau(   3) = (   0.2504264  -0.0000000   0.2867819  )
         4           Nb  tau(   4) = (   0.0000000   0.0000000   0.0000000  )

   Crystallographic axes

     site n.     atom                  positions (cryst. coord.)
         1           O   tau(   1) = (  0.5000000  0.0000000  0.5000000  )
         2           Cl  tau(   2) = (  0.8447000  0.3447000  0.5000000  )
         3           Cl  tau(   3) = (  0.1553000  0.6553000  0.5000000  )
         4           Nb  tau(   4) = (  0.0000000  0.0000000  0.0000000  )

     number of k points=   171  Methfessel-Paxton smearing, width (Ry)=  0.0120
                       cart. coord. in units 2pi/alat
        k(    1) = (   0.0000000   0.0000000   0.0000000), wk =   0.0020000
        k(    2) = (   0.1996594   0.1717261   0.0000000), wk =   0.0080000
        k(    3) = (   0.3993189   0.3434523   0.0000000), wk =   0.0080000
        k(    4) = (   0.5989783   0.5151784   0.0000000), wk =   0.0080000
        k(    5) = (   0.7986377   0.6869045   0.0000000), wk =   0.0080000
        k(    6) = (  -0.9982971  -0.8586307   0.0000000), wk =   0.0040000
        k(    7) = (   0.1996594   0.0000000   0.0541527), wk =   0.0080000
        k(    8) = (   0.3993189   0.1717261   0.0541527), wk =   0.0160000
        k(    9) = (   0.5989783   0.3434523   0.0541527), wk =   0.0160000
        k(   10) = (   0.7986377   0.5151784   0.0541527), wk =   0.0160000
        k(   11) = (   0.9982971   0.6869045   0.0541527), wk =   0.0160000
        k(   12) = (  -0.7986377  -0.8586307   0.0541527), wk =   0.0160000
        k(   13) = (  -0.5989783  -0.6869045   0.0541527), wk =   0.0160000
        k(   14) = (  -0.3993189  -0.5151784   0.0541527), wk =   0.0160000
        k(   15) = (  -0.1996594  -0.3434523   0.0541527), wk =   0.0160000
        k(   16) = (   0.0000000  -0.1717261   0.0541527), wk =   0.0080000
        k(   17) = (   0.3993189   0.0000000   0.1083053), wk =   0.0080000
        k(   18) = (   0.5989783   0.1717261   0.1083053), wk =   0.0160000
        k(   19) = (   0.7986377   0.3434523   0.1083053), wk =   0.0160000
        k(   20) = (   0.9982971   0.5151784   0.1083053), wk =   0.0160000
        k(   21) = (   1.1979566   0.6869045   0.1083053), wk =   0.0160000
        k(   22) = (  -0.5989783  -0.8586307   0.1083053), wk =   0.0160000
        k(   23) = (  -0.3993189  -0.6869045   0.1083053), wk =   0.0160000
        k(   24) = (  -0.1996594  -0.5151784   0.1083053), wk =   0.0160000
        k(   25) = (   0.0000000  -0.3434523   0.1083053), wk =   0.0080000
        k(   26) = (   0.1996594  -0.1717261   0.1083053), wk =   0.0160000
        k(   27) = (   0.5989783   0.0000000   0.1624580), wk =   0.0080000
        k(   28) = (   0.7986377   0.1717261   0.1624580), wk =   0.0160000
        k(   29) = (   0.9982971   0.3434523   0.1624580), wk =   0.0160000
        k(   30) = (   1.1979566   0.5151784   0.1624580), wk =   0.0160000
        k(   31) = (   1.3976160   0.6869045   0.1624580), wk =   0.0160000
        k(   32) = (  -0.3993189  -0.8586307   0.1624580), wk =   0.0160000
        k(   33) = (  -0.1996594  -0.6869045   0.1624580), wk =   0.0160000
        k(   34) = (  -0.0000000  -0.5151784   0.1624580), wk =   0.0080000
        k(   35) = (   0.1996594  -0.3434523   0.1624580), wk =   0.0160000
        k(   36) = (   0.3993189  -0.1717261   0.1624580), wk =   0.0160000
        k(   37) = (   0.7986377   0.0000000   0.2166107), wk =   0.0080000
        k(   38) = (   0.9982971   0.1717261   0.2166107), wk =   0.0160000
        k(   39) = (   1.1979566   0.3434523   0.2166107), wk =   0.0160000
        k(   40) = (   1.3976160   0.5151784   0.2166107), wk =   0.0160000
        k(   41) = (   1.5972754   0.6869045   0.2166107), wk =   0.0160000
        k(   42) = (  -0.1996594  -0.8586307   0.2166107), wk =   0.0160000
        k(   43) = (   0.0000000  -0.6869045   0.2166107), wk =   0.0080000
        k(   44) = (   0.1996594  -0.5151784   0.2166107), wk =   0.0160000
        k(   45) = (   0.3993189  -0.3434523   0.2166107), wk =   0.0160000
        k(   46) = (   0.5989783  -0.1717261   0.2166107), wk =   0.0160000
        k(   47) = (  -0.9982971   0.0000000  -0.2707633), wk =   0.0040000
        k(   48) = (  -0.7986377   0.1717261  -0.2707633), wk =   0.0160000
        k(   49) = (  -0.5989783   0.3434523  -0.2707633), wk =   0.0160000
        k(   50) = (  -0.3993189   0.5151784  -0.2707633), wk =   0.0160000
        k(   51) = (  -0.1996594   0.6869045  -0.2707633), wk =   0.0160000
        k(   52) = (  -1.9965943  -0.8586307  -0.2707633), wk =   0.0040000
        k(   53) = (   0.3993189   0.3434523   0.1083053), wk =   0.0160000
        k(   54) = (   0.5989783   0.5151784   0.1083053), wk =   0.0160000
        k(   55) = (   0.7986377   0.6869045   0.1083053), wk =   0.0160000
        k(   56) = (   0.9982971   0.8586307   0.1083053), wk =   0.0080000
        k(   57) = (   0.0000000   0.0000000   0.1083053), wk =   0.0040000
        k(   58) = (   0.5989783   0.3434523   0.1624580), wk =   0.0160000
        k(   59) = (   0.7986377   0.5151784   0.1624580), wk =   0.0160000
        k(   60) = (   0.9982971   0.6869045   0.1624580), wk =   0.0160000
        k(   61) = (   1.1979566   0.8586307   0.1624580), wk =   0.0160000
        k(   62) = (  -0.5989783  -0.6869045   0.1624580), wk =   0.0160000
        k(   63) = (  -0.3993189  -0.5151784   0.1624580), wk =   0.0160000
        k(   64) = (   0.0000000  -0.1717261   0.1624580), wk =   0.0080000
        k(   65) = (   0.1996594   0.0000000   0.1624580), wk =   0.0080000
        k(   66) = (   0.7986377   0.3434523   0.2166107), wk =   0.0160000
        k(   67) = (   0.9982971   0.5151784   0.2166107), wk =   0.0160000
        k(   68) = (   1.1979566   0.6869045   0.2166107), wk =   0.0160000
        k(   69) = (   1.3976160   0.8586307   0.2166107), wk =   0.0160000
        k(   70) = (  -0.3993189  -0.6869045   0.2166107), wk =   0.0160000
        k(   71) = (  -0.0000000  -0.3434523   0.2166107), wk =   0.0080000
        k(   72) = (   0.1996594  -0.1717261   0.2166107), wk =   0.0160000
        k(   73) = (   0.3993189   0.0000000   0.2166107), wk =   0.0080000
        k(   74) = (   0.9982971   0.3434523   0.2707633), wk =   0.0080000
        k(   75) = (   1.1979566   0.5151784   0.2707633), wk =   0.0160000
        k(   76) = (   1.3976160   0.6869045   0.2707633), wk =   0.0160000
        k(   77) = (   1.5972754   0.8586307   0.2707633), wk =   0.0080000
        k(   78) = (   0.0000000  -0.5151784   0.2707633), wk =   0.0080000
        k(   79) = (   0.1996594  -0.3434523   0.2707633), wk =   0.0160000
        k(   80) = (   0.3993189  -0.1717261   0.2707633), wk =   0.0160000
        k(   81) = (   0.5989783   0.0000000   0.2707633), wk =   0.0080000
        k(   82) = (  -0.5989783   0.5151784  -0.2166107), wk =   0.0160000
        k(   83) = (  -1.9965943  -0.6869045  -0.2166107), wk =   0.0080000
        k(   84) = (  -1.7969349  -0.5151784  -0.2166107), wk =   0.0160000
        k(   85) = (  -1.5972754  -0.3434523  -0.2166107), wk =   0.0160000
        k(   86) = (  -1.3976160  -0.1717261  -0.2166107), wk =   0.0160000
        k(   87) = (  -1.1979566   0.0000000  -0.2166107), wk =   0.0080000
        k(   88) = (   0.0000000   0.8586307  -0.1624580), wk =   0.0080000
        k(   89) = (  -1.7969349  -0.6869045  -0.1624580), wk =   0.0160000
        k(   90) = (  -1.5972754  -0.5151784  -0.1624580), wk =   0.0160000
        k(   91) = (  -1.3976160  -0.3434523  -0.1624580), wk =   0.0160000
        k(   92) = (  -1.1979566  -0.1717261  -0.1624580), wk =   0.0160000
        k(   93) = (  -0.9982971   0.0000000  -0.1624580), wk =   0.0080000
        k(   94) = (  -0.0000000   0.6869045  -0.1083053), wk =   0.0080000
        k(   95) = (   0.1996594   0.8586307  -0.1083053), wk =   0.0160000
        k(   96) = (  -1.5972754  -0.6869045  -0.1083053), wk =   0.0160000
        k(   97) = (  -1.3976160  -0.5151784  -0.1083053), wk =   0.0160000
        k(   98) = (  -1.1979566  -0.3434523  -0.1083053), wk =   0.0160000
        k(   99) = (  -0.9982971  -0.1717261  -0.1083053), wk =   0.0160000
        k(  100) = (  -0.7986377   0.0000000  -0.1083053), wk =   0.0080000
        k(  101) = (   0.0000000   0.5151784  -0.0541527), wk =   0.0080000
        k(  102) = (   0.1996594   0.6869045  -0.0541527), wk =   0.0160000
        k(  103) = (   0.3993189   0.8586307  -0.0541527), wk =   0.0160000
        k(  104) = (  -1.3976160  -0.6869045  -0.0541527), wk =   0.0160000
        k(  105) = (  -1.1979566  -0.5151784  -0.0541527), wk =   0.0160000
        k(  106) = (  -0.9982971  -0.3434523  -0.0541527), wk =   0.0160000
        k(  107) = (  -0.7986377  -0.1717261  -0.0541527), wk =   0.0160000
        k(  108) = (  -0.5989783   0.0000000  -0.0541527), wk =   0.0080000
        k(  109) = (   0.0000000   0.3434523   0.0000000), wk =   0.0040000
        k(  110) = (   0.1996594   0.5151784   0.0000000), wk =   0.0080000
        k(  111) = (   0.3993189   0.6869045   0.0000000), wk =   0.0080000
        k(  112) = (   0.5989783   0.8586307   0.0000000), wk =   0.0080000
        k(  113) = (  -1.1979566  -0.6869045   0.0000000), wk =   0.0080000
        k(  114) = (  -0.9982971  -0.5151784   0.0000000), wk =   0.0080000
        k(  115) = (  -0.7986377  -0.3434523   0.0000000), wk =   0.0080000
        k(  116) = (  -0.5989783  -0.1717261   0.0000000), wk =   0.0080000
        k(  117) = (  -0.3993189   0.0000000   0.0000000), wk =   0.0040000
        k(  118) = (   0.7986377   0.6869045   0.2166107), wk =   0.0160000
        k(  119) = (   0.9982971   0.8586307   0.2166107), wk =   0.0080000
        k(  120) = (   0.0000000   0.0000000   0.2166107), wk =   0.0040000
        k(  121) = (   0.9982971   0.6869045   0.2707633), wk =   0.0080000
        k(  122) = (   1.1979566   0.8586307   0.2707633), wk =   0.0080000
        k(  123) = (  -0.0000000  -0.1717261   0.2707633), wk =   0.0080000
        k(  124) = (   0.1996594   0.0000000   0.2707633), wk =   0.0080000
        k(  125) = (   0.0000000  -0.3434523   0.3249160), wk =   0.0080000
        k(  126) = (   0.1996594  -0.1717261   0.3249160), wk =   0.0160000
        k(  127) = (   0.3993189   0.0000000   0.3249160), wk =   0.0080000
        k(  128) = (  -1.9965943  -0.5151784  -0.1624580), wk =   0.0080000
        k(  129) = (  -1.7969349  -0.3434523  -0.1624580), wk =   0.0160000
        k(  130) = (  -1.5972754  -0.1717261  -0.1624580), wk =   0.0160000
        k(  131) = (  -1.3976160   0.0000000  -0.1624580), wk =   0.0080000
        k(  132) = (   0.0000000   1.0303568  -0.1083053), wk =   0.0080000
        k(  133) = (  -1.7969349  -0.5151784  -0.1083053), wk =   0.0160000
        k(  134) = (  -1.5972754  -0.3434523  -0.1083053), wk =   0.0160000
        k(  135) = (  -1.3976160  -0.1717261  -0.1083053), wk =   0.0160000
        k(  136) = (  -1.1979566   0.0000000  -0.1083053), wk =   0.0080000
        k(  137) = (  -0.0000000   0.8586307  -0.0541527), wk =   0.0080000
        k(  138) = (   0.1996594   1.0303568  -0.0541527), wk =   0.0160000
        k(  139) = (  -1.5972754  -0.5151784  -0.0541527), wk =   0.0160000
        k(  140) = (  -1.3976160  -0.3434523  -0.0541527), wk =   0.0160000
        k(  141) = (  -1.1979566  -0.1717261  -0.0541527), wk =   0.0160000
        k(  142) = (  -0.9982971   0.0000000  -0.0541527), wk =   0.0080000
        k(  143) = (   0.0000000   0.6869045   0.0000000), wk =   0.0040000
        k(  144) = (   0.1996594   0.8586307   0.0000000), wk =   0.0080000
        k(  145) = (   0.3993189   1.0303568   0.0000000), wk =   0.0080000
        k(  146) = (  -1.3976160  -0.5151784   0.0000000), wk =   0.0080000
        k(  147) = (  -1.1979566  -0.3434523   0.0000000), wk =   0.0080000
        k(  148) = (  -0.9982971  -0.1717261   0.0000000), wk =   0.0080000
        k(  149) = (  -0.7986377   0.0000000   0.0000000), wk =   0.0040000
        k(  150) = (  -0.0000000   0.0000000   0.3249160), wk =   0.0040000
        k(  151) = (   0.0000000  -0.1717261   0.3790686), wk =   0.0080000
        k(  152) = (   0.1996594   0.0000000   0.3790686), wk =   0.0080000
        k(  153) = (  -1.9965943  -0.3434523  -0.1083053), wk =   0.0080000
        k(  154) = (  -1.7969349  -0.1717261  -0.1083053), wk =   0.0160000
        k(  155) = (  -1.5972754   0.0000000  -0.1083053), wk =   0.0080000
        k(  156) = (   0.0000000   1.2020829  -0.0541527), wk =   0.0080000
        k(  157) = (  -1.7969349  -0.3434523  -0.0541527), wk =   0.0160000
        k(  158) = (  -1.5972754  -0.1717261  -0.0541527), wk =   0.0160000
        k(  159) = (  -1.3976160   0.0000000  -0.0541527), wk =   0.0080000
        k(  160) = (  -0.0000000   1.0303568  -0.0000000), wk =   0.0040000
        k(  161) = (   0.1996594   1.2020829  -0.0000000), wk =   0.0080000
        k(  162) = (  -1.5972754  -0.3434523  -0.0000000), wk =   0.0080000
        k(  163) = (  -1.3976160  -0.1717261  -0.0000000), wk =   0.0080000
        k(  164) = (  -1.1979566   0.0000000  -0.0000000), wk =   0.0040000
        k(  165) = (   0.0000000   0.0000000   0.4332213), wk =   0.0040000
        k(  166) = (  -1.9965943  -0.1717261  -0.0541527), wk =   0.0080000
        k(  167) = (  -1.7969349   0.0000000  -0.0541527), wk =   0.0080000
        k(  168) = (   0.0000000   1.3738091   0.0000000), wk =   0.0040000
        k(  169) = (  -1.7969349  -0.1717261   0.0000000), wk =   0.0080000
        k(  170) = (  -1.5972754   0.0000000   0.0000000), wk =   0.0040000
        k(  171) = (  -1.9965943  -1.7172613  -0.5415266), wk =   0.0020000

                       cryst. coord.
        k(    1) = (   0.0000000   0.0000000   0.0000000), wk =   0.0020000
        k(    2) = (  -0.0000000   0.0000000   0.1000000), wk =   0.0080000
        k(    3) = (  -0.0000000   0.0000000   0.2000000), wk =   0.0080000
        k(    4) = (   0.0000000   0.0000000   0.3000000), wk =   0.0080000
        k(    5) = (  -0.0000000   0.0000000   0.4000000), wk =   0.0080000
        k(    6) = (   0.0000000   0.0000000  -0.5000000), wk =   0.0040000
        k(    7) = (  -0.0000000   0.1000000   0.0000000), wk =   0.0080000
        k(    8) = (  -0.0000000   0.1000000   0.1000000), wk =   0.0160000
        k(    9) = (  -0.0000000   0.1000000   0.2000000), wk =   0.0160000
        k(   10) = (  -0.0000000   0.1000000   0.3000000), wk =   0.0160000
        k(   11) = (  -0.0000000   0.1000000   0.4000000), wk =   0.0160000
        k(   12) = (   0.0000000   0.1000000  -0.5000000), wk =   0.0160000
        k(   13) = (   0.0000000   0.1000000  -0.4000000), wk =   0.0160000
        k(   14) = (   0.0000000   0.1000000  -0.3000000), wk =   0.0160000
        k(   15) = (   0.0000000   0.1000000  -0.2000000), wk =   0.0160000
        k(   16) = (   0.0000000   0.1000000  -0.1000000), wk =   0.0080000
        k(   17) = (  -0.0000000   0.2000000   0.0000000), wk =   0.0080000
        k(   18) = (  -0.0000000   0.2000000   0.1000000), wk =   0.0160000
        k(   19) = (  -0.0000000   0.2000000   0.2000000), wk =   0.0160000
        k(   20) = (   0.0000000   0.2000000   0.3000000), wk =   0.0160000
        k(   21) = (  -0.0000000   0.2000000   0.4000000), wk =   0.0160000
        k(   22) = (   0.0000000   0.2000000  -0.5000000), wk =   0.0160000
        k(   23) = (   0.0000000   0.2000000  -0.4000000), wk =   0.0160000
        k(   24) = (   0.0000000   0.2000000  -0.3000000), wk =   0.0160000
        k(   25) = (   0.0000000   0.2000000  -0.2000000), wk =   0.0080000
        k(   26) = (   0.0000000   0.2000000  -0.1000000), wk =   0.0160000
        k(   27) = (   0.0000000   0.3000000   0.0000000), wk =   0.0080000
        k(   28) = (  -0.0000000   0.3000000   0.1000000), wk =   0.0160000
        k(   29) = (   0.0000000   0.3000000   0.2000000), wk =   0.0160000
        k(   30) = (   0.0000000   0.3000000   0.3000000), wk =   0.0160000
        k(   31) = (  -0.0000000   0.3000000   0.4000000), wk =   0.0160000
        k(   32) = (   0.0000000   0.3000000  -0.5000000), wk =   0.0160000
        k(   33) = (   0.0000000   0.3000000  -0.4000000), wk =   0.0160000
        k(   34) = (   0.0000000   0.3000000  -0.3000000), wk =   0.0080000
        k(   35) = (   0.0000000   0.3000000  -0.2000000), wk =   0.0160000
        k(   36) = (   0.0000000   0.3000000  -0.1000000), wk =   0.0160000
        k(   37) = (  -0.0000000   0.4000000   0.0000000), wk =   0.0080000
        k(   38) = (  -0.0000000   0.4000000   0.1000000), wk =   0.0160000
        k(   39) = (  -0.0000000   0.4000000   0.2000000), wk =   0.0160000
        k(   40) = (  -0.0000000   0.4000000   0.3000000), wk =   0.0160000
        k(   41) = (  -0.0000000   0.4000000   0.4000000), wk =   0.0160000
        k(   42) = (   0.0000000   0.4000000  -0.5000000), wk =   0.0160000
        k(   43) = (   0.0000000   0.4000000  -0.4000000), wk =   0.0080000
        k(   44) = (   0.0000000   0.4000000  -0.3000000), wk =   0.0160000
        k(   45) = (   0.0000000   0.4000000  -0.2000000), wk =   0.0160000
        k(   46) = (  -0.0000000   0.4000000  -0.1000000), wk =   0.0160000
        k(   47) = (   0.0000000  -0.5000000   0.0000000), wk =   0.0040000
        k(   48) = (   0.0000000  -0.5000000   0.1000000), wk =   0.0160000
        k(   49) = (   0.0000000  -0.5000000   0.2000000), wk =   0.0160000
        k(   50) = (   0.0000000  -0.5000000   0.3000000), wk =   0.0160000
        k(   51) = (   0.0000000  -0.5000000   0.4000000), wk =   0.0160000
        k(   52) = (   0.0000000  -0.5000000  -0.5000000), wk =   0.0040000
        k(   53) = (   0.1000000   0.1000000   0.1000000), wk =   0.0160000
        k(   54) = (   0.1000000   0.1000000   0.2000000), wk =   0.0160000
        k(   55) = (   0.1000000   0.1000000   0.3000000), wk =   0.0160000
        k(   56) = (   0.1000000   0.1000000   0.4000000), wk =   0.0080000
        k(   57) = (   0.1000000   0.1000000  -0.1000000), wk =   0.0040000
        k(   58) = (   0.1000000   0.2000000   0.1000000), wk =   0.0160000
        k(   59) = (   0.1000000   0.2000000   0.2000000), wk =   0.0160000
        k(   60) = (   0.1000000   0.2000000   0.3000000), wk =   0.0160000
        k(   61) = (   0.1000000   0.2000000   0.4000000), wk =   0.0160000
        k(   62) = (   0.1000000   0.2000000  -0.5000000), wk =   0.0160000
        k(   63) = (   0.1000000   0.2000000  -0.4000000), wk =   0.0160000
        k(   64) = (   0.1000000   0.2000000  -0.2000000), wk =   0.0080000
        k(   65) = (   0.1000000   0.2000000  -0.1000000), wk =   0.0080000
        k(   66) = (   0.1000000   0.3000000   0.1000000), wk =   0.0160000
        k(   67) = (   0.1000000   0.3000000   0.2000000), wk =   0.0160000
        k(   68) = (   0.1000000   0.3000000   0.3000000), wk =   0.0160000
        k(   69) = (   0.1000000   0.3000000   0.4000000), wk =   0.0160000
        k(   70) = (   0.1000000   0.3000000  -0.5000000), wk =   0.0160000
        k(   71) = (   0.1000000   0.3000000  -0.3000000), wk =   0.0080000
        k(   72) = (   0.1000000   0.3000000  -0.2000000), wk =   0.0160000
        k(   73) = (   0.1000000   0.3000000  -0.1000000), wk =   0.0080000
        k(   74) = (   0.1000000   0.4000000   0.1000000), wk =   0.0080000
        k(   75) = (   0.1000000   0.4000000   0.2000000), wk =   0.0160000
        k(   76) = (   0.1000000   0.4000000   0.3000000), wk =   0.0160000
        k(   77) = (   0.1000000   0.4000000   0.4000000), wk =   0.0080000
        k(   78) = (   0.1000000   0.4000000  -0.4000000), wk =   0.0080000
        k(   79) = (   0.1000000   0.4000000  -0.3000000), wk =   0.0160000
        k(   80) = (   0.1000000   0.4000000  -0.2000000), wk =   0.0160000
        k(   81) = (   0.1000000   0.4000000  -0.1000000), wk =   0.0080000
        k(   82) = (   0.1000000  -0.5000000   0.2000000), wk =   0.0160000
        k(   83) = (   0.1000000  -0.5000000  -0.5000000), wk =   0.0080000
        k(   84) = (   0.1000000  -0.5000000  -0.4000000), wk =   0.0160000
        k(   85) = (   0.1000000  -0.5000000  -0.3000000), wk =   0.0160000
        k(   86) = (   0.1000000  -0.5000000  -0.2000000), wk =   0.0160000
        k(   87) = (   0.1000000  -0.5000000  -0.1000000), wk =   0.0080000
        k(   88) = (   0.1000000  -0.4000000   0.4000000), wk =   0.0080000
        k(   89) = (   0.1000000  -0.4000000  -0.5000000), wk =   0.0160000
        k(   90) = (   0.1000000  -0.4000000  -0.4000000), wk =   0.0160000
        k(   91) = (   0.1000000  -0.4000000  -0.3000000), wk =   0.0160000
        k(   92) = (   0.1000000  -0.4000000  -0.2000000), wk =   0.0160000
        k(   93) = (   0.1000000  -0.4000000  -0.1000000), wk =   0.0080000
        k(   94) = (   0.1000000  -0.3000000   0.3000000), wk =   0.0080000
        k(   95) = (   0.1000000  -0.3000000   0.4000000), wk =   0.0160000
        k(   96) = (   0.1000000  -0.3000000  -0.5000000), wk =   0.0160000
        k(   97) = (   0.1000000  -0.3000000  -0.4000000), wk =   0.0160000
        k(   98) = (   0.1000000  -0.3000000  -0.3000000), wk =   0.0160000
        k(   99) = (   0.1000000  -0.3000000  -0.2000000), wk =   0.0160000
        k(  100) = (   0.1000000  -0.3000000  -0.1000000), wk =   0.0080000
        k(  101) = (   0.1000000  -0.2000000   0.2000000), wk =   0.0080000
        k(  102) = (   0.1000000  -0.2000000   0.3000000), wk =   0.0160000
        k(  103) = (   0.1000000  -0.2000000   0.4000000), wk =   0.0160000
        k(  104) = (   0.1000000  -0.2000000  -0.5000000), wk =   0.0160000
        k(  105) = (   0.1000000  -0.2000000  -0.4000000), wk =   0.0160000
        k(  106) = (   0.1000000  -0.2000000  -0.3000000), wk =   0.0160000
        k(  107) = (   0.1000000  -0.2000000  -0.2000000), wk =   0.0160000
        k(  108) = (   0.1000000  -0.2000000  -0.1000000), wk =   0.0080000
        k(  109) = (   0.1000000  -0.1000000   0.1000000), wk =   0.0040000
        k(  110) = (   0.1000000  -0.1000000   0.2000000), wk =   0.0080000
        k(  111) = (   0.1000000  -0.1000000   0.3000000), wk =   0.0080000
        k(  112) = (   0.1000000  -0.1000000   0.4000000), wk =   0.0080000
        k(  113) = (   0.1000000  -0.1000000  -0.5000000), wk =   0.0080000
        k(  114) = (   0.1000000  -0.1000000  -0.4000000), wk =   0.0080000
        k(  115) = (   0.1000000  -0.1000000  -0.3000000), wk =   0.0080000
        k(  116) = (   0.1000000  -0.1000000  -0.2000000), wk =   0.0080000
        k(  117) = (   0.1000000  -0.1000000  -0.1000000), wk =   0.0040000
        k(  118) = (   0.2000000   0.2000000   0.2000000), wk =   0.0160000
        k(  119) = (   0.2000000   0.2000000   0.3000000), wk =   0.0080000
        k(  120) = (   0.2000000   0.2000000  -0.2000000), wk =   0.0040000
        k(  121) = (   0.2000000   0.3000000   0.2000000), wk =   0.0080000
        k(  122) = (   0.2000000   0.3000000   0.3000000), wk =   0.0080000
        k(  123) = (   0.2000000   0.3000000  -0.3000000), wk =   0.0080000
        k(  124) = (   0.2000000   0.3000000  -0.2000000), wk =   0.0080000
        k(  125) = (   0.2000000   0.4000000  -0.4000000), wk =   0.0080000
        k(  126) = (   0.2000000   0.4000000  -0.3000000), wk =   0.0160000
        k(  127) = (   0.2000000   0.4000000  -0.2000000), wk =   0.0080000
        k(  128) = (   0.2000000  -0.5000000  -0.5000000), wk =   0.0080000
        k(  129) = (   0.2000000  -0.5000000  -0.4000000), wk =   0.0160000
        k(  130) = (   0.2000000  -0.5000000  -0.3000000), wk =   0.0160000
        k(  131) = (   0.2000000  -0.5000000  -0.2000000), wk =   0.0080000
        k(  132) = (   0.2000000  -0.4000000   0.4000000), wk =   0.0080000
        k(  133) = (   0.2000000  -0.4000000  -0.5000000), wk =   0.0160000
        k(  134) = (   0.2000000  -0.4000000  -0.4000000), wk =   0.0160000
        k(  135) = (   0.2000000  -0.4000000  -0.3000000), wk =   0.0160000
        k(  136) = (   0.2000000  -0.4000000  -0.2000000), wk =   0.0080000
        k(  137) = (   0.2000000  -0.3000000   0.3000000), wk =   0.0080000
        k(  138) = (   0.2000000  -0.3000000   0.4000000), wk =   0.0160000
        k(  139) = (   0.2000000  -0.3000000  -0.5000000), wk =   0.0160000
        k(  140) = (   0.2000000  -0.3000000  -0.4000000), wk =   0.0160000
        k(  141) = (   0.2000000  -0.3000000  -0.3000000), wk =   0.0160000
        k(  142) = (   0.2000000  -0.3000000  -0.2000000), wk =   0.0080000
        k(  143) = (   0.2000000  -0.2000000   0.2000000), wk =   0.0040000
        k(  144) = (   0.2000000  -0.2000000   0.3000000), wk =   0.0080000
        k(  145) = (   0.2000000  -0.2000000   0.4000000), wk =   0.0080000
        k(  146) = (   0.2000000  -0.2000000  -0.5000000), wk =   0.0080000
        k(  147) = (   0.2000000  -0.2000000  -0.4000000), wk =   0.0080000
        k(  148) = (   0.2000000  -0.2000000  -0.3000000), wk =   0.0080000
        k(  149) = (   0.2000000  -0.2000000  -0.2000000), wk =   0.0040000
        k(  150) = (   0.3000000   0.3000000  -0.3000000), wk =   0.0040000
        k(  151) = (   0.3000000   0.4000000  -0.4000000), wk =   0.0080000
        k(  152) = (   0.3000000   0.4000000  -0.3000000), wk =   0.0080000
        k(  153) = (   0.3000000  -0.5000000  -0.5000000), wk =   0.0080000
        k(  154) = (   0.3000000  -0.5000000  -0.4000000), wk =   0.0160000
        k(  155) = (   0.3000000  -0.5000000  -0.3000000), wk =   0.0080000
        k(  156) = (   0.3000000  -0.4000000   0.4000000), wk =   0.0080000
        k(  157) = (   0.3000000  -0.4000000  -0.5000000), wk =   0.0160000
        k(  158) = (   0.3000000  -0.4000000  -0.4000000), wk =   0.0160000
        k(  159) = (   0.3000000  -0.4000000  -0.3000000), wk =   0.0080000
        k(  160) = (   0.3000000  -0.3000000   0.3000000), wk =   0.0040000
        k(  161) = (   0.3000000  -0.3000000   0.4000000), wk =   0.0080000
        k(  162) = (   0.3000000  -0.3000000  -0.5000000), wk =   0.0080000
        k(  163) = (   0.3000000  -0.3000000  -0.4000000), wk =   0.0080000
        k(  164) = (   0.3000000  -0.3000000  -0.3000000), wk =   0.0040000
        k(  165) = (   0.4000000   0.4000000  -0.4000000), wk =   0.0040000
        k(  166) = (   0.4000000  -0.5000000  -0.5000000), wk =   0.0080000
        k(  167) = (   0.4000000  -0.5000000  -0.4000000), wk =   0.0080000
        k(  168) = (   0.4000000  -0.4000000   0.4000000), wk =   0.0040000
        k(  169) = (   0.4000000  -0.4000000  -0.5000000), wk =   0.0080000
        k(  170) = (   0.4000000  -0.4000000  -0.4000000), wk =   0.0040000
        k(  171) = (  -0.5000000  -0.5000000  -0.5000000), wk =   0.0020000

     Dense  grid:   103495 G-vectors     FFT dimensions: (  96,  96,  96)

     Smooth grid:    26127 G-vectors     FFT dimensions: (  60,  60,  60)

     Dynamical RAM for                 wfc:       0.02 MB

     Dynamical RAM for     wfc (w. buffer):       3.75 MB

     Dynamical RAM for           str. fact:       0.10 MB

     Dynamical RAM for           local pot:       0.00 MB

     Dynamical RAM for          nlocal pot:       0.04 MB

     Dynamical RAM for                qrad:       5.38 MB

     Dynamical RAM for          rho,v,vnew:       0.52 MB

     Dynamical RAM for               rhoin:       0.17 MB

     Dynamical RAM for            rho*nmix:       0.53 MB

     Dynamical RAM for           G-vectors:       0.13 MB

     Dynamical RAM for          h,s,v(r/c):       0.08 MB

     Dynamical RAM for          <psi|beta>:       0.01 MB

     Dynamical RAM for                 psi:       0.04 MB

     Dynamical RAM for                hpsi:       0.04 MB

     Dynamical RAM for                spsi:       0.04 MB

     Dynamical RAM for      wfcinit/wfcrot:       0.07 MB

     Dynamical RAM for           addusdens:       6.19 MB

     Dynamical RAM for          addusforce:       6.28 MB

     Dynamical RAM for         addusstress:       6.62 MB

     Estimated static dynamical RAM per process >      11.46 MB

     Estimated max dynamical RAM per process >      18.07 MB

     Estimated total dynamical RAM >     867.46 MB

     Initial potential from superposition of free atoms

     starting charge   32.99867, renormalised to   33.00000
     Starting wfcs are   25 randomized atomic wfcs
     Checking if some PAW data can be deallocated... 
       PAW data deallocated on   36 nodes for type:  1
       PAW data deallocated on   24 nodes for type:  2
       PAW data deallocated on   36 nodes for type:  3

     total cpu time spent up to now is        2.1 secs

     Self-consistent Calculation

     iteration #  1     ecut=    50.00 Ry     beta= 0.70
     Davidson diagonalization with overlap
     ethr =  1.00E-02,  avg # of iterations =  2.1

     total cpu time spent up to now is        5.7 secs

     total energy              =    -534.52410509 Ry
     estimated scf accuracy    <       0.75915986 Ry

     iteration #  2     ecut=    50.00 Ry     beta= 0.70
     Davidson diagonalization with overlap
     ethr =  2.30E-03,  avg # of iterations =  3.5

     total cpu time spent up to now is       10.0 secs

     total energy              =    -533.58759538 Ry
     estimated scf accuracy    <       8.52450747 Ry

     iteration #  3     ecut=    50.00 Ry     beta= 0.70
     Davidson diagonalization with overlap
     ethr =  2.30E-03,  avg # of iterations =  3.4

     total cpu time spent up to now is       14.1 secs

     total energy              =    -534.96806139 Ry
     estimated scf accuracy    <       0.12640456 Ry

     iteration #  4     ecut=    50.00 Ry     beta= 0.70
     Davidson diagonalization with overlap
     ethr =  3.83E-04,  avg # of iterations =  1.3

     total cpu time spent up to now is       17.2 secs

     total energy              =    -534.96059259 Ry
     estimated scf accuracy    <       0.06124693 Ry

     iteration #  5     ecut=    50.00 Ry     beta= 0.70
     Davidson diagonalization with overlap
     ethr =  1.86E-04,  avg # of iterations =  1.5

     total cpu time spent up to now is       20.4 secs

     total energy              =    -534.95717057 Ry
     estimated scf accuracy    <       0.02359251 Ry

     iteration #  6     ecut=    50.00 Ry     beta= 0.70
     Davidson diagonalization with overlap
     ethr =  7.15E-05,  avg # of iterations =  2.0

     total cpu time spent up to now is       23.7 secs

     total energy              =    -534.95959705 Ry
     estimated scf accuracy    <       0.00079538 Ry

     iteration #  7     ecut=    50.00 Ry     beta= 0.70
     Davidson diagonalization with overlap
     ethr =  2.41E-06,  avg # of iterations =  3.1

     total cpu time spent up to now is       27.9 secs

     total energy              =    -534.95982776 Ry
     estimated scf accuracy    <       0.00014691 Ry

     iteration #  8     ecut=    50.00 Ry     beta= 0.70
     Davidson diagonalization with overlap
     ethr =  4.45E-07,  avg # of iterations =  1.4

     total cpu time spent up to now is       31.1 secs

     total energy              =    -534.95982270 Ry
     estimated scf accuracy    <       0.00003575 Ry

     iteration #  9     ecut=    50.00 Ry     beta= 0.70
     Davidson diagonalization with overlap
     ethr =  1.08E-07,  avg # of iterations =  2.0

     total cpu time spent up to now is       34.6 secs

     total energy              =    -534.95983082 Ry
     estimated scf accuracy    <       0.00000132 Ry

     iteration # 10     ecut=    50.00 Ry     beta= 0.70
     Davidson diagonalization with overlap
     ethr =  3.99E-09,  avg # of iterations =  2.4

     total cpu time spent up to now is       38.3 secs

     total energy              =    -534.95983112 Ry
     estimated scf accuracy    <       0.00000001 Ry

     iteration # 11     ecut=    50.00 Ry     beta= 0.70
     Davidson diagonalization with overlap
     ethr =  4.16E-11,  avg # of iterations =  4.9

     total cpu time spent up to now is       43.7 secs

     total energy              =    -534.95983113 Ry
     estimated scf accuracy    <       0.00000001 Ry

     iteration # 12     ecut=    50.00 Ry     beta= 0.70
     Davidson diagonalization with overlap
     ethr =  4.16E-11,  avg # of iterations =  2.1

     total cpu time spent up to now is       47.1 secs

     total energy              =    -534.95983114 Ry
     estimated scf accuracy    <          1.7E-10 Ry

     iteration # 13     ecut=    50.00 Ry     beta= 0.70
     Davidson diagonalization with overlap
     ethr =  5.28E-13,  avg # of iterations =  3.7

     total cpu time spent up to now is       51.3 secs

     End of self-consistent calculation

          k = 0.0000 0.0000 0.0000 (  3265 PWs)   bands (ev):

   -49.8543 -26.1459 -25.7900 -25.7092 -12.4411  -9.4964  -8.8065   0.6427
     2.4924   2.7209   2.8788   2.9580   3.4314   3.9419   4.1902   4.2883
     5.5308   7.1810   7.3263   8.6811   9.3651

     occupation numbers 
     1.0000   1.0000   1.0000   1.0000   1.0000   1.0000   1.0000   1.0000
     1.0000   1.0000   1.0000   1.0000   1.0000   1.0000   1.0000   1.0000
     1.0000  -0.0000  -0.0000  -0.0000  -0.0000

          k = 0.1997 0.1717 0.0000 (  3276 PWs)   bands (ev):

   -49.8528 -26.1623 -25.7857 -25.7294 -12.3147  -9.4259  -8.8113   0.7792
     2.2270   2.3514   2.5864   3.1348   3.2706   3.7448   3.8842   4.0618
     5.8296   7.3921   7.4829   8.7402   9.8450

     occupation numbers 
     1.0000   1.0000   1.0000   1.0000   1.0000   1.0000   1.0000   1.0000
     1.0000   1.0000   1.0000   1.0000   1.0000   1.0000   1.0000   1.0000
     1.0000  -0.0000  -0.0000  -0.0000  -0.0000

          k = 0.3993 0.3435 0.0000 (  3260 PWs)   bands (ev):

   -49.8481 -26.2043 -25.7818 -25.7744 -11.9707  -9.2341  -8.8257   1.1454
     1.6422   1.8243   2.0565   2.3872   2.7108   3.1682   3.8732   4.0012
     6.4522   7.8550   7.9309   9.0018  10.7773

     occupation numbers 
     1.0000   1.0000   1.0000   1.0000   1.0000   1.0000   1.0000   1.0000
     1.0000   1.0000   1.0000   1.0000   1.0000   1.0000   1.0000   1.0000
     1.0336  -0.0000  -0.0000  -0.0000  -0.0000

          k = 0.5990 0.5152 0.0000 (  3260 PWs)   bands (ev):

   -49.8426 -26.2545 -25.8456 -25.7605 -11.5146  -8.9804  -8.8470   0.5282
     1.4165   1.6649   1.7290   1.8204   1.8811   2.6947   3.7403   4.0099
     7.2516   8.4220   8.5739   9.3749  11.3392

     occupation numbers 
     1.0000   1.0000   1.0000   1.0000   1.0000   1.0000   1.0000   1.0000
     1.0000   1.0000   1.0000   1.0000   1.0000   1.0000   1.0000   1.0000
    -0.0000  -0.0000  -0.0000  -0.0000  -0.0000

          k = 0.7986 0.6869 0.0000 (  3261 PWs)   bands (ev):

   -49.8381 -26.2938 -25.8964 -25.7493 -11.1134  -8.8671  -8.7581  -0.3115
     0.8200   1.1728   1.6821   1.7861   2.2231   2.3365   3.4493   3.9504
     8.0806   8.9329   9.1394   9.6636  11.3889

     occupation numbers 
     1.0000   1.0000   1.0000   1.0000   1.0000   1.0000   1.0000   1.0000
     1.0000   1.0000   1.0000   1.0000   1.0000   1.0000   1.0000   1.0000
    -0.0000  -0.0000  -0.0000  -0.0000  -0.0000

          k =-0.9983-0.8586 0.0000 (  3258 PWs)   bands (ev):

   -49.8364 -26.3086 -25.9156 -25.7450 -10.9505  -8.8754  -8.6682  -0.6306
     0.5806   0.9711   1.7549   1.8548   1.9632   2.6024   3.2790   3.8773
     8.4866   9.1531   9.3437   9.7888  11.4215

     occupation numbers 
     1.0000   1.0000   1.0000   1.0000   1.0000   1.0000   1.0000   1.0000
     1.0000   1.0000   1.0000   1.0000   1.0000   1.0000   1.0000   1.0000
    -0.0000  -0.0000  -0.0000  -0.0000  -0.0000

          k = 0.1997 0.0000 0.0542 (  3266 PWs)   bands (ev):

   -49.8530 -26.1443 -25.7863 -25.7300 -12.4300  -9.4383  -8.8150   0.7667
     2.3430   2.6828   2.9207   3.0022   3.2289   3.8744   3.9733   4.1364
     5.8180   7.1231   7.2877   8.7293   9.6276

     occupation numbers 
     1.0000   1.0000   1.0000   1.0000   1.0000   1.0000   1.0000   1.0000
     1.0000   1.0000   1.0000   1.0000   1.0000   1.0000   1.0000   1.0000
     1.0000  -0.0003  -0.0000  -0.0000  -0.0000

          k = 0.3993 0.1717 0.0542 (  3270 PWs)   bands (ev):

   -49.8491 -26.1580 -25.7834 -25.7761 -12.2857  -9.2738  -8.8274   1.0797
     2.0488   2.2949   2.5396   2.6184   3.1374   3.2177   3.8535   4.0536
     6.4199   7.2398   7.3677   8.9883  10.2826

     occupation numbers 
     1.0000   1.0000   1.0000   1.0000   1.0000   1.0000   1.0000   1.0000
     1.0000   1.0000   1.0000   1.0000   1.0000   1.0000   1.0000   1.0000
     1.0258  -0.0000  -0.0000  -0.0000  -0.0000

          k = 0.5990 0.3435 0.0542 (  3278 PWs)   bands (ev):

   -49.8438 -26.1987 -25.8478 -25.7626 -11.9359  -9.0334  -8.8465   1.4018
     1.5920   1.7930   1.9306   2.0023   2.2213   2.8047   3.8415   4.1046
     7.1785   7.7076   7.8204   9.4151  10.9709

     occupation numbers 
     1.0000   1.0000   1.0000   1.0000   1.0000   1.0000   1.0000   1.0000
     1.0000   1.0000   1.0000   1.0000   1.0000   1.0000   1.0000   1.0000
    -0.0001  -0.0000  -0.0000  -0.0000  -0.0000

          k = 0.7986 0.5152 0.0542 (  3258 PWs)   bands (ev):

   -49.8389 -26.2496 -25.8982 -25.7510 -11.4875  -8.8738  -8.7956   0.5494
     1.1234   1.1353   1.7029   1.8755   2.3347   2.3628   3.5929   4.0717
     7.9868   8.3437   8.5115   9.7262  11.2527

     occupation numbers 
     1.0000   1.0000   1.0000   1.0000   1.0000   1.0000   1.0000   1.0000
     1.0000   1.0000   1.0000   1.0000   1.0000   1.0000   1.0000   1.0000
    -0.0000  -0.0000  -0.0000  -0.0000  -0.0000

          k = 0.9983 0.6869 0.0542 (  3267 PWs)   bands (ev):

   -49.8368 -26.2919 -25.9163 -25.7457 -11.1034  -8.8833  -8.6769  -0.3037
     0.6798   0.9488   1.6085   1.9529   2.1083   2.6200   3.3268   3.9209
     8.4793   8.8868   9.1106   9.7791  11.3387

     occupation numbers 
     1.0000   1.0000   1.0000   1.0000   1.0000   1.0000   1.0000   1.0000
     1.0000   1.0000   1.0000   1.0000   1.0000   1.0000   1.0000   1.0000
    -0.0000  -0.0000  -0.0000  -0.0000  -0.0000

          k =-0.7986-0.8586 0.0542 (  3273 PWs)   bands (ev):

   -49.8379 -26.3106 -25.8957 -25.7487 -10.9602  -8.8793  -8.7277  -0.6376
     0.7002   1.1616   1.4958   1.8303   2.2994   2.4379   3.3834   3.8460
     8.1169   9.1889   9.3763   9.5964  11.3504

     occupation numbers 
     1.0000   1.0000   1.0000   1.0000   1.0000   1.0000   1.0000   1.0000
     1.0000   1.0000   1.0000   1.0000   1.0000   1.0000   1.0000   1.0000
    -0.0000  -0.0000  -0.0000  -0.0000  -0.0000

          k =-0.5990-0.6869 0.0542 (  3265 PWs)   bands (ev):

   -49.8418 -26.2989 -25.8438 -25.7589 -11.1390  -8.9255  -8.8593  -0.3313
     1.1483   1.4051   1.7376   1.7617   1.9267   2.7264   3.6359   3.8402
     7.3116   9.0354   9.1664   9.3251  11.4559

     occupation numbers 
     1.0000   1.0000   1.0000   1.0000   1.0000   1.0000   1.0000   1.0000
     1.0000   1.0000   1.0000   1.0000   1.0000   1.0000   1.0000   1.0000
    -0.0000  -0.0000  -0.0000  -0.0000  -0.0000

          k =-0.3993-0.5152 0.0542 (  3260 PWs)   bands (ev):

   -49.8471 -26.2605 -25.7798 -25.7723 -11.5479  -9.1733  -8.8369   0.5001
     1.2769   1.4224   1.9111   2.0544   2.6109   3.1599   3.7672   3.8743
     6.5124   8.5912   8.6273   9.0092  11.1548

     occupation numbers 
     1.0000   1.0000   1.0000   1.0000   1.0000   1.0000   1.0000   1.0000
     1.0000   1.0000   1.0000   1.0000   1.0000   1.0000   1.0000   1.0000
     1.0224  -0.0000  -0.0000  -0.0000  -0.0000

          k =-0.1997-0.3435 0.0542 (  3269 PWs)   bands (ev):

   -49.8518 -26.2089 -25.7840 -25.7278 -11.9988  -9.3789  -8.8193   0.8505
     1.6114   1.6810   2.3610   2.7948   3.3766   3.5445   3.8036   3.9129
     5.8749   8.0224   8.0368   8.7655  10.3016

     occupation numbers 
     1.0000   1.0000   1.0000   1.0000   1.0000   1.0000   1.0000   1.0000
     1.0000   1.0000   1.0000   1.0000   1.0000   1.0000   1.0000   1.0000
     1.0000  -0.0000  -0.0000  -0.0000  -0.0000

          k = 0.0000-0.1717 0.0542 (  3277 PWs)   bands (ev):

   -49.8542 -26.1640 -25.7893 -25.7086 -12.3257  -9.4767  -8.8120   0.6768
     2.1952   2.5071   2.5773   3.2945   3.3182   3.8295   3.9982   4.2080
     5.5506   7.4634   7.5272   8.7002   9.5976

     occupation numbers 
     1.0000   1.0000   1.0000   1.0000   1.0000   1.0000   1.0000   1.0000
     1.0000   1.0000   1.0000   1.0000   1.0000   1.0000   1.0000   1.0000
     1.0000  -0.0000  -0.0000  -0.0000  -0.0000

          k = 0.3993 0.0000 0.1083 (  3267 PWs)   bands (ev):

   -49.8494 -26.1401 -25.7840 -25.7768 -12.4007  -9.2823  -8.8355   1.0654
     2.0629   2.4205   2.6490   2.9801   3.1887   3.5196   3.8282   3.9885
     6.4299   6.9852   7.1639   8.9515  10.0126

     occupation numbers 
     1.0000   1.0000   1.0000   1.0000   1.0000   1.0000   1.0000   1.0000
     1.0000   1.0000   1.0000   1.0000   1.0000   1.0000   1.0000   1.0000
     1.0285  -0.0102  -0.0001  -0.0000  -0.0000

          k = 0.5990 0.1717 0.1083 (  3276 PWs)   bands (ev):

   -49.8446 -26.1527 -25.8495 -25.7643 -12.2500  -9.0722  -8.8496   1.3261
     1.6862   1.8970   2.2352   2.6555   2.9552   3.1347   3.8219   4.0004
     7.0161   7.1869   7.2795   9.3990  10.3944

     occupation numbers 
     1.0000   1.0000   1.0000   1.0000   1.0000   1.0000   1.0000   1.0000
     1.0000   1.0000   1.0000   1.0000   1.0000   1.0000   1.0000   1.0000
    -0.0055  -0.0000  -0.0000  -0.0000  -0.0000

          k = 0.7986 0.3435 0.1083 (  3271 PWs)   bands (ev):

   -49.8401 -26.1941 -25.9005 -25.7530 -11.9077  -8.9052  -8.8172   1.0301
     1.4287   1.6276   1.7889   1.9622   2.4989   2.7803   3.7570   4.1001
     7.4728   7.7137   8.0879   9.7463  10.8309

     occupation numbers 
     1.0000   1.0000   1.0000   1.0000   1.0000   1.0000   1.0000   1.0000
     1.0000   1.0000   1.0000   1.0000   1.0000   1.0000   1.0000   1.0000
    -0.0000  -0.0000  -0.0000  -0.0000  -0.0000

          k = 0.9983 0.5152 0.1083 (  3264 PWs)   bands (ev):

   -49.8376 -26.2478 -25.9182 -25.7473 -11.4771  -8.9038  -8.6996   0.5517
     0.8679   1.0068   1.4836   1.9737   2.4612   2.7019   3.4665   4.0110
     8.2023   8.4831   8.4927   9.7679  11.0900

     occupation numbers 
     1.0000   1.0000   1.0000   1.0000   1.0000   1.0000   1.0000   1.0000
     1.0000   1.0000   1.0000   1.0000   1.0000   1.0000   1.0000   1.0000
    -0.0000  -0.0000  -0.0000  -0.0000  -0.0000

          k = 1.1980 0.6869 0.1083 (  3271 PWs)   bands (ev):

   -49.8382 -26.2938 -25.8964 -25.7493 -11.1132  -8.9045  -8.7174  -0.3116
     0.7850   1.1030   1.3868   1.9066   2.4484   2.5748   3.4206   3.8267
     8.1326   8.9238   9.1417   9.5367  11.2268

     occupation numbers 
     1.0000   1.0000   1.0000   1.0000   1.0000   1.0000   1.0000   1.0000
     1.0000   1.0000   1.0000   1.0000   1.0000   1.0000   1.0000   1.0000
    -0.0000  -0.0000  -0.0000  -0.0000  -0.0000

          k =-0.5990-0.8586 0.1083 (  3274 PWs)   bands (ev):

   -49.8416 -26.3157 -25.8432 -25.7582 -10.9851  -8.8900  -8.8783  -0.6557
     1.0064   1.2866   1.6887   1.7092   2.1132   2.8029   3.6122   3.6949
     7.3535   9.1477   9.3417   9.4483  11.4428

     occupation numbers 
     1.0000   1.0000   1.0000   1.0000   1.0000   1.0000   1.0000   1.0000
     1.0000   1.0000   1.0000   1.0000   1.0000   1.0000   1.0000   1.0000
    -0.0000  -0.0000  -0.0000  -0.0000  -0.0000

          k =-0.3993-0.6869 0.1083 (  3274 PWs)   bands (ev):

   -49.8464 -26.3051 -25.7781 -25.7707 -11.1704  -9.1064  -8.8658  -0.3553
     1.1132   1.4241   1.6218   1.9888   2.5804   3.1226   3.5883   3.8342
     6.5705   8.8861   9.2133   9.2974  11.3623

     occupation numbers 
     1.0000   1.0000   1.0000   1.0000   1.0000   1.0000   1.0000   1.0000
     1.0000   1.0000   1.0000   1.0000   1.0000   1.0000   1.0000   1.0000
     0.9282  -0.0000  -0.0000  -0.0000  -0.0000

          k =-0.1997-0.5152 0.1083 (  3263 PWs)   bands (ev):

   -49.8507 -26.2653 -25.7819 -25.7259 -11.5746  -9.3094  -8.8431   0.4759
     0.9590   1.2759   2.3030   2.4414   3.1119   3.5169   3.6421   3.9293
     5.9301   8.6833   8.7729   8.8341  10.7244

     occupation numbers 
     1.0000   1.0000   1.0000   1.0000   1.0000   1.0000   1.0000   1.0000
     1.0000   1.0000   1.0000   1.0000   1.0000   1.0000   1.0000   1.0000
     1.0000  -0.0000  -0.0000  -0.0000  -0.0000

          k = 0.0000-0.3435 0.1083 (  3274 PWs)   bands (ev):

   -49.8533 -26.2106 -25.7876 -25.7071 -12.0094  -9.4224  -8.8297   0.7647
     1.5932   1.6516   2.5465   3.0267   3.2863   3.5860   3.9176   4.0833
     5.5916   8.0568   8.1231   8.7504  10.0758

     occupation numbers 
     1.0000   1.0000   1.0000   1.0000   1.0000   1.0000   1.0000   1.0000
     1.0000   1.0000   1.0000   1.0000   1.0000   1.0000   1.0000   1.0000
     1.0000  -0.0000  -0.0000  -0.0000  -0.0000

          k = 0.1997-0.1717 0.1083 (  3276 PWs)   bands (ev):

   -49.8528 -26.1623 -25.7857 -25.7294 -12.3145  -9.4127  -8.8275   0.8206
     2.2371   2.3524   2.5887   3.1152   3.2448   3.6651   3.9141   4.0608
     5.8445   7.3884   7.4963   8.7380   9.8973

     occupation numbers 
     1.0000   1.0000   1.0000   1.0000   1.0000   1.0000   1.0000   1.0000
     1.0000   1.0000   1.0000   1.0000   1.0000   1.0000   1.0000   1.0000
     1.0000  -0.0000  -0.0000  -0.0000  -0.0000

          k = 0.5990 0.0000 0.1625 (  3275 PWs)   bands (ev):

   -49.8450 -26.1349 -25.8502 -25.7649 -12.3648  -9.0873  -8.8498   1.2700
     1.6064   1.9606   2.3388   3.0575   3.3869   3.4669   3.7151   3.7921
     6.8454   6.9452   7.2299   9.3364  10.0557

     occupation numbers 
     1.0000   1.0000   1.0000   1.0000   1.0000   1.0000   1.0000   1.0000
     1.0000   1.0000   1.0000   1.0000   1.0000   1.0000   1.0000   1.0000
    -0.0306  -0.0196  -0.0000  -0.0000  -0.0000

          k = 0.7986 0.1717 0.1625 (  3280 PWs)   bands (ev):

   -49.8410 -26.1483 -25.9024 -25.7547 -12.2212  -8.9447  -8.8192   0.9614
     1.4244   1.8733   2.0044   2.7888   2.9278   3.3135   3.8012   3.9443
     6.9454   7.0067   8.0497   9.6997  10.2467

     occupation numbers 
     1.0000   1.0000   1.0000   1.0000   1.0000   1.0000   1.0000   1.0000
     1.0000   1.0000   1.0000   1.0000   1.0000   1.0000   1.0000   1.0000
    -0.0196  -0.0067  -0.0000  -0.0000  -0.0000

          k = 0.9983 0.3435 0.1625 (  3282 PWs)   bands (ev):

   -49.8388 -26.1923 -25.9206 -25.7493 -11.8969  -8.9289  -8.7273   0.7630
     1.3470   1.4705   1.7625   1.9719   2.7359   3.0240   3.6673   4.0353
     7.4582   7.6684   8.4666   9.7462  10.6684

     occupation numbers 
     1.0000   1.0000   1.0000   1.0000   1.0000   1.0000   1.0000   1.0000
     1.0000   1.0000   1.0000   1.0000   1.0000   1.0000   1.0000   1.0000
    -0.0000  -0.0000  -0.0000  -0.0000  -0.0000

          k = 1.1980 0.5152 0.1625 (  3278 PWs)   bands (ev):

   -49.8391 -26.2497 -25.8983 -25.7510 -11.4873  -8.9356  -8.7285   0.5474
     0.9995   1.1073   1.3262   2.0336   2.6063   2.7257   3.5587   3.9061
     8.1189   8.2768   8.5173   9.5093  11.0010

     occupation numbers 
     1.0000   1.0000   1.0000   1.0000   1.0000   1.0000   1.0000   1.0000
     1.0000   1.0000   1.0000   1.0000   1.0000   1.0000   1.0000   1.0000
    -0.0000  -0.0000  -0.0000  -0.0000  -0.0000

          k = 1.3976 0.6869 0.1625 (  3274 PWs)   bands (ev):

   -49.8419 -26.2989 -25.8438 -25.7589 -11.1387  -8.9348  -8.8485  -0.3318
     1.0735   1.2940   1.6187   1.7118   2.2989   2.8712   3.6292   3.7120
     7.3670   8.9717   9.2000   9.2310  11.3484

     occupation numbers 
     1.0000   1.0000   1.0000   1.0000   1.0000   1.0000   1.0000   1.0000
     1.0000   1.0000   1.0000   1.0000   1.0000   1.0000   1.0000   1.0000
    -0.0000  -0.0000  -0.0000  -0.0000  -0.0000

          k =-0.3993-0.8586 0.1625 (  3274 PWs)   bands (ev):

   -49.8461 -26.3220 -25.7775 -25.7700 -11.0153  -9.0551  -8.9043  -0.6780
     1.0224   1.3716   1.6980   1.8864   2.5935   3.0576   3.5024   3.8526
     6.6067   8.8664   9.4577   9.5117  11.4266

     occupation numbers 
     1.0000   1.0000   1.0000   1.0000   1.0000   1.0000   1.0000   1.0000
     1.0000   1.0000   1.0000   1.0000   1.0000   1.0000   1.0000   1.0000
     0.8087  -0.0000  -0.0000  -0.0000  -0.0000

          k =-0.1997-0.6869 0.1625 (  3264 PWs)   bands (ev):

   -49.8499 -26.3102 -25.7802 -25.7244 -11.1953  -9.2371  -8.8819  -0.3743
     0.8574   1.2569   2.0333   2.3354   2.8937   3.4659   3.5388   3.9557
     5.9767   8.8077   9.3109   9.3708  11.0129

     occupation numbers 
     1.0000   1.0000   1.0000   1.0000   1.0000   1.0000   1.0000   1.0000
     1.0000   1.0000   1.0000   1.0000   1.0000   1.0000   1.0000   1.0000
     1.0000  -0.0000  -0.0000  -0.0000  -0.0000

          k =-0.0000-0.5152 0.1625 (  3276 PWs)   bands (ev):

   -49.8523 -26.2671 -25.7855 -25.7053 -11.5846  -9.3471  -8.8612   0.4643
     0.8644   1.2691   2.5969   2.7032   2.7649   3.5336   3.9617   3.9950
     5.6384   8.7326   8.8097   8.8666  10.5348

     occupation numbers 
     1.0000   1.0000   1.0000   1.0000   1.0000   1.0000   1.0000   1.0000
     1.0000   1.0000   1.0000   1.0000   1.0000   1.0000   1.0000   1.0000
     1.0000  -0.0000  -0.0000  -0.0000  -0.0000

          k = 0.1997-0.3435 0.1625 (  3266 PWs)   bands (ev):

   -49.8518 -26.2088 -25.7840 -25.7278 -11.9985  -9.3542  -8.8492   0.9168
     1.6048   1.7354   2.3505   2.7909   3.1607   3.5587   3.7251   4.0423
     5.8936   8.0306   8.0373   8.7668  10.3952

     occupation numbers 
     1.0000   1.0000   1.0000   1.0000   1.0000   1.0000   1.0000   1.0000
     1.0000   1.0000   1.0000   1.0000   1.0000   1.0000   1.0000   1.0000
     1.0000  -0.0000  -0.0000  -0.0000  -0.0000

          k = 0.3993-0.1717 0.1625 (  3266 PWs)   bands (ev):

   -49.8490 -26.1580 -25.7834 -25.7761 -12.2855  -9.2566  -8.8468   1.1086
     2.0639   2.2432   2.4997   2.6225   3.1112   3.2898   3.8529   4.0529
     6.4558   7.2195   7.3866   8.9144  10.2901

     occupation numbers 
     1.0000   1.0000   1.0000   1.0000   1.0000   1.0000   1.0000   1.0000
     1.0000   1.0000   1.0000   1.0000   1.0000   1.0000   1.0000   1.0000
     1.0342  -0.0000  -0.0000  -0.0000  -0.0000

          k = 0.7986 0.0000 0.2166 (  3293 PWs)   bands (ev):

   -49.8415 -26.1307 -25.9031 -25.7553 -12.3357  -8.9715  -8.8069   0.9133
     1.3397   2.0105   2.0561   3.1701   3.4383   3.5118   3.7088   3.8139
     6.6934   6.7544   8.0479   9.5919   9.9504

     occupation numbers 
     1.0000   1.0000   1.0000   1.0000   1.0000   1.0000   1.0000   1.0000
     1.0000   1.0000   1.0000   1.0000   1.0000   1.0000   1.0000   1.0000
     0.3878   0.1259  -0.0000  -0.0000  -0.0000

          k = 0.9983 0.1717 0.2166 (  3291 PWs)   bands (ev):

   -49.8398 -26.1467 -25.9225 -25.7510 -12.2101  -8.9490  -8.7493   0.7076
     1.3407   1.8398   1.9527   2.8582   2.9838   3.4808   3.8526   3.8581
     6.8892   6.9343   8.4493   9.6611  10.1959

     occupation numbers 
     1.0000   1.0000   1.0000   1.0000   1.0000   1.0000   1.0000   1.0000
     1.0000   1.0000   1.0000   1.0000   1.0000   1.0000   1.0000   1.0000
    -0.0339  -0.0226  -0.0000  -0.0000  -0.0000

          k = 1.1980 0.3435 0.2166 (  3280 PWs)   bands (ev):

   -49.8402 -26.1941 -25.9005 -25.7530 -11.9075  -8.9632  -8.7539   0.9297
     1.2803   1.4793   1.7737   2.1225   2.7501   2.9920   3.7364   3.9979
     7.4975   7.7135   8.1106   9.5234  10.6298

     occupation numbers 
     1.0000   1.0000   1.0000   1.0000   1.0000   1.0000   1.0000   1.0000
     1.0000   1.0000   1.0000   1.0000   1.0000   1.0000   1.0000   1.0000
    -0.0000  -0.0000  -0.0000  -0.0000  -0.0000

          k = 1.3976 0.5152 0.2166 (  3269 PWs)   bands (ev):

   -49.8427 -26.2545 -25.8456 -25.7606 -11.5142  -8.9888  -8.8361   0.5241
     1.3101   1.3436   1.5748   1.8572   2.4278   2.9272   3.6746   3.8996
     7.3455   8.3899   8.5906   9.1688  11.1488

     occupation numbers 
     1.0000   1.0000   1.0000   1.0000   1.0000   1.0000   1.0000   1.0000
     1.0000   1.0000   1.0000   1.0000   1.0000   1.0000   1.0000   1.0000
    -0.0000  -0.0000  -0.0000  -0.0000  -0.0000

          k = 1.5973 0.6869 0.2166 (  3273 PWs)   bands (ev):

   -49.8464 -26.3052 -25.7781 -25.7707 -11.1700  -9.0638  -8.9111  -0.3560
     1.0965   1.4548   1.6720   1.9570   2.5835   3.0805   3.4922   3.9318
     6.6083   8.8349   9.2400   9.2714  11.3648

     occupation numbers 
     1.0000   1.0000   1.0000   1.0000   1.0000   1.0000   1.0000   1.0000
     1.0000   1.0000   1.0000   1.0000   1.0000   1.0000   1.0000   1.0000
     0.8024  -0.0000  -0.0000  -0.0000  -0.0000

          k =-0.1997-0.8586 0.2166 (  3274 PWs)   bands (ev):

   -49.8497 -26.3271 -25.7795 -25.7238 -11.0394  -9.1918  -8.9167  -0.6959
     0.7773   1.4017   1.8554   2.2602   2.8225   3.4296   3.5078   3.9734
     5.9992   8.8243   9.5380   9.5965  11.1337

     occupation numbers 
     1.0000   1.0000   1.0000   1.0000   1.0000   1.0000   1.0000   1.0000
     1.0000   1.0000   1.0000   1.0000   1.0000   1.0000   1.0000   1.0000
     1.0000  -0.0000  -0.0000  -0.0000  -0.0000

          k = 0.0000-0.6869 0.2166 (  3279 PWs)   bands (ev):

   -49.8514 -26.3121 -25.7838 -25.7038 -11.2047  -9.2751  -8.9006  -0.3818
     0.7546   1.2618   2.3271   2.4689   2.6426   3.4643   3.9410   3.9751
     5.6765   8.8631   9.3089   9.4417  10.8492

     occupation numbers 
     1.0000   1.0000   1.0000   1.0000   1.0000   1.0000   1.0000   1.0000
     1.0000   1.0000   1.0000   1.0000   1.0000   1.0000   1.0000   1.0000
     1.0000  -0.0000  -0.0000  -0.0000  -0.0000

          k = 0.1997-0.5152 0.2166 (  3270 PWs)   bands (ev):

   -49.8508 -26.2653 -25.7819 -25.7259 -11.5742  -9.2774  -8.8805   0.4722
     0.9960   1.4071   2.1851   2.4772   2.9437   3.5253   3.5696   4.0360
     5.9490   8.7159   8.7607   8.8217  10.8218

     occupation numbers 
     1.0000   1.0000   1.0000   1.0000   1.0000   1.0000   1.0000   1.0000
     1.0000   1.0000   1.0000   1.0000   1.0000   1.0000   1.0000   1.0000
     1.0000  -0.0000  -0.0000  -0.0000  -0.0000

          k = 0.3993-0.3435 0.2166 (  3266 PWs)   bands (ev):

   -49.8482 -26.2043 -25.7818 -25.7744 -11.9703  -9.2013  -8.8623   1.1791
     1.6155   1.9066   2.0258   2.3381   2.6379   3.2676   3.7238   4.1089
     6.5119   7.8380   7.9547   8.8918  10.7920

     occupation numbers 
     1.0000   1.0000   1.0000   1.0000   1.0000   1.0000   1.0000   1.0000
     1.0000   1.0000   1.0000   1.0000   1.0000   1.0000   1.0000   1.0000
     1.0227  -0.0000  -0.0000  -0.0000  -0.0000

          k = 0.5990-0.1717 0.2166 (  3273 PWs)   bands (ev):

   -49.8446 -26.1526 -25.8495 -25.7643 -12.2498  -9.0754  -8.8448   1.2574
     1.5462   1.9279   2.3095   2.6860   3.0225   3.2137   3.8048   4.0170
     7.0181   7.1833   7.2950   9.2597  10.3069

     occupation numbers 
     1.0000   1.0000   1.0000   1.0000   1.0000   1.0000   1.0000   1.0000
     1.0000   1.0000   1.0000   1.0000   1.0000   1.0000   1.0000   1.0000
    -0.0053  -0.0000  -0.0000  -0.0000  -0.0000

          k =-0.9983 0.0000-0.2708 (  3288 PWs)   bands (ev):

   -49.8401 -26.1290 -25.9232 -25.7516 -12.3246  -8.9566  -8.7577   0.6856
     1.3285   1.9193   2.0348   3.3108   3.3405   3.4778   3.7595   3.9323
     6.5723   6.7242   8.4404   9.5368  10.0256

     occupation numbers 
     1.0000   1.0000   1.0000   1.0000   1.0000   1.0000   1.0000   1.0000
     1.0000   1.0000   1.0000   1.0000   1.0000   1.0000   1.0000   1.0000
     0.9235   0.2421  -0.0000  -0.0000  -0.0000

          k =-0.7986 0.1717-0.2708 (  3289 PWs)   bands (ev):

   -49.8411 -26.1483 -25.9024 -25.7547 -12.2211  -8.9774  -8.7833   0.9038
     1.2911   1.8740   2.1122   2.7986   3.0045   3.3972   3.7773   3.9620
     6.9294   6.9998   8.0750   9.5568  10.1610

     occupation numbers 
     1.0000   1.0000   1.0000   1.0000   1.0000   1.0000   1.0000   1.0000
     1.0000   1.0000   1.0000   1.0000   1.0000   1.0000   1.0000   1.0000
    -0.0240  -0.0077  -0.0000  -0.0000  -0.0000

          k =-0.5990 0.3435-0.2708 (  3275 PWs)   bands (ev):

   -49.8438 -26.1987 -25.8477 -25.7626 -11.9355  -9.0396  -8.8377   1.2762
     1.4568   1.6392   1.8487   2.1272   2.5760   3.0025   3.7815   4.0617
     7.2812   7.6556   7.8303   9.1964  10.7933

     occupation numbers 
     1.0000   1.0000   1.0000   1.0000   1.0000   1.0000   1.0000   1.0000
     1.0000   1.0000   1.0000   1.0000   1.0000   1.0000   1.0000   1.0000
    -0.0000  -0.0000  -0.0000  -0.0000  -0.0000

          k =-0.3993 0.5152-0.2708 (  3270 PWs)   bands (ev):

   -49.8472 -26.2605 -25.7798 -25.7724 -11.5473  -9.1290  -8.8852   0.4950
     1.2399   1.6200   1.7377   2.1389   2.5353   3.2067   3.5537   4.0413
     6.5728   8.5637   8.6705   8.9040  11.1655

     occupation numbers 
     1.0000   1.0000   1.0000   1.0000   1.0000   1.0000   1.0000   1.0000
     1.0000   1.0000   1.0000   1.0000   1.0000   1.0000   1.0000   1.0000
     0.9223  -0.0000  -0.0000  -0.0000  -0.0000

          k =-0.1997 0.6869-0.2708 (  3269 PWs)   bands (ev):

   -49.8499 -26.3102 -25.7802 -25.7244 -11.1951  -9.2094  -8.9130  -0.3749
     0.8535   1.4240   1.9065   2.3203   2.8360   3.4413   3.5282   4.0027
     5.9892   8.8197   9.3015   9.3730  11.0732

     occupation numbers 
     1.0000   1.0000   1.0000   1.0000   1.0000   1.0000   1.0000   1.0000
     1.0000   1.0000   1.0000   1.0000   1.0000   1.0000   1.0000   1.0000
     1.0000  -0.0000  -0.0000  -0.0000  -0.0000

          k =-1.9966-0.8586-0.2708 (  3268 PWs)   bands (ev):

   -49.8510 -26.3291 -25.7831 -25.7032 -11.0485  -9.2427  -8.9217  -0.7028
     0.6805   1.3378   2.1360   2.3864   2.6597   3.4376   3.9221   3.9722
     5.6911   8.8827   9.5390   9.6621  10.9607

     occupation numbers 
     1.0000   1.0000   1.0000   1.0000   1.0000   1.0000   1.0000   1.0000
     1.0000   1.0000   1.0000   1.0000   1.0000   1.0000   1.0000   1.0000
     1.0000  -0.0000  -0.0000  -0.0000  -0.0000

          k = 0.3993 0.3435 0.1083 (  3263 PWs)   bands (ev):

   -49.8481 -26.2043 -25.7818 -25.7744 -11.9706  -9.2256  -8.8352   1.1526
     1.6352   1.8487   2.0484   2.3914   2.6571   3.2113   3.8193   4.0437
     6.4682   7.8483   7.9400   8.9691  10.7845

     occupation numbers 
     1.0000   1.0000   1.0000   1.0000   1.0000   1.0000   1.0000   1.0000
     1.0000   1.0000   1.0000   1.0000   1.0000   1.0000   1.0000   1.0000
     1.0354  -0.0000  -0.0000  -0.0000  -0.0000

          k = 0.5990 0.5152 0.1083 (  3266 PWs)   bands (ev):

   -49.8426 -26.2545 -25.8456 -25.7605 -11.5146  -8.9817  -8.8453   0.5276
     1.3976   1.6038   1.6925   1.7684   2.0413   2.7359   3.7312   3.9944
     7.2648   8.4121   8.5775   9.3494  11.3166

     occupation numbers 
     1.0000   1.0000   1.0000   1.0000   1.0000   1.0000   1.0000   1.0000
     1.0000   1.0000   1.0000   1.0000   1.0000   1.0000   1.0000   1.0000
    -0.0000  -0.0000  -0.0000  -0.0000  -0.0000

          k = 0.7986 0.6869 0.1083 (  3265 PWs)   bands (ev):

   -49.8382 -26.2938 -25.8964 -25.7493 -11.1133  -8.8722  -8.7526  -0.3115
     0.8198   1.1523   1.6957   1.7450   2.2498   2.3794   3.4411   3.9405
     8.0869   8.9269   9.1397   9.6519  11.3805

     occupation numbers 
     1.0000   1.0000   1.0000   1.0000   1.0000   1.0000   1.0000   1.0000
     1.0000   1.0000   1.0000   1.0000   1.0000   1.0000   1.0000   1.0000
    -0.0000  -0.0000  -0.0000  -0.0000  -0.0000

          k = 0.9983 0.8586 0.1083 (  3264 PWs)   bands (ev):

   -49.8364 -26.3086 -25.9156 -25.7451 -10.9506  -8.8754  -8.6682  -0.6306
     0.5885   0.9528   1.7718   1.8765   1.9395   2.6098   3.2481   3.8975
     8.4878   9.1541   9.3491   9.7702  11.4089

     occupation numbers 
     1.0000   1.0000   1.0000   1.0000   1.0000   1.0000   1.0000   1.0000
     1.0000   1.0000   1.0000   1.0000   1.0000   1.0000   1.0000   1.0000
    -0.0000  -0.0000  -0.0000  -0.0000  -0.0000

          k = 0.0000 0.0000 0.1083 (  3271 PWs)   bands (ev):

   -49.8544 -26.1460 -25.7900 -25.7092 -12.4410  -9.4817  -8.8252   0.6931
     2.5080   2.7043   2.8461   3.0092   3.4241   3.8601   4.1592   4.2639
     5.5431   7.1811   7.3460   8.7143   9.4250

     occupation numbers 
     1.0000   1.0000   1.0000   1.0000   1.0000   1.0000   1.0000   1.0000
     1.0000   1.0000   1.0000   1.0000   1.0000   1.0000   1.0000   1.0000
     1.0000  -0.0000  -0.0000  -0.0000  -0.0000

          k = 0.5990 0.3435 0.1625 (  3270 PWs)   bands (ev):

   -49.8437 -26.1986 -25.8477 -25.7626 -11.9358  -9.0358  -8.8431   1.3508
     1.5412   1.7109   1.8858   2.0545   2.3831   2.8865   3.8195   4.0893
     7.2158   7.6849   7.8255   9.3334  10.9048

     occupation numbers 
     1.0000   1.0000   1.0000   1.0000   1.0000   1.0000   1.0000   1.0000
     1.0000   1.0000   1.0000   1.0000   1.0000   1.0000   1.0000   1.0000
    -0.0000  -0.0000  -0.0000  -0.0000  -0.0000

          k = 0.7986 0.5152 0.1625 (  3261 PWs)   bands (ev):

   -49.8389 -26.2496 -25.8982 -25.7510 -11.4875  -8.8949  -8.7733   0.5488
     1.0948   1.1165   1.6058   1.8941   2.4106   2.4736   3.5800   4.0389
     8.0175   8.3250   8.5125   9.6744  11.1981

     occupation numbers 
     1.0000   1.0000   1.0000   1.0000   1.0000   1.0000   1.0000   1.0000
     1.0000   1.0000   1.0000   1.0000   1.0000   1.0000   1.0000   1.0000
    -0.0000  -0.0000  -0.0000  -0.0000  -0.0000

          k = 0.9983 0.6869 0.1625 (  3268 PWs)   bands (ev):

   -49.8368 -26.2919 -25.9163 -25.7457 -11.1034  -8.8833  -8.6770  -0.3037
     0.6957   0.9171   1.6607   1.8985   2.1223   2.6438   3.2818   3.9476
     8.4839   8.8855   9.1163   9.7535  11.3277

     occupation numbers 
     1.0000   1.0000   1.0000   1.0000   1.0000   1.0000   1.0000   1.0000
     1.0000   1.0000   1.0000   1.0000   1.0000   1.0000   1.0000   1.0000
    -0.0000  -0.0000  -0.0000  -0.0000  -0.0000

          k = 1.1980 0.8586 0.1625 (  3262 PWs)   bands (ev):

   -49.8378 -26.3105 -25.8957 -25.7487 -10.9602  -8.8793  -8.7277  -0.6375
     0.7059   1.1352   1.5594   1.7681   2.3084   2.4566   3.3698   3.8514
     8.1180   9.1743   9.3804   9.6020  11.3727

     occupation numbers 
     1.0000   1.0000   1.0000   1.0000   1.0000   1.0000   1.0000   1.0000
     1.0000   1.0000   1.0000   1.0000   1.0000   1.0000   1.0000   1.0000
    -0.0000  -0.0000  -0.0000  -0.0000  -0.0000

          k =-0.5990-0.6869 0.1625 (  3276 PWs)   bands (ev):

   -49.8419 -26.2989 -25.8438 -25.7589 -11.1390  -8.9280  -8.8565  -0.3315
     1.1205   1.4302   1.6280   1.7208   2.0812   2.7649   3.6321   3.8104
     7.3243   8.9912   9.1866   9.3222  11.4494

     occupation numbers 
     1.0000   1.0000   1.0000   1.0000   1.0000   1.0000   1.0000   1.0000
     1.0000   1.0000   1.0000   1.0000   1.0000   1.0000   1.0000   1.0000
    -0.0000  -0.0000  -0.0000  -0.0000  -0.0000

          k =-0.3993-0.5152 0.1625 (  3263 PWs)   bands (ev):

   -49.8471 -26.2605 -25.7798 -25.7723 -11.5477  -9.1580  -8.8537   0.4981
     1.2431   1.5137   1.8286   2.1288   2.5426   3.1964   3.6574   3.9655
     6.5348   8.5734   8.6538   8.9647  11.1620

     occupation numbers 
     1.0000   1.0000   1.0000   1.0000   1.0000   1.0000   1.0000   1.0000
     1.0000   1.0000   1.0000   1.0000   1.0000   1.0000   1.0000   1.0000
     0.9990  -0.0000  -0.0000  -0.0000  -0.0000

          k = 0.0000-0.1717 0.1625 (  3268 PWs)   bands (ev):

   -49.8540 -26.1640 -25.7894 -25.7086 -12.3253  -9.4481  -8.8480   0.7726
     2.2148   2.5364   2.5740   3.2189   3.3086   3.6604   4.0445   4.1596
     5.5642   7.4632   7.5486   8.7607   9.7183

     occupation numbers 
     1.0000   1.0000   1.0000   1.0000   1.0000   1.0000   1.0000   1.0000
     1.0000   1.0000   1.0000   1.0000   1.0000   1.0000   1.0000   1.0000
     1.0000  -0.0000  -0.0000  -0.0000  -0.0000

          k = 0.1997 0.0000 0.1625 (  3269 PWs)   bands (ev):

   -49.8530 -26.1444 -25.7864 -25.7300 -12.4296  -9.4120  -8.8475   0.8520
     2.3571   2.6408   2.8635   3.0948   3.1953   3.7460   4.0012   4.0842
     5.8517   7.1127   7.3227   8.7272   9.7161

     occupation numbers 
     1.0000   1.0000   1.0000   1.0000   1.0000   1.0000   1.0000   1.0000
     1.0000   1.0000   1.0000   1.0000   1.0000   1.0000   1.0000   1.0000
     1.0000  -0.0004  -0.0000  -0.0000  -0.0000

          k = 0.7986 0.3435 0.2166 (  3274 PWs)   bands (ev):

   -49.8401 -26.1941 -25.9005 -25.7530 -11.9076  -8.9372  -8.7828   0.9762
     1.3727   1.5567   1.7766   2.0195   2.6313   2.8759   3.7440   4.0601
     7.4859   7.7132   8.0940   9.6430  10.7464

     occupation numbers 
     1.0000   1.0000   1.0000   1.0000   1.0000   1.0000   1.0000   1.0000
     1.0000   1.0000   1.0000   1.0000   1.0000   1.0000   1.0000   1.0000
    -0.0000  -0.0000  -0.0000  -0.0000  -0.0000

          k = 0.9983 0.5152 0.2166 (  3271 PWs)   bands (ev):

   -49.8377 -26.2478 -25.9182 -25.7473 -11.4771  -8.9038  -8.6997   0.5511
     0.8633   0.9978   1.5532   1.8928   2.4482   2.7611   3.4311   4.0261
     8.2172   8.4787   8.4874   9.7444  11.0996

     occupation numbers 
     1.0000   1.0000   1.0000   1.0000   1.0000   1.0000   1.0000   1.0000
     1.0000   1.0000   1.0000   1.0000   1.0000   1.0000   1.0000   1.0000
    -0.0000  -0.0000  -0.0000  -0.0000  -0.0000

          k = 1.1980 0.6869 0.2166 (  3271 PWs)   bands (ev):

   -49.8382 -26.2938 -25.8964 -25.7493 -11.1132  -8.8959  -8.7269  -0.3115
     0.8029   1.0925   1.4895   1.8450   2.3923   2.5377   3.4135   3.8698
     8.1202   8.9142   9.1425   9.5753  11.2900

     occupation numbers 
     1.0000   1.0000   1.0000   1.0000   1.0000   1.0000   1.0000   1.0000
     1.0000   1.0000   1.0000   1.0000   1.0000   1.0000   1.0000   1.0000
    -0.0000  -0.0000  -0.0000  -0.0000  -0.0000

          k = 1.3976 0.8586 0.2166 (  3278 PWs)   bands (ev):

   -49.8416 -26.3157 -25.8432 -25.7583 -10.9851  -8.8900  -8.8783  -0.6557
     0.9972   1.3314   1.6399   1.6859   2.1561   2.8004   3.6314   3.6710
     7.3532   9.1079   9.3917   9.4415  11.4716

     occupation numbers 
     1.0000   1.0000   1.0000   1.0000   1.0000   1.0000   1.0000   1.0000
     1.0000   1.0000   1.0000   1.0000   1.0000   1.0000   1.0000   1.0000
    -0.0000  -0.0000  -0.0000  -0.0000  -0.0000

          k =-0.3993-0.6869 0.2166 (  3273 PWs)   bands (ev):

   -49.8464 -26.3051 -25.7781 -25.7707 -11.1702  -9.0897  -8.8837  -0.3556
     1.0926   1.4821   1.6088   1.9878   2.5668   3.1012   3.5505   3.8819
     6.5874   8.8622   9.2341   9.2767  11.3640

     occupation numbers 
     1.0000   1.0000   1.0000   1.0000   1.0000   1.0000   1.0000   1.0000
     1.0000   1.0000   1.0000   1.0000   1.0000   1.0000   1.0000   1.0000
     0.8786  -0.0000  -0.0000  -0.0000  -0.0000

          k =-0.0000-0.3435 0.2166 (  3271 PWs)   bands (ev):

   -49.8532 -26.2106 -25.7876 -25.7071 -12.0089  -9.3823  -8.8786   0.8799
     1.5934   1.7253   2.5831   2.9734   3.0222   3.4782   4.0186   4.0814
     5.6013   8.0563   8.1223   8.8216  10.2429

     occupation numbers 
     1.0000   1.0000   1.0000   1.0000   1.0000   1.0000   1.0000   1.0000
     1.0000   1.0000   1.0000   1.0000   1.0000   1.0000   1.0000   1.0000
     1.0000  -0.0000  -0.0000  -0.0000  -0.0000

          k = 0.1997-0.1717 0.2166 (  3264 PWs)   bands (ev):

   -49.8526 -26.1623 -25.7857 -25.7294 -12.3140  -9.3744  -8.8739   0.9411
     2.2449   2.3613   2.5915   3.0372   3.1925   3.5706   3.8909   4.0624
     5.8807   7.3821   7.5270   8.7489  10.0152

     occupation numbers 
     1.0000   1.0000   1.0000   1.0000   1.0000   1.0000   1.0000   1.0000
     1.0000   1.0000   1.0000   1.0000   1.0000   1.0000   1.0000   1.0000
     1.0000  -0.0000  -0.0000  -0.0000  -0.0000

          k = 0.3993 0.0000 0.2166 (  3261 PWs)   bands (ev):

   -49.8493 -26.1401 -25.7840 -25.7768 -12.4004  -9.2571  -8.8639   1.1138
     2.0800   2.2650   2.6841   2.9259   3.2877   3.5402   3.8700   3.9418
     6.4806   6.9533   7.1899   8.8503  10.0102

     occupation numbers 
     1.0000   1.0000   1.0000   1.0000   1.0000   1.0000   1.0000   1.0000
     1.0000   1.0000   1.0000   1.0000   1.0000   1.0000   1.0000   1.0000
     1.0350  -0.0175  -0.0000  -0.0000  -0.0000

          k = 0.9983 0.3435 0.2708 (  3282 PWs)   bands (ev):

   -49.8388 -26.1923 -25.9206 -25.7494 -11.8969  -8.9289  -8.7273   0.7523
     1.3497   1.5289   1.7556   1.9108   2.7306   3.0591   3.6524   4.0379
     7.4627   7.6690   8.4632   9.7267  10.6897

     occupation numbers 
     1.0000   1.0000   1.0000   1.0000   1.0000   1.0000   1.0000   1.0000
     1.0000   1.0000   1.0000   1.0000   1.0000   1.0000   1.0000   1.0000
    -0.0000  -0.0000  -0.0000  -0.0000  -0.0000

          k = 1.1980 0.5152 0.2708 (  3267 PWs)   bands (ev):

   -49.8390 -26.2496 -25.8983 -25.7510 -11.4874  -8.9180  -8.7481   0.5480
     1.0415   1.1085   1.4579   1.9632   2.5030   2.6222   3.5632   3.9792
     8.0689   8.2971   8.5148   9.5914  11.1043

     occupation numbers 
     1.0000   1.0000   1.0000   1.0000   1.0000   1.0000   1.0000   1.0000
     1.0000   1.0000   1.0000   1.0000   1.0000   1.0000   1.0000   1.0000
    -0.0000  -0.0000  -0.0000  -0.0000  -0.0000

          k = 1.3976 0.6869 0.2708 (  3276 PWs)   bands (ev):

   -49.8419 -26.2989 -25.8438 -25.7589 -11.1389  -8.9316  -8.8523  -0.3317
     1.0912   1.3783   1.6387   1.6658   2.2136   2.8203   3.6288   3.7615
     7.3453   8.9608   9.1999   9.2925  11.4132

     occupation numbers 
     1.0000   1.0000   1.0000   1.0000   1.0000   1.0000   1.0000   1.0000
     1.0000   1.0000   1.0000   1.0000   1.0000   1.0000   1.0000   1.0000
    -0.0000  -0.0000  -0.0000  -0.0000  -0.0000

          k = 1.5973 0.8586 0.2708 (  3276 PWs)   bands (ev):

   -49.8461 -26.3220 -25.7775 -25.7700 -11.0153  -9.0551  -8.9043  -0.6780
     1.0123   1.3914   1.6983   1.8772   2.6005   3.0313   3.5269   3.8469
     6.6069   8.8651   9.4661   9.5033  11.4260

     occupation numbers 
     1.0000   1.0000   1.0000   1.0000   1.0000   1.0000   1.0000   1.0000
     1.0000   1.0000   1.0000   1.0000   1.0000   1.0000   1.0000   1.0000
     0.8076  -0.0000  -0.0000  -0.0000  -0.0000

          k = 0.0000-0.5152 0.2708 (  3269 PWs)   bands (ev):

   -49.8522 -26.2671 -25.7855 -25.7052 -11.5841  -9.3020  -8.9143   0.4598
     0.9435   1.4164   2.4756   2.6291   2.7034   3.4083   3.9353   4.1114
     5.6470   8.7208   8.8519   8.8846  10.6902

     occupation numbers 
     1.0000   1.0000   1.0000   1.0000   1.0000   1.0000   1.0000   1.0000
     1.0000   1.0000   1.0000   1.0000   1.0000   1.0000   1.0000   1.0000
     1.0000  -0.0000  -0.0000  -0.0000  -0.0000

          k = 0.1997-0.3435 0.2708 (  3263 PWs)   bands (ev):

   -49.8518 -26.2088 -25.7840 -25.7278 -11.9979  -9.3067  -8.9050   1.0405
     1.6068   1.8221   2.2882   2.7821   2.9777   3.4717   3.6499   4.1631
     5.9242   8.0365   8.0387   8.7907  10.5300

     occupation numbers 
     1.0000   1.0000   1.0000   1.0000   1.0000   1.0000   1.0000   1.0000
     1.0000   1.0000   1.0000   1.0000   1.0000   1.0000   1.0000   1.0000
     1.0000  -0.0000  -0.0000  -0.0000  -0.0000

          k = 0.3993-0.1717 0.2708 (  3263 PWs)   bands (ev):

   -49.8490 -26.1580 -25.7834 -25.7761 -12.2851  -9.2247  -8.8823   1.1698
     1.9898   2.2274   2.4608   2.6325   3.1436   3.3307   3.8226   4.0663
     6.5170   7.1968   7.4059   8.8146  10.2792

     occupation numbers 
[...]

   -49.8539 -26.1640 -25.7894 -25.7086 -12.3241  -9.3162  -9.0037   1.1909
     2.2434   2.5489   2.6498   2.7564   3.2614   3.4992   3.9930   4.0054
     5.5909   7.4628   7.6296   8.9563  10.0746

     occupation numbers 
     1.0000   1.0000   1.0000   1.0000   1.0000   1.0000   1.0000   1.0000
     1.0000   1.0000   1.0000   1.0000   1.0000   1.0000   1.0000   1.0000
     1.0000  -0.0000  -0.0000  -0.0000  -0.0000

          k = 0.1997 0.0000 0.3791 (  3262 PWs)   bands (ev):

   -49.8529 -26.1444 -25.7864 -25.7300 -12.4285  -9.2929  -8.9862   1.2403
     2.1408   2.6344   2.7942   3.0656   3.3229   3.5799   3.8727   3.9057
     5.9296   7.0947   7.4188   8.8053   9.8991

     occupation numbers 
     1.0000   1.0000   1.0000   1.0000   1.0000   1.0000   1.0000   1.0000
     1.0000   1.0000   1.0000   1.0000   1.0000   1.0000   1.0000   1.0000
     1.0000  -0.0008  -0.0000  -0.0000  -0.0000

          k =-1.9966-0.3435-0.1083 (  3265 PWs)   bands (ev):

   -49.8532 -26.2106 -25.7877 -25.7071 -12.0078  -9.2369  -9.0439   1.2157
     1.6563   1.9028   2.3624   2.6815   3.0048   3.1696   3.8681   4.2748
     5.6219   8.0820   8.1212   8.9801  10.5942

     occupation numbers 
     1.0000   1.0000   1.0000   1.0000   1.0000   1.0000   1.0000   1.0000
     1.0000   1.0000   1.0000   1.0000   1.0000   1.0000   1.0000   1.0000
     1.0000  -0.0000  -0.0000  -0.0000  -0.0000

          k =-1.7969-0.1717-0.1083 (  3260 PWs)   bands (ev):

   -49.8526 -26.1623 -25.7858 -25.7294 -12.3130  -9.2406  -9.0257   1.3579
     1.9991   2.4568   2.5466   2.9327   3.0954   3.4870   3.7592   4.0301
     5.9464   7.3740   7.5846   8.8393  10.1985

     occupation numbers 
     1.0000   1.0000   1.0000   1.0000   1.0000   1.0000   1.0000   1.0000
     1.0000   1.0000   1.0000   1.0000   1.0000   1.0000   1.0000   1.0000
     1.0000  -0.0000  -0.0000  -0.0000  -0.0000

          k =-1.5973 0.0000-0.1083 (  3279 PWs)   bands (ev):

   -49.8495 -26.1401 -25.7841 -25.7768 -12.3997  -9.1805  -8.9477   1.3115
     1.7490   2.3133   2.6747   2.8583   3.5152   3.6465   3.7775   3.8645
     6.6032   6.9020   7.2278   8.6914   9.9391

     occupation numbers 
     1.0000   1.0000   1.0000   1.0000   1.0000   1.0000   1.0000   1.0000
     1.0000   1.0000   1.0000   1.0000   1.0000   1.0000   1.0000   1.0000
     0.8223  -0.0313  -0.0000  -0.0000  -0.0000

          k = 0.0000 1.2021-0.0542 (  3263 PWs)   bands (ev):

   -49.8521 -26.2672 -25.7855 -25.7052 -11.5833  -9.1697  -9.0594   0.4544
     1.2474   1.4288   2.3360   2.6900   2.7010   2.9346   3.8342   4.3492
     5.6567   8.7265   8.8615   8.9722  10.8953

     occupation numbers 
     1.0000   1.0000   1.0000   1.0000   1.0000   1.0000   1.0000   1.0000
     1.0000   1.0000   1.0000   1.0000   1.0000   1.0000   1.0000   1.0000
     1.0000  -0.0000  -0.0000  -0.0000  -0.0000

          k =-1.7969-0.3435-0.0542 (  3261 PWs)   bands (ev):

   -49.8517 -26.2088 -25.7840 -25.7278 -11.9971  -9.1637  -9.0614   1.3199
     1.7058   1.9026   2.0013   2.7138   2.9591   3.2688   3.5059   4.2891
     5.9727   8.0366   8.0399   8.8718  10.7109

     occupation numbers 
     1.0000   1.0000   1.0000   1.0000   1.0000   1.0000   1.0000   1.0000
     1.0000   1.0000   1.0000   1.0000   1.0000   1.0000   1.0000   1.0000
     1.0000  -0.0000  -0.0000  -0.0000  -0.0000

          k =-1.5973-0.1717-0.0542 (  3275 PWs)   bands (ev):

   -49.8491 -26.1580 -25.7835 -25.7762 -12.2845  -9.1505  -8.9623   1.3811
     1.6454   2.2775   2.4968   2.6147   3.2883   3.3325   3.6976   4.1018
     6.6230   7.1745   7.4181   8.6976  10.2143

     occupation numbers 
     1.0000   1.0000   1.0000   1.0000   1.0000   1.0000   1.0000   1.0000
     1.0000   1.0000   1.0000   1.0000   1.0000   1.0000   1.0000   1.0000
     0.7399  -0.0001  -0.0000  -0.0000  -0.0000

          k =-1.3976 0.0000-0.0542 (  3275 PWs)   bands (ev):

   -49.8449 -26.1349 -25.8502 -25.7650 -12.3641  -9.0966  -8.8354   1.1152
     1.2842   2.0552   2.5487   2.9651   3.6155   3.6351   3.7911   3.8752
     6.7364   6.9352   7.3821   8.8776   9.7959

     occupation numbers 
     1.0000   1.0000   1.0000   1.0000   1.0000   1.0000   1.0000   1.0000
     1.0000   1.0000   1.0000   1.0000   1.0000   1.0000   1.0000   1.0000
     0.1915  -0.0224  -0.0000  -0.0000  -0.0000

          k =-0.0000 1.0304-0.0000 (  3268 PWs)   bands (ev):

   -49.8513 -26.3121 -25.7838 -25.7037 -11.2040  -9.1882  -8.9972  -0.3832
     0.9828   1.1672   2.4677   2.5280   2.6859   2.7900   3.8674   4.2847
     5.6789   8.9348   9.3112   9.4405  10.9490

     occupation numbers 
     1.0000   1.0000   1.0000   1.0000   1.0000   1.0000   1.0000   1.0000
     1.0000   1.0000   1.0000   1.0000   1.0000   1.0000   1.0000   1.0000
     1.0000  -0.0000  -0.0000  -0.0000  -0.0000

          k = 0.1997 1.2021-0.0000 (  3275 PWs)   bands (ev):

   -49.8509 -26.2653 -25.7819 -25.7260 -11.5732  -9.1043  -9.0678   0.4643
     1.3868   1.4009   2.0370   2.4025   2.9646   3.1285   3.4055   4.3118
     5.9940   8.6447   8.7857   8.9292  11.0316

     occupation numbers 
     1.0000   1.0000   1.0000   1.0000   1.0000   1.0000   1.0000   1.0000
     1.0000   1.0000   1.0000   1.0000   1.0000   1.0000   1.0000   1.0000
     1.0000  -0.0000  -0.0000  -0.0000  -0.0000

          k =-1.5973-0.3435-0.0000 (  3283 PWs)   bands (ev):

   -49.8484 -26.2043 -25.7818 -25.7745 -11.9694  -9.1002  -8.9705   1.4144
     1.4336   1.8243   2.1036   2.1561   2.9357   3.1762   3.5229   4.2185
     6.6375   7.8415   7.9423   8.7474  10.7435

     occupation numbers 
     1.0000   1.0000   1.0000   1.0000   1.0000   1.0000   1.0000   1.0000
     1.0000   1.0000   1.0000   1.0000   1.0000   1.0000   1.0000   1.0000
     0.6722  -0.0000  -0.0000  -0.0000  -0.0000

          k =-1.3976-0.1717-0.0000 (  3272 PWs)   bands (ev):

   -49.8446 -26.1526 -25.8495 -25.7643 -12.2493  -9.0832  -8.8327   1.1288
     1.2956   1.9239   2.4742   2.7046   3.1983   3.4621   3.7413   4.0503
     6.9910   7.1894   7.3939   8.8834  10.0668

     occupation numbers 
     1.0000   1.0000   1.0000   1.0000   1.0000   1.0000   1.0000   1.0000
     1.0000   1.0000   1.0000   1.0000   1.0000   1.0000   1.0000   1.0000
    -0.0092  -0.0000  -0.0000  -0.0000  -0.0000

          k =-1.1980 0.0000-0.0000 (  3287 PWs)   bands (ev):

   -49.8414 -26.1306 -25.9031 -25.7553 -12.3355  -9.0253  -8.7456   0.8321
     1.0564   1.9931   2.3472   3.1173   3.4866   3.6404   3.7765   3.9457
     6.6706   6.6781   8.1274   9.3505   9.6742

     occupation numbers 
     1.0000   1.0000   1.0000   1.0000   1.0000   1.0000   1.0000   1.0000
     1.0000   1.0000   1.0000   1.0000   1.0000   1.0000   1.0000   1.0000
     0.5052   0.4660  -0.0000  -0.0000  -0.0000

          k = 0.0000 0.0000 0.4332 (  3242 PWs)   bands (ev):

   -49.8541 -26.1459 -25.7900 -25.7091 -12.4393  -9.2865  -9.0544   1.3261
     2.2672   2.6732   2.7607   3.3243   3.3273   3.3460   3.8276   4.0698
     5.5824   7.1820   7.5083   8.9971   9.8637

     occupation numbers 
     1.0000   1.0000   1.0000   1.0000   1.0000   1.0000   1.0000   1.0000
     1.0000   1.0000   1.0000   1.0000   1.0000   1.0000   1.0000   1.0000
     1.0000  -0.0000  -0.0000  -0.0000  -0.0000

          k =-1.9966-0.1717-0.0542 (  3257 PWs)   bands (ev):

   -49.8539 -26.1640 -25.7894 -25.7086 -12.3237  -9.2291  -9.0981   1.4091
     2.1639   2.5102   2.6323   2.6938   3.2381   3.4800   3.9586   3.9651
     5.5947   7.4628   7.6574   9.0165  10.1719

     occupation numbers 
     1.0000   1.0000   1.0000   1.0000   1.0000   1.0000   1.0000   1.0000
     1.0000   1.0000   1.0000   1.0000   1.0000   1.0000   1.0000   1.0000
     1.0000  -0.0000  -0.0000  -0.0000  -0.0000

          k =-1.7969 0.0000-0.0542 (  3260 PWs)   bands (ev):

   -49.8529 -26.1444 -25.7864 -25.7300 -12.4282  -9.2218  -9.0634   1.4869
     1.8957   2.6924   2.7810   3.0115   3.4225   3.5548   3.7707   3.8614
     5.9456   7.0914   7.4458   8.8496   9.9303

     occupation numbers 
     1.0000   1.0000   1.0000   1.0000   1.0000   1.0000   1.0000   1.0000
     1.0000   1.0000   1.0000   1.0000   1.0000   1.0000   1.0000   1.0000
     1.0000  -0.0008  -0.0000  -0.0000  -0.0000

          k = 0.0000 1.3738 0.0000 (  3276 PWs)   bands (ev):

   -49.8533 -26.2106 -25.7877 -25.7071 -12.0076  -9.1530  -9.1312   1.2880
     1.7152   1.9119   2.2368   2.7018   2.9998   3.1062   3.8411   4.2982
     5.6251   8.0896   8.1211   9.0070  10.6511

     occupation numbers 
     1.0000   1.0000   1.0000   1.0000   1.0000   1.0000   1.0000   1.0000
     1.0000   1.0000   1.0000   1.0000   1.0000   1.0000   1.0000   1.0000
     1.0000  -0.0000  -0.0000  -0.0000  -0.0000

          k =-1.7969-0.1717 0.0000 (  3268 PWs)   bands (ev):

   -49.8527 -26.1623 -25.7858 -25.7294 -12.3128  -9.1883  -9.0811   1.5169
     1.8497   2.4914   2.5221   2.9569   3.0591   3.4763   3.7339   4.0211
     5.9555   7.3729   7.5937   8.8622  10.2201

     occupation numbers 
     1.0000   1.0000   1.0000   1.0000   1.0000   1.0000   1.0000   1.0000
     1.0000   1.0000   1.0000   1.0000   1.0000   1.0000   1.0000   1.0000
     1.0000  -0.0000  -0.0000  -0.0000  -0.0000

          k =-1.5973 0.0000 0.0000 (  3293 PWs)   bands (ev):

   -49.8496 -26.1401 -25.7841 -25.7769 -12.3995  -9.1609  -8.9684   1.3970
     1.6319   2.3398   2.6667   2.8497   3.5910   3.6820   3.7096   3.8418
     6.6250   6.8948   7.2328   8.6724   9.9195

     occupation numbers 
     1.0000   1.0000   1.0000   1.0000   1.0000   1.0000   1.0000   1.0000
     1.0000   1.0000   1.0000   1.0000   1.0000   1.0000   1.0000   1.0000
     0.7309  -0.0329  -0.0000  -0.0000  -0.0000

          k =-1.9966-1.7173-0.5415 (  3234 PWs)   bands (ev):

   -49.8540 -26.1460 -25.7901 -25.7091 -12.4391  -9.2220  -9.1229   1.4833
     2.1151   2.6992   2.7552   3.3052   3.3104   3.3854   3.7639   4.0488
     5.5825   7.1821   7.5270   9.0305   9.9054

     occupation numbers 
     1.0000   1.0000   1.0000   1.0000   1.0000   1.0000   1.0000   1.0000
     1.0000   1.0000   1.0000   1.0000   1.0000   1.0000   1.0000   1.0000
     1.0000  -0.0000  -0.0000  -0.0000  -0.0000

     the Fermi energy is     6.6716 ev

!    total energy              =    -534.95983114 Ry

     total all-electron energy =     -9636.850074 Ry
     estimated scf accuracy    <          1.5E-11 Ry
     smearing contrib. (-TS)   =      -0.00010307 Ry
     internal energy E=F+TS    =    -534.95972807 Ry

     The total energy is F=E-TS. E is the sum of the following terms:
     one-electron contribution =     -93.91136604 Ry
     hartree contribution      =      61.19402451 Ry
     xc contribution           =     -39.53691653 Ry
     ewald contribution        =    -135.48921389 Ry
     one-center paw contrib.   =    -327.21625612 Ry
      -> PAW hartree energy AE =      28.96071795 Ry
      -> PAW hartree energy PS =     -28.93061274 Ry
      -> PAW xc energy AE      =     -17.02134292 Ry
      -> PAW xc energy PS      =       7.39675280 Ry
      -> total E_H with PAW    =      61.22412972 Ry
      -> total E_XC with PAW   =     -49.16150666 Ry

     convergence has been achieved in  13 iterations

     Forces acting on atoms (cartesian axes, Ry/au):

     atom    1 type  1   force =     0.00000000    0.00000000    0.00000000
     atom    2 type  2   force =     0.00000000    0.00000000    0.03542218
     atom    3 type  2   force =    -0.00000000   -0.00000000   -0.03542218
     atom    4 type  3   force =    -0.00000000   -0.00000000    0.00000000
     The non-local contrib.  to forces
     atom    1 type  1   force =     0.00000000    0.00000000    0.00000000
     atom    2 type  2   force =     0.00000000    0.00000000    0.11167997
     atom    3 type  2   force =    -0.00000000   -0.00000000   -0.11167997
     atom    4 type  3   force =     0.00000000    0.00000000    0.00000000
     The ionic contribution  to forces
     atom    1 type  1   force =    -0.00000000   -0.00000000    0.00000000
     atom    2 type  2   force =     0.00000001    0.00000000  -10.07462875
     atom    3 type  2   force =    -0.00000001   -0.00000000   10.07462875
     atom    4 type  3   force =    -0.00000000   -0.00000000    0.00000000
     The local contribution  to forces
     atom    1 type  1   force =    -0.00000000    0.00000000    0.00000000
     atom    2 type  2   force =     0.00000002   -0.00000003    9.99757858
     atom    3 type  2   force =    -0.00000002    0.00000003   -9.99757858
     atom    4 type  3   force =    -0.00000000   -0.00000000    0.00000000
     The core correction contribution to forces
     atom    1 type  1   force =     0.00000000    0.00000000    0.00000000
     atom    2 type  2   force =    -0.00000000    0.00000000    0.00079204
     atom    3 type  2   force =     0.00000000   -0.00000000   -0.00079204
     atom    4 type  3   force =    -0.00000000   -0.00000000   -0.00000000
     The Hubbard contrib.    to forces
     atom    1 type  1   force =     0.00000000    0.00000000    0.00000000
     atom    2 type  2   force =     0.00000000    0.00000000    0.00000000
     atom    3 type  2   force =     0.00000000    0.00000000    0.00000000
     atom    4 type  3   force =     0.00000000    0.00000000    0.00000000
     The SCF correction term to forces
     atom    1 type  1   force =     0.00000000    0.00000000   -0.00000000
     atom    2 type  2   force =     0.00000000   -0.00000000    0.00000035
     atom    3 type  2   force =    -0.00000000    0.00000000   -0.00000035
     atom    4 type  3   force =     0.00000000    0.00000000   -0.00000000

     Total force =     0.050095     Total SCF correction =     0.000000


     Computing stress (Cartesian axis) and pressure

          total   stress  (Ry/bohr**3)                   (kbar)     P=      -42.15
  -0.00030219   0.00000000   0.00000000          -44.45        0.00        0.00
   0.00000000  -0.00028098   0.00000000            0.00      -41.33        0.00
   0.00000000   0.00000000  -0.00027649            0.00        0.00      -40.67

     kinetic stress (kbar)  14777.57      0.00      0.00
                                0.00  14771.80      0.00
                                0.00      0.00  14792.88

     local   stress (kbar) -18921.26      0.00      0.00
                                0.00 -24130.62      0.00
                                0.00      0.00   4077.12

     nonloc. stress (kbar)   7999.12      0.00      0.00
                                0.00   7924.10      0.00
                                0.00     -0.00   7997.37

     hartree stress (kbar)   8384.58     -0.00     -0.00
                               -0.00  10084.81     -0.00
                               -0.00     -0.00  -2040.41

     exc-cor stress (kbar)  -1130.18      0.00     -0.00
                                0.00  -1121.51     -0.00
                               -0.00     -0.00  -1129.76

     corecor stress (kbar)  -2029.15     -0.00      0.00
                               -0.00  -2028.47      0.00
                                0.00      0.00  -2029.17

     ewald   stress (kbar)  -9125.13     -0.00     -0.00
                               -0.00  -5541.44     -0.00
                               -0.00     -0.00 -21708.70

     hubbard stress (kbar)      0.00      0.00      0.00
                                0.00      0.00      0.00
                                0.00      0.00      0.00

     DFT-D   stress (kbar)      0.00      0.00      0.00
                                0.00      0.00      0.00
                                0.00      0.00      0.00

     XDM     stress (kbar)      0.00      0.00      0.00
                                0.00      0.00      0.00
                                0.00      0.00      0.00

     dft-nl  stress (kbar)      0.00      0.00      0.00
                                0.00      0.00      0.00
                                0.00      0.00      0.00

     TS-vdW  stress (kbar)      0.00      0.00      0.00
                                0.00      0.00      0.00
                                0.00      0.00      0.00



     Writing output data file /zfs_data/gutierre/Scratch/Cl2NbO/convergence/cutoff/10x10x10/50/tmp/Cl2NbO.save/
 
     init_run     :      1.71s CPU      1.80s WALL (       1 calls)
     electrons    :     47.25s CPU     49.29s WALL (       1 calls)
     forces       :      0.28s CPU      0.28s WALL (       1 calls)
     stress       :      0.62s CPU      0.62s WALL (       1 calls)

     Called by init_run:
     wfcinit      :      1.35s CPU      1.42s WALL (       1 calls)
     wfcinit:atom :      0.01s CPU      0.01s WALL (     171 calls)
     wfcinit:wfcr :      1.32s CPU      1.38s WALL (     171 calls)
     potinit      :      0.15s CPU      0.15s WALL (       1 calls)
     hinit0       :      0.15s CPU      0.16s WALL (       1 calls)

     Called by electrons:
     c_bands      :     38.41s CPU     40.14s WALL (      13 calls)
     sum_band     :      7.63s CPU      7.91s WALL (      13 calls)
     v_of_rho     :      0.25s CPU      0.26s WALL (      14 calls)
     v_h          :      0.02s CPU      0.02s WALL (      14 calls)
     v_xc         :      0.26s CPU      0.27s WALL (      16 calls)
     newd         :      0.26s CPU      0.27s WALL (      14 calls)
     PAW_pot      :      0.73s CPU      0.75s WALL (      14 calls)
     mix_rho      :      0.03s CPU      0.03s WALL (      13 calls)

     Called by c_bands:
     init_us_2    :      0.31s CPU      0.33s WALL (    4959 calls)
     cegterg      :     37.51s CPU     39.15s WALL (    2223 calls)

     Called by sum_band:
     sum_band:wei :      0.07s CPU      0.08s WALL (      13 calls)
     sum_band:loo :      7.26s CPU      7.52s WALL (      13 calls)
     sum_band:buf :      0.03s CPU      0.03s WALL (    2223 calls)
     sum_band:ini :      0.13s CPU      0.14s WALL (    2223 calls)
     sum_band:cal :      0.19s CPU      0.20s WALL (    2223 calls)
     sum_band:bec :      0.04s CPU      0.05s WALL (    2223 calls)
     addusdens    :      0.26s CPU      0.27s WALL (      13 calls)
     addusd:skk   :      0.00s CPU      0.00s WALL (      39 calls)
     addusd:dgemm :      0.07s CPU      0.08s WALL (      39 calls)
     addusd:qvan2 :      0.17s CPU      0.17s WALL (      39 calls)

     Called by *egterg:
     cdiaghg      :      4.27s CPU      4.51s WALL (    7945 calls)
     cegterg:over :      0.52s CPU      0.54s WALL (    5722 calls)
     cegterg:upda :      0.13s CPU      0.14s WALL (    5722 calls)
     cegterg:last :      0.20s CPU      0.21s WALL (    4330 calls)
     h_psi        :     32.69s CPU     34.09s WALL (    8116 calls)
     s_psi        :      0.20s CPU      0.21s WALL (    8116 calls)
     g_psi        :      0.04s CPU      0.04s WALL (    5722 calls)

     Called by h_psi:
     h_psi:calbec :      0.60s CPU      0.63s WALL (    8116 calls)
     vloc_psi     :     31.71s CPU     33.06s WALL (    8116 calls)
     add_vuspsi   :      0.26s CPU      0.28s WALL (    8116 calls)

     General routines
     calbec       :      0.80s CPU      0.83s WALL (   11194 calls)
     fft          :      0.17s CPU      0.17s WALL (     205 calls)
     ffts         :      0.01s CPU      0.01s WALL (      27 calls)
     fftw         :     35.23s CPU     36.71s WALL (  281117 calls)
     interpolate  :      0.02s CPU      0.02s WALL (      14 calls)
 
     Parallel routines
     fft_scatt_xy :      4.10s CPU      4.26s WALL (  281349 calls)
     fft_scatt_yz :     21.30s CPU     22.16s WALL (  281349 calls)

     PAW routines
     PAW_pot      :      0.73s CPU      0.75s WALL (      14 calls)
     PAW_symme    :      0.01s CPU      0.01s WALL (      27 calls)
 
     PWSCF        :     50.87s CPU     53.75s WALL

 
   This run was terminated on:  15:54:59  18May2022            

=------------------------------------------------------------------------------=
   JOB DONE.
=------------------------------------------------------------------------------=
