MPI startup(): Warning: I_MPI_PMI_LIBRARY will be ignored since the hydra process manager was found
MPI startup(): Warning: I_MPI_PMI_LIBRARY will be ignored since the hydra process manager was found
MPI startup(): Warning: I_MPI_PMI_LIBRARY will be ignored since the hydra process manager was found
MPI startup(): Warning: I_MPI_PMI_LIBRARY will be ignored since the hydra process manager was found
MPI startup(): Warning: I_MPI_PMI_LIBRARY will be ignored since the hydra process manager was found
MPI startup(): Warning: I_MPI_PMI_LIBRARY will be ignored since the hydra process manager was found
MPI startup(): Warning: I_MPI_PMI_LIBRARY will be ignored since the hydra process manager was found
MPI startup(): Warning: I_MPI_PMI_LIBRARY will be ignored since the hydra process manager was found
MPI startup(): Warning: I_MPI_PMI_LIBRARY will be ignored since the hydra process manager was found
MPI startup(): Warning: I_MPI_PMI_LIBRARY will be ignored since the hydra process manager was found
MPI startup(): Warning: I_MPI_PMI_LIBRARY will be ignored since the hydra process manager was found
MPI startup(): Warning: I_MPI_PMI_LIBRARY will be ignored since the hydra process manager was found
MPI startup(): Warning: I_MPI_PMI_LIBRARY will be ignored since the hydra process manager was found
MPI startup(): Warning: I_MPI_PMI_LIBRARY will be ignored since the hydra process manager was found
MPI startup(): Warning: I_MPI_PMI_LIBRARY will be ignored since the hydra process manager was found
MPI startup(): Warning: I_MPI_PMI_LIBRARY will be ignored since the hydra process manager was found
MPI startup(): Warning: I_MPI_PMI_LIBRARY will be ignored since the hydra process manager was found
MPI startup(): Warning: I_MPI_PMI_LIBRARY will be ignored since the hydra process manager was found
MPI startup(): Warning: I_MPI_PMI_LIBRARY will be ignored since the hydra process manager was found
MPI startup(): Warning: I_MPI_PMI_LIBRARY will be ignored since the hydra process manager was found
MPI startup(): Warning: I_MPI_PMI_LIBRARY will be ignored since the hydra process manager was found
MPI startup(): Warning: I_MPI_PMI_LIBRARY will be ignored since the hydra process manager was found
MPI startup(): Warning: I_MPI_PMI_LIBRARY will be ignored since the hydra process manager was found
MPI startup(): Warning: I_MPI_PMI_LIBRARY will be ignored since the hydra process manager was found

     Program PWSCF v.6.7MaX starts on  1Aug2021 at 12:29:25 

     This program is part of the open-source Quantum ESPRESSO suite
     for quantum simulation of materials; please cite
         "P. Giannozzi et al., J. Phys.:Condens. Matter 21 395502 (2009);
         "P. Giannozzi et al., J. Phys.:Condens. Matter 29 465901 (2017);
          URL http://www.quantum-espresso.org", 
     in publications or presentations arising from this work. More details at
     http://www.quantum-espresso.org/quote

     Parallel version (MPI), running on    24 processors

     MPI processes distributed on     1 nodes
     R & G space division:  proc/nbgrp/npool/nimage =      24
     Waiting for input...
     Reading input from standard input

     Current dimensions of program PWSCF are:
     Max number of different atomic species (ntypx) = 10
     Max number of k-points (npk) =  40000
     Max angular momentum in pseudopotentials (lmaxx) =  3
     file Cr.rel-pbe-spn-kjpaw_psl.1.0.0.UPF: wavefunction(s)  3S 3P 3P 3D 3D renormalized
     file Si.rel-pbe-n-kjpaw_psl.1.0.0.UPF: wavefunction(s)  3S 3P 3P renormalized

     Subspace diagonalization in iterative solution of the eigenvalue problem:
     a serial algorithm will be used

     Message from routine setup:
     using ibrav=0 with symmetry is DISCOURAGED, use correct ibrav instead
 
     Parallelization info
     --------------------
     sticks:   dense  smooth     PW     G-vecs:    dense   smooth      PW
     Min         228      91     25                12702     3210     487
     Max         229      93     26                12704     3214     492
     Sum        5473    2201    621               304867    77053   11753
 


     bravais-lattice index     =            0
     lattice parameter (alat)  =       8.7475  a.u.
     unit-cell volume          =     669.3575 (a.u.)^3
     number of atoms/cell      =            8
     number of atomic types    =            2
     number of electrons       =        72.00
     number of Kohn-Sham states=           86
     kinetic-energy cutoff     =      90.0000  Ry
     charge density cutoff     =     900.0000  Ry
     scf convergence threshold =      1.0E-06
     mixing beta               =       0.7000
     number of iterations used =            8  plain     mixing
     Exchange-correlation= SLA  PW   PBX  PBC
                           (   1   4   3   4   0   0   0)
     Non magnetic calculation with spin-orbit


     celldm(1)=   8.747542  celldm(2)=   0.000000  celldm(3)=   0.000000
     celldm(4)=   0.000000  celldm(5)=   0.000000  celldm(6)=   0.000000

     crystal axes: (cart. coord. in units of alat)
               a(1) = (   1.000000   0.000000   0.000000 )  
               a(2) = (   0.000000   1.000000   0.000000 )  
               a(3) = (   0.000000   0.000000   1.000000 )  

     reciprocal axes: (cart. coord. in units 2 pi/alat)
               b(1) = (  1.000000  0.000000  0.000000 )  
               b(2) = (  0.000000  1.000000  0.000000 )  
               b(3) = (  0.000000  0.000000  1.000000 )  


     PseudoPot. # 1 for Cr read from file:
     ../../../../pseudo/Cr.rel-pbe-spn-kjpaw_psl.1.0.0.UPF
     MD5 check sum: 1e24e2b5251376a8b945118fca0c7981
     Pseudo is Projector augmented-wave + core cor, Zval = 14.0
     Generated using &quot;atomic&quot; code by A. Dal Corso  v.6.3
     Shape of augmentation charge: PSQ
     Using radial grid of 1183 points, 10 beta functions with: 
                l(1) =   0
                l(2) =   0
                l(3) =   1
                l(4) =   1
                l(5) =   1
                l(6) =   1
                l(7) =   2
                l(8) =   2
                l(9) =   2
               l(10) =   2
     Q(r) pseudized with 0 coefficients 


     PseudoPot. # 2 for Si read from file:
     ../../../../pseudo/Si.rel-pbe-n-kjpaw_psl.1.0.0.UPF
     MD5 check sum: d74f6caf6830ea4c2076867160cab1b0
     Pseudo is Projector augmented-wave + core cor, Zval =  4.0
     Generated using &quot;atomic&quot; code by A. Dal Corso  v.6.3
     Shape of augmentation charge: PSQ
     Using radial grid of 1141 points, 10 beta functions with: 
                l(1) =   0
                l(2) =   0
                l(3) =   1
                l(4) =   1
                l(5) =   1
                l(6) =   1
                l(7) =   2
                l(8) =   2
                l(9) =   2
               l(10) =   2
     Q(r) pseudized with 0 coefficients 


     atomic species   valence    mass     pseudopotential
        Cr            14.00    51.99600     Cr( 1.00)
        Si             4.00    28.08500     Si( 1.00)

     12 Sym. Ops. (no inversion) found ( 9 have fractional translation)


                                    s                        frac. trans.

      isym =  1     identity                                     

 cryst.   s( 1) = (     1          0          0      )
                  (     0          1          0      )
                  (     0          0          1      )

 cart.    s( 1) = (  1.0000000  0.0000000  0.0000000 )
                  (  0.0000000  1.0000000  0.0000000 )
                  (  0.0000000  0.0000000  1.0000000 )


      isym =  2     180 deg rotation - cart. axis [0,0,1]        

 cryst.   s( 2) = (    -1          0          0      )    f =(  0.5000000 )
                  (     0         -1          0      )       (  0.0000000 )
                  (     0          0          1      )       ( -0.5000000 )

 cart.    s( 2) = ( -1.0000000  0.0000000  0.0000000 )    f =(  0.5000000 )
                  (  0.0000000 -1.0000000  0.0000000 )       (  0.0000000 )
                  (  0.0000000  0.0000000  1.0000000 )       ( -0.5000000 )


      isym =  3     180 deg rotation - cart. axis [0,1,0]        

 cryst.   s( 3) = (    -1          0          0      )    f =(  0.0000000 )
                  (     0          1          0      )       ( -0.5000000 )
                  (     0          0         -1      )       (  0.5000000 )

 cart.    s( 3) = ( -1.0000000  0.0000000  0.0000000 )    f =(  0.0000000 )
                  (  0.0000000  1.0000000  0.0000000 )       ( -0.5000000 )
                  (  0.0000000  0.0000000 -1.0000000 )       (  0.5000000 )


      isym =  4     180 deg rotation - cart. axis [1,0,0]        

 cryst.   s( 4) = (     1          0          0      )    f =(  0.5000000 )
                  (     0         -1          0      )       (  0.5000000 )
                  (     0          0         -1      )       (  0.0000000 )

 cart.    s( 4) = (  1.0000000  0.0000000  0.0000000 )    f =(  0.5000000 )
                  (  0.0000000 -1.0000000  0.0000000 )       (  0.5000000 )
                  (  0.0000000  0.0000000 -1.0000000 )       (  0.0000000 )


      isym =  5     120 deg rotation - cart. axis [-1,-1,-1]     

 cryst.   s( 5) = (     0          0          1      )
                  (     1          0          0      )
                  (     0          1          0      )

 cart.    s( 5) = (  0.0000000  1.0000000  0.0000000 )
                  (  0.0000000  0.0000000  1.0000000 )
                  (  1.0000000  0.0000000  0.0000000 )


      isym =  6     120 deg rotation - cart. axis [-1,1,1]       

 cryst.   s( 6) = (     0          0         -1      )    f =(  0.0000000 )
                  (    -1          0          0      )       ( -0.5000000 )
                  (     0          1          0      )       (  0.5000000 )

 cart.    s( 6) = (  0.0000000 -1.0000000  0.0000000 )    f =(  0.0000000 )
                  (  0.0000000  0.0000000  1.0000000 )       ( -0.5000000 )
                  ( -1.0000000  0.0000000  0.0000000 )       (  0.5000000 )


      isym =  7     120 deg rotation - cart. axis [1,1,-1]       

 cryst.   s( 7) = (     0          0         -1      )    f =(  0.5000000 )
                  (     1          0          0      )       (  0.5000000 )
                  (     0         -1          0      )       (  0.0000000 )

 cart.    s( 7) = (  0.0000000  1.0000000  0.0000000 )    f =(  0.5000000 )
                  (  0.0000000  0.0000000 -1.0000000 )       (  0.5000000 )
                  ( -1.0000000  0.0000000  0.0000000 )       (  0.0000000 )


      isym =  8     120 deg rotation - cart. axis [1,-1,1]       

 cryst.   s( 8) = (     0          0          1      )    f =(  0.5000000 )
                  (    -1          0          0      )       (  0.0000000 )
                  (     0         -1          0      )       ( -0.5000000 )

 cart.    s( 8) = (  0.0000000 -1.0000000  0.0000000 )    f =(  0.5000000 )
                  (  0.0000000  0.0000000 -1.0000000 )       (  0.0000000 )
                  (  1.0000000  0.0000000  0.0000000 )       ( -0.5000000 )


      isym =  9     120 deg rotation - cart. axis [1,1,1]        

 cryst.   s( 9) = (     0          1          0      )
                  (     0          0          1      )
                  (     1          0          0      )

 cart.    s( 9) = (  0.0000000  0.0000000  1.0000000 )
                  (  1.0000000  0.0000000  0.0000000 )
                  (  0.0000000  1.0000000  0.0000000 )


      isym = 10     120 deg rotation - cart. axis [-1,1,-1]      

 cryst.   s(10) = (     0         -1          0      )    f =(  0.5000000 )
                  (     0          0         -1      )       (  0.5000000 )
                  (     1          0          0      )       (  0.0000000 )

 cart.    s(10) = (  0.0000000  0.0000000  1.0000000 )    f =(  0.5000000 )
                  ( -1.0000000  0.0000000  0.0000000 )       (  0.5000000 )
                  (  0.0000000 -1.0000000  0.0000000 )       (  0.0000000 )


      isym = 11     120 deg rotation - cart. axis [1,-1,-1]      

 cryst.   s(11) = (     0         -1          0      )    f =(  0.5000000 )
                  (     0          0          1      )       (  0.0000000 )
                  (    -1          0          0      )       ( -0.5000000 )

 cart.    s(11) = (  0.0000000  0.0000000 -1.0000000 )    f =(  0.5000000 )
                  ( -1.0000000  0.0000000  0.0000000 )       (  0.0000000 )
                  (  0.0000000  1.0000000  0.0000000 )       ( -0.5000000 )


      isym = 12     120 deg rotation - cart. axis [-1,-1,1]      

 cryst.   s(12) = (     0          1          0      )    f =(  0.0000000 )
                  (     0          0         -1      )       ( -0.5000000 )
                  (    -1          0          0      )       (  0.5000000 )

 cart.    s(12) = (  0.0000000  0.0000000 -1.0000000 )    f =(  0.0000000 )
                  (  1.0000000  0.0000000  0.0000000 )       ( -0.5000000 )
                  (  0.0000000 -1.0000000  0.0000000 )       (  0.5000000 )


   Cartesian axes

     site n.     atom                  positions (alat units)
         1           Cr  tau(   1) = (   0.8640000   0.3640000   0.1360000  )
         2           Cr  tau(   2) = (   0.3640000   0.1360000   0.8640000  )
         3           Cr  tau(   3) = (   0.1360000   0.8640000   0.3640000  )
         4           Cr  tau(   4) = (   0.6360000   0.6360000   0.6360000  )
         5           Si  tau(   5) = (   0.1540000   0.6540000   0.8460000  )
         6           Si  tau(   6) = (   0.6540000   0.8460000   0.1540000  )
         7           Si  tau(   7) = (   0.8460000   0.1540000   0.6540000  )
         8           Si  tau(   8) = (   0.3460000   0.3460000   0.3460000  )

   Crystallographic axes

     site n.     atom                  positions (cryst. coord.)
         1           Cr  tau(   1) = (  0.8640000  0.3640000  0.1360000  )
         2           Cr  tau(   2) = (  0.3640000  0.1360000  0.8640000  )
         3           Cr  tau(   3) = (  0.1360000  0.8640000  0.3640000  )
         4           Cr  tau(   4) = (  0.6360000  0.6360000  0.6360000  )
         5           Si  tau(   5) = (  0.1540000  0.6540000  0.8460000  )
         6           Si  tau(   6) = (  0.6540000  0.8460000  0.1540000  )
         7           Si  tau(   7) = (  0.8460000  0.1540000  0.6540000  )
         8           Si  tau(   8) = (  0.3460000  0.3460000  0.3460000  )

     number of k points=    76  Methfessel-Paxton smearing, width (Ry)=  0.0080
                       cart. coord. in units 2pi/alat
        k(    1) = (   0.0000000   0.0000000   0.0000000), wk =   0.0010000
        k(    2) = (   0.0000000   0.0000000   0.1000000), wk =   0.0060000
        k(    3) = (   0.0000000   0.0000000   0.2000000), wk =   0.0060000
        k(    4) = (   0.0000000   0.0000000   0.3000000), wk =   0.0060000
        k(    5) = (   0.0000000   0.0000000   0.4000000), wk =   0.0060000
        k(    6) = (   0.0000000   0.0000000  -0.5000000), wk =   0.0030000
        k(    7) = (   0.0000000   0.1000000   0.1000000), wk =   0.0120000
        k(    8) = (   0.0000000   0.1000000   0.2000000), wk =   0.0120000
        k(    9) = (   0.0000000   0.1000000   0.3000000), wk =   0.0120000
        k(   10) = (   0.0000000   0.1000000   0.4000000), wk =   0.0120000
        k(   11) = (   0.0000000   0.1000000  -0.5000000), wk =   0.0060000
        k(   12) = (   0.0000000   0.2000000   0.2000000), wk =   0.0120000
        k(   13) = (   0.0000000   0.2000000   0.3000000), wk =   0.0120000
        k(   14) = (   0.0000000   0.2000000   0.4000000), wk =   0.0120000
        k(   15) = (   0.0000000   0.2000000  -0.5000000), wk =   0.0060000
        k(   16) = (   0.0000000   0.3000000   0.3000000), wk =   0.0120000
        k(   17) = (   0.0000000   0.3000000   0.4000000), wk =   0.0120000
        k(   18) = (   0.0000000   0.3000000  -0.5000000), wk =   0.0060000
        k(   19) = (   0.0000000   0.4000000   0.4000000), wk =   0.0120000
        k(   20) = (   0.0000000   0.4000000  -0.5000000), wk =   0.0060000
        k(   21) = (   0.0000000  -0.5000000  -0.5000000), wk =   0.0030000
        k(   22) = (   0.1000000   0.1000000   0.1000000), wk =   0.0080000
        k(   23) = (   0.1000000   0.1000000   0.2000000), wk =   0.0240000
        k(   24) = (   0.1000000   0.1000000   0.3000000), wk =   0.0240000
        k(   25) = (   0.1000000   0.1000000   0.4000000), wk =   0.0240000
        k(   26) = (   0.1000000   0.1000000  -0.5000000), wk =   0.0120000
        k(   27) = (   0.1000000   0.2000000   0.2000000), wk =   0.0240000
        k(   28) = (   0.1000000   0.2000000   0.3000000), wk =   0.0240000
        k(   29) = (   0.1000000   0.2000000   0.4000000), wk =   0.0240000
        k(   30) = (   0.1000000   0.2000000  -0.5000000), wk =   0.0120000
        k(   31) = (   0.1000000   0.3000000   0.3000000), wk =   0.0240000
        k(   32) = (   0.1000000   0.3000000   0.4000000), wk =   0.0240000
        k(   33) = (   0.1000000   0.3000000  -0.5000000), wk =   0.0120000
        k(   34) = (   0.1000000   0.4000000   0.4000000), wk =   0.0240000
        k(   35) = (   0.1000000   0.4000000  -0.5000000), wk =   0.0120000
        k(   36) = (   0.1000000  -0.5000000  -0.5000000), wk =   0.0060000
        k(   37) = (   0.2000000   0.2000000   0.2000000), wk =   0.0080000
        k(   38) = (   0.2000000   0.2000000   0.3000000), wk =   0.0240000
        k(   39) = (   0.2000000   0.2000000   0.4000000), wk =   0.0240000
        k(   40) = (   0.2000000   0.2000000  -0.5000000), wk =   0.0120000
        k(   41) = (   0.2000000   0.3000000   0.3000000), wk =   0.0240000
        k(   42) = (   0.2000000   0.3000000   0.4000000), wk =   0.0240000
        k(   43) = (   0.2000000   0.3000000  -0.5000000), wk =   0.0120000
        k(   44) = (   0.2000000   0.4000000   0.4000000), wk =   0.0240000
        k(   45) = (   0.2000000   0.4000000  -0.5000000), wk =   0.0120000
        k(   46) = (   0.2000000  -0.5000000  -0.5000000), wk =   0.0060000
        k(   47) = (   0.3000000   0.3000000   0.3000000), wk =   0.0080000
        k(   48) = (   0.3000000   0.3000000   0.4000000), wk =   0.0240000
        k(   49) = (   0.3000000   0.3000000  -0.5000000), wk =   0.0120000
        k(   50) = (   0.3000000   0.4000000   0.4000000), wk =   0.0240000
        k(   51) = (   0.3000000   0.4000000  -0.5000000), wk =   0.0120000
        k(   52) = (   0.3000000  -0.5000000  -0.5000000), wk =   0.0060000
        k(   53) = (   0.4000000   0.4000000   0.4000000), wk =   0.0080000
        k(   54) = (   0.4000000   0.4000000  -0.5000000), wk =   0.0120000
        k(   55) = (   0.4000000  -0.5000000  -0.5000000), wk =   0.0060000
        k(   56) = (  -0.5000000  -0.5000000  -0.5000000), wk =   0.0010000
        k(   57) = (   0.0000000   0.2000000   0.1000000), wk =   0.0120000
        k(   58) = (   0.0000000   0.3000000   0.1000000), wk =   0.0120000
        k(   59) = (   0.0000000   0.4000000   0.1000000), wk =   0.0120000
        k(   60) = (   0.0000000  -0.5000000   0.1000000), wk =   0.0060000
        k(   61) = (   0.0000000   0.3000000   0.2000000), wk =   0.0120000
        k(   62) = (   0.0000000   0.4000000   0.2000000), wk =   0.0120000
        k(   63) = (   0.0000000  -0.5000000   0.2000000), wk =   0.0060000
        k(   64) = (   0.0000000   0.4000000   0.3000000), wk =   0.0120000
        k(   65) = (   0.0000000  -0.5000000   0.3000000), wk =   0.0060000
        k(   66) = (   0.0000000  -0.5000000   0.4000000), wk =   0.0060000
        k(   67) = (  -0.1000000   0.3000000   0.2000000), wk =   0.0240000
        k(   68) = (  -0.1000000   0.4000000   0.2000000), wk =   0.0240000
        k(   69) = (  -0.1000000  -0.5000000   0.2000000), wk =   0.0120000
        k(   70) = (  -0.1000000   0.4000000   0.3000000), wk =   0.0240000
        k(   71) = (  -0.1000000  -0.5000000   0.3000000), wk =   0.0120000
        k(   72) = (  -0.1000000  -0.5000000   0.4000000), wk =   0.0120000
        k(   73) = (  -0.2000000   0.4000000   0.3000000), wk =   0.0240000
        k(   74) = (  -0.2000000  -0.5000000   0.3000000), wk =   0.0120000
        k(   75) = (  -0.2000000  -0.5000000   0.4000000), wk =   0.0120000
        k(   76) = (  -0.3000000  -0.5000000   0.4000000), wk =   0.0120000

                       cryst. coord.
        k(    1) = (   0.0000000   0.0000000   0.0000000), wk =   0.0010000
        k(    2) = (   0.0000000   0.0000000   0.1000000), wk =   0.0060000
        k(    3) = (   0.0000000   0.0000000   0.2000000), wk =   0.0060000
        k(    4) = (   0.0000000   0.0000000   0.3000000), wk =   0.0060000
        k(    5) = (   0.0000000   0.0000000   0.4000000), wk =   0.0060000
        k(    6) = (   0.0000000   0.0000000  -0.5000000), wk =   0.0030000
        k(    7) = (   0.0000000   0.1000000   0.1000000), wk =   0.0120000
        k(    8) = (   0.0000000   0.1000000   0.2000000), wk =   0.0120000
        k(    9) = (   0.0000000   0.1000000   0.3000000), wk =   0.0120000
        k(   10) = (   0.0000000   0.1000000   0.4000000), wk =   0.0120000
        k(   11) = (   0.0000000   0.1000000  -0.5000000), wk =   0.0060000
        k(   12) = (   0.0000000   0.2000000   0.2000000), wk =   0.0120000
        k(   13) = (   0.0000000   0.2000000   0.3000000), wk =   0.0120000
        k(   14) = (   0.0000000   0.2000000   0.4000000), wk =   0.0120000
        k(   15) = (   0.0000000   0.2000000  -0.5000000), wk =   0.0060000
        k(   16) = (   0.0000000   0.3000000   0.3000000), wk =   0.0120000
        k(   17) = (   0.0000000   0.3000000   0.4000000), wk =   0.0120000
        k(   18) = (   0.0000000   0.3000000  -0.5000000), wk =   0.0060000
        k(   19) = (   0.0000000   0.4000000   0.4000000), wk =   0.0120000
        k(   20) = (   0.0000000   0.4000000  -0.5000000), wk =   0.0060000
        k(   21) = (   0.0000000  -0.5000000  -0.5000000), wk =   0.0030000
        k(   22) = (   0.1000000   0.1000000   0.1000000), wk =   0.0080000
        k(   23) = (   0.1000000   0.1000000   0.2000000), wk =   0.0240000
        k(   24) = (   0.1000000   0.1000000   0.3000000), wk =   0.0240000
        k(   25) = (   0.1000000   0.1000000   0.4000000), wk =   0.0240000
        k(   26) = (   0.1000000   0.1000000  -0.5000000), wk =   0.0120000
        k(   27) = (   0.1000000   0.2000000   0.2000000), wk =   0.0240000
        k(   28) = (   0.1000000   0.2000000   0.3000000), wk =   0.0240000
        k(   29) = (   0.1000000   0.2000000   0.4000000), wk =   0.0240000
        k(   30) = (   0.1000000   0.2000000  -0.5000000), wk =   0.0120000
        k(   31) = (   0.1000000   0.3000000   0.3000000), wk =   0.0240000
        k(   32) = (   0.1000000   0.3000000   0.4000000), wk =   0.0240000
        k(   33) = (   0.1000000   0.3000000  -0.5000000), wk =   0.0120000
        k(   34) = (   0.1000000   0.4000000   0.4000000), wk =   0.0240000
        k(   35) = (   0.1000000   0.4000000  -0.5000000), wk =   0.0120000
        k(   36) = (   0.1000000  -0.5000000  -0.5000000), wk =   0.0060000
        k(   37) = (   0.2000000   0.2000000   0.2000000), wk =   0.0080000
        k(   38) = (   0.2000000   0.2000000   0.3000000), wk =   0.0240000
        k(   39) = (   0.2000000   0.2000000   0.4000000), wk =   0.0240000
        k(   40) = (   0.2000000   0.2000000  -0.5000000), wk =   0.0120000
        k(   41) = (   0.2000000   0.3000000   0.3000000), wk =   0.0240000
        k(   42) = (   0.2000000   0.3000000   0.4000000), wk =   0.0240000
        k(   43) = (   0.2000000   0.3000000  -0.5000000), wk =   0.0120000
        k(   44) = (   0.2000000   0.4000000   0.4000000), wk =   0.0240000
        k(   45) = (   0.2000000   0.4000000  -0.5000000), wk =   0.0120000
        k(   46) = (   0.2000000  -0.5000000  -0.5000000), wk =   0.0060000
        k(   47) = (   0.3000000   0.3000000   0.3000000), wk =   0.0080000
        k(   48) = (   0.3000000   0.3000000   0.4000000), wk =   0.0240000
        k(   49) = (   0.3000000   0.3000000  -0.5000000), wk =   0.0120000
        k(   50) = (   0.3000000   0.4000000   0.4000000), wk =   0.0240000
        k(   51) = (   0.3000000   0.4000000  -0.5000000), wk =   0.0120000
        k(   52) = (   0.3000000  -0.5000000  -0.5000000), wk =   0.0060000
        k(   53) = (   0.4000000   0.4000000   0.4000000), wk =   0.0080000
        k(   54) = (   0.4000000   0.4000000  -0.5000000), wk =   0.0120000
        k(   55) = (   0.4000000  -0.5000000  -0.5000000), wk =   0.0060000
        k(   56) = (  -0.5000000  -0.5000000  -0.5000000), wk =   0.0010000
        k(   57) = (   0.0000000   0.2000000   0.1000000), wk =   0.0120000
        k(   58) = (   0.0000000   0.3000000   0.1000000), wk =   0.0120000
        k(   59) = (   0.0000000   0.4000000   0.1000000), wk =   0.0120000
        k(   60) = (   0.0000000  -0.5000000   0.1000000), wk =   0.0060000
        k(   61) = (   0.0000000   0.3000000   0.2000000), wk =   0.0120000
        k(   62) = (   0.0000000   0.4000000   0.2000000), wk =   0.0120000
        k(   63) = (   0.0000000  -0.5000000   0.2000000), wk =   0.0060000
        k(   64) = (   0.0000000   0.4000000   0.3000000), wk =   0.0120000
        k(   65) = (   0.0000000  -0.5000000   0.3000000), wk =   0.0060000
        k(   66) = (   0.0000000  -0.5000000   0.4000000), wk =   0.0060000
        k(   67) = (  -0.1000000   0.3000000   0.2000000), wk =   0.0240000
        k(   68) = (  -0.1000000   0.4000000   0.2000000), wk =   0.0240000
        k(   69) = (  -0.1000000  -0.5000000   0.2000000), wk =   0.0120000
        k(   70) = (  -0.1000000   0.4000000   0.3000000), wk =   0.0240000
        k(   71) = (  -0.1000000  -0.5000000   0.3000000), wk =   0.0120000
        k(   72) = (  -0.1000000  -0.5000000   0.4000000), wk =   0.0120000
        k(   73) = (  -0.2000000   0.4000000   0.3000000), wk =   0.0240000
        k(   74) = (  -0.2000000  -0.5000000   0.3000000), wk =   0.0120000
        k(   75) = (  -0.2000000  -0.5000000   0.4000000), wk =   0.0120000
        k(   76) = (  -0.3000000  -0.5000000   0.4000000), wk =   0.0120000

     Dense  grid:   304867 G-vectors     FFT dimensions: (  90,  90,  90)

     Smooth grid:    77053 G-vectors     FFT dimensions: (  54,  54,  54)

     Dynamical RAM for                 wfc:       1.06 MB

     Dynamical RAM for     wfc (w. buffer):      81.24 MB

     Dynamical RAM for           str. fact:       0.39 MB

     Dynamical RAM for           local pot:       0.00 MB

     Dynamical RAM for          nlocal pot:       1.67 MB

     Dynamical RAM for                qrad:      12.61 MB

     Dynamical RAM for          rho,v,vnew:       5.29 MB

     Dynamical RAM for               rhoin:       1.76 MB

     Dynamical RAM for            rho*nmix:      12.41 MB

     Dynamical RAM for           G-vectors:       0.75 MB

     Dynamical RAM for          h,s,v(r/c):       1.35 MB

     Dynamical RAM for          <psi|beta>:       0.71 MB

     Dynamical RAM for                 psi:       2.11 MB

     Dynamical RAM for                hpsi:       2.11 MB

     Dynamical RAM for                spsi:       2.11 MB

     Dynamical RAM for      wfcinit/wfcrot:       2.35 MB

     Dynamical RAM for           addusdens:     119.02 MB

     Dynamical RAM for          addusforce:     120.34 MB

     Dynamical RAM for         addusstress:     121.74 MB

     Estimated static dynamical RAM per process >     118.67 MB

     Estimated max dynamical RAM per process >     240.41 MB

     Estimated total dynamical RAM >       5.63 GB

     Initial potential from superposition of free atoms

     starting charge   71.99469, renormalised to   72.00000
     Starting wfcs are  112 randomized atomic wfcs
     Checking if some PAW data can be deallocated... 
       PAW data deallocated on   12 nodes for type:  1
       PAW data deallocated on   12 nodes for type:  2

     total cpu time spent up to now is       18.7 secs

     Self-consistent Calculation

     iteration #  1     ecut=    90.00 Ry     beta= 0.70
     Davidson diagonalization with overlap
     ethr =  1.00E-02,  avg # of iterations =  2.0

     Threshold (ethr) on eigenvalues was too large:
     Diagonalizing with lowered threshold

     Davidson diagonalization with overlap
     ethr =  2.10E-04,  avg # of iterations =  4.3

     total cpu time spent up to now is      115.2 secs

     total energy              =   -1180.30952349 Ry
     estimated scf accuracy    <       0.18940221 Ry

     iteration #  2     ecut=    90.00 Ry     beta= 0.70
     Davidson diagonalization with overlap
     ethr =  2.63E-04,  avg # of iterations =  3.2

     total cpu time spent up to now is      164.0 secs

     total energy              =   -1180.31397310 Ry
     estimated scf accuracy    <       0.08202564 Ry

     iteration #  3     ecut=    90.00 Ry     beta= 0.70
     Davidson diagonalization with overlap
     ethr =  1.14E-04,  avg # of iterations =  5.1

     total cpu time spent up to now is      223.2 secs

     total energy              =   -1180.32557834 Ry
     estimated scf accuracy    <       0.16478936 Ry

     iteration #  4     ecut=    90.00 Ry     beta= 0.70
     Davidson diagonalization with overlap
     ethr =  1.14E-04,  avg # of iterations =  4.0

     total cpu time spent up to now is      271.1 secs

     total energy              =   -1180.34956834 Ry
     estimated scf accuracy    <       0.00026741 Ry

     iteration #  5     ecut=    90.00 Ry     beta= 0.70
     Davidson diagonalization with overlap
     ethr =  3.71E-07,  avg # of iterations =  8.6

     total cpu time spent up to now is      347.2 secs

     total energy              =   -1180.35021468 Ry
     estimated scf accuracy    <       0.00036827 Ry

     iteration #  6     ecut=    90.00 Ry     beta= 0.70
     Davidson diagonalization with overlap
     ethr =  3.71E-07,  avg # of iterations =  3.4

     total cpu time spent up to now is      392.0 secs

     total energy              =   -1180.35027156 Ry
     estimated scf accuracy    <       0.00000235 Ry

     iteration #  7     ecut=    90.00 Ry     beta= 0.70
     Davidson diagonalization with overlap
     ethr =  3.27E-09,  avg # of iterations =  7.2

     total cpu time spent up to now is      464.1 secs

     total energy              =   -1180.35027400 Ry
     estimated scf accuracy    <       0.00002288 Ry

     iteration #  8     ecut=    90.00 Ry     beta= 0.70
     Davidson diagonalization with overlap
     ethr =  3.27E-09,  avg # of iterations =  5.0

     total cpu time spent up to now is      526.3 secs

     End of self-consistent calculation

          k = 0.0000 0.0000 0.0000 (  9771 PWs)   bands (ev):

   -56.5160 -56.5160 -56.4813 -56.4813 -56.4813 -56.4813 -56.4813 -56.4813
   -28.5819 -28.5819 -28.5740 -28.5740 -28.5740 -28.5740 -28.4847 -28.4847
   -27.6176 -27.6176 -27.6176 -27.6176 -27.5403 -27.5403 -27.5403 -27.5403
   -27.5317 -27.5317 -27.4505 -27.4505 -27.4505 -27.4505 -27.4488 -27.4488
     2.6989   2.6989   7.4571   7.4571   7.4571   7.4571   7.4663   7.4663
    10.5369  10.5369  10.5448  10.5448  10.5448  10.5448  11.9123  11.9123
    11.9123  11.9123  11.9234  11.9234  12.6035  12.6035  12.7722  12.7722
    12.7722  12.7722  13.1424  13.1424  13.1424  13.1424  13.1436  13.1436
    13.6706  13.6706  13.6706  13.6706  13.6744  13.6744  15.5513  15.5513
    15.5826  15.5826  15.5826  15.5826  15.7636  15.7636  15.7636  15.7636
    16.6661  16.6661  16.6964  16.6964  16.6964  16.6964

     occupation numbers 
     1.0000   1.0000   1.0000   1.0000   1.0000   1.0000   1.0000   1.0000
     1.0000   1.0000   1.0000   1.0000   1.0000   1.0000   1.0000   1.0000
     1.0000   1.0000   1.0000   1.0000   1.0000   1.0000   1.0000   1.0000
     1.0000   1.0000   1.0000   1.0000   1.0000   1.0000   1.0000   1.0000
     1.0000   1.0000   1.0000   1.0000   1.0000   1.0000   1.0000   1.0000
     1.0000   1.0000   1.0000   1.0000   1.0000   1.0000   1.0000   1.0000
     1.0000   1.0000   1.0000   1.0000   1.0000   1.0000   1.0000   1.0000
     1.0000   1.0000   1.0000   1.0000   1.0000   1.0000   1.0000   1.0000
     1.0000   1.0000   1.0000   1.0000   1.0000   1.0000  -0.0000  -0.0000
    -0.0000  -0.0000  -0.0000  -0.0000  -0.0000  -0.0000  -0.0000  -0.0000
    -0.0000  -0.0000  -0.0000  -0.0000  -0.0000  -0.0000

          k = 0.0000 0.0000 0.1000 (  9695 PWs)   bands (ev):

   -56.5154 -56.5154 -56.4844 -56.4844 -56.4811 -56.4811 -56.4790 -56.4790
   -28.5870 -28.5796 -28.5781 -28.5765 -28.5693 -28.5663 -28.4865 -28.4865
   -27.6286 -27.6233 -27.6101 -27.6049 -27.5471 -27.5450 -27.5383 -27.5358
   -27.5347 -27.5221 -27.4560 -27.4549 -27.4527 -27.4487 -27.4481 -27.4441
     2.7683   2.7683   6.9409   6.9446   7.4973   7.4985   7.8791   7.8874
    10.1584  10.1639  10.5885  10.5898  10.9493  10.9522  11.4186  11.4197
    11.7331  11.7364  12.4397  12.4553  12.5676  12.5718  12.7703  12.7779
    12.8728  12.8733  13.1166  13.1183  13.1670  13.1672  13.1944  13.1949
    13.5345  13.5407  13.6604  13.6614  13.8551  13.8557  15.4464  15.4684
    15.4700  15.4750  15.7032  15.7184  15.7359  15.7503  15.7542  15.7672
    16.5151  16.5332  16.6530  16.6560  16.8464  16.8667

     occupation numbers 
     1.0000   1.0000   1.0000   1.0000   1.0000   1.0000   1.0000   1.0000
     1.0000   1.0000   1.0000   1.0000   1.0000   1.0000   1.0000   1.0000
     1.0000   1.0000   1.0000   1.0000   1.0000   1.0000   1.0000   1.0000
     1.0000   1.0000   1.0000   1.0000   1.0000   1.0000   1.0000   1.0000
     1.0000   1.0000   1.0000   1.0000   1.0000   1.0000   1.0000   1.0000
     1.0000   1.0000   1.0000   1.0000   1.0000   1.0000   1.0000   1.0000
     1.0000   1.0000   1.0000   1.0000   1.0000   1.0000   1.0000   1.0000
     1.0000   1.0000   1.0000   1.0000   1.0000   1.0000   1.0000   1.0000
     1.0000   1.0000   1.0000   1.0000   1.0000   1.0000  -0.0000  -0.0000
    -0.0000  -0.0000  -0.0000  -0.0000  -0.0000  -0.0000  -0.0000  -0.0000
    -0.0000  -0.0000  -0.0000  -0.0000  -0.0000  -0.0000

          k = 0.0000 0.0000 0.2000 (  9663 PWs)   bands (ev):

   -56.5135 -56.5135 -56.4883 -56.4883 -56.4805 -56.4805 -56.4776 -56.4776
   -28.5906 -28.5832 -28.5795 -28.5780 -28.5602 -28.5569 -28.4919 -28.4917
   -27.6367 -27.6282 -27.6005 -27.5927 -27.5545 -27.5476 -27.5393 -27.5343
   -27.5311 -27.5109 -27.4640 -27.4598 -27.4567 -27.4490 -27.4472 -27.4408
     2.9747   2.9747   6.3261   6.3281   7.6082   7.6105   8.2282   8.2380
     9.8574   9.8605  10.7051  10.7085  10.9859  10.9915  11.3750  11.3810
    11.3908  11.3910  12.3763  12.3889  12.8262  12.8326  12.8460  12.8706
    13.0741  13.0797  13.1039  13.1069  13.2165  13.2202  13.2371  13.2373
    13.5729  13.5841  13.6064  13.6101  14.0034  14.0041  15.2039  15.2279
    15.3993  15.4038  15.6620  15.6742  15.7415  15.7624  15.8238  15.8485
    16.3562  16.3709  16.5587  16.5680  17.0734  17.0940

     occupation numbers 
     1.0000   1.0000   1.0000   1.0000   1.0000   1.0000   1.0000   1.0000
     1.0000   1.0000   1.0000   1.0000   1.0000   1.0000   1.0000   1.0000
     1.0000   1.0000   1.0000   1.0000   1.0000   1.0000   1.0000   1.0000
     1.0000   1.0000   1.0000   1.0000   1.0000   1.0000   1.0000   1.0000
     1.0000   1.0000   1.0000   1.0000   1.0000   1.0000   1.0000   1.0000
     1.0000   1.0000   1.0000   1.0000   1.0000   1.0000   1.0000   1.0000
     1.0000   1.0000   1.0000   1.0000   1.0000   1.0000   1.0000   1.0000
     1.0000   1.0000   1.0000   1.0000   1.0000   1.0000   1.0000   1.0000
     1.0000   1.0000   1.0000   1.0000   1.0000   1.0000  -0.0029  -0.0012
    -0.0000  -0.0000  -0.0000  -0.0000  -0.0000  -0.0000  -0.0000  -0.0000
    -0.0000  -0.0000  -0.0000  -0.0000  -0.0000  -0.0000

          k = 0.0000 0.0000 0.3000 (  9638 PWs)   bands (ev):

   -56.5105 -56.5105 -56.4927 -56.4927 -56.4796 -56.4796 -56.4771 -56.4771
   -28.5921 -28.5848 -28.5830 -28.5795 -28.5488 -28.5460 -28.5003 -28.4999
   -27.6414 -27.6330 -27.5890 -27.5832 -27.5618 -27.5469 -27.5381 -27.5329
   -27.5306 -27.4992 -27.4752 -27.4622 -27.4617 -27.4506 -27.4464 -27.4398
     3.3117   3.3117   5.6499   5.6508   7.7873   7.7909   8.4735   8.4835
     9.6692   9.6696  10.7386  10.7437  10.7935  10.8048  11.0723  11.0789
    11.7457  11.7473  12.1736  12.1895  12.8830  12.9004  12.9089  12.9167
    13.1303  13.1357  13.1510  13.1570  13.2593  13.2615  13.3807  13.3812
    13.4574  13.4624  13.8460  13.8500  14.0773  14.0793  14.9574  14.9898
    15.3629  15.3683  15.5659  15.5832  15.7378  15.7647  15.8573  15.8810
    16.2267  16.2421  16.4215  16.4345  17.2687  17.2875

     occupation numbers 
     1.0000   1.0000   1.0000   1.0000   1.0000   1.0000   1.0000   1.0000
     1.0000   1.0000   1.0000   1.0000   1.0000   1.0000   1.0000   1.0000
     1.0000   1.0000   1.0000   1.0000   1.0000   1.0000   1.0000   1.0000
     1.0000   1.0000   1.0000   1.0000   1.0000   1.0000   1.0000   1.0000
     1.0000   1.0000   1.0000   1.0000   1.0000   1.0000   1.0000   1.0000
     1.0000   1.0000   1.0000   1.0000   1.0000   1.0000   1.0000   1.0000
     1.0000   1.0000   1.0000   1.0000   1.0000   1.0000   1.0000   1.0000
     1.0000   1.0000   1.0000   1.0000   1.0000   1.0000   1.0000   1.0000
     1.0000   1.0000   1.0000   1.0000   1.0000   1.0000   0.4866   0.2483
    -0.0000  -0.0000  -0.0000  -0.0000  -0.0000  -0.0000  -0.0000  -0.0000
    -0.0000  -0.0000  -0.0000  -0.0000  -0.0000  -0.0000

          k = 0.0000 0.0000 0.4000 (  9654 PWs)   bands (ev):

   -56.5066 -56.5066 -56.4974 -56.4974 -56.4787 -56.4787 -56.4772 -56.4772
   -28.5917 -28.5866 -28.5848 -28.5816 -28.5363 -28.5341 -28.5111 -28.5102
   -27.6427 -27.6376 -27.5794 -27.5735 -27.5683 -27.5473 -27.5433 -27.5332
   -27.5202 -27.4891 -27.4880 -27.4693 -27.4602 -27.4534 -27.4449 -27.4407
     3.7687   3.7688   4.9679   4.9683   8.0221   8.0271   8.4871   8.4954
     9.7179   9.7213  10.4136  10.4154  10.7857  10.7990  11.0146  11.0190
    12.0857  12.0879  12.1327  12.1464  12.7238  12.7390  12.9195  12.9322
    13.0707  13.0769  13.1906  13.1937  13.2340  13.2375  13.2948  13.2982
    13.5918  13.5930  13.9162  13.9205  14.2944  14.3113  14.7681  14.8027
    15.3593  15.3726  15.4730  15.4922  15.7606  15.7904  15.8396  15.8658
    16.1533  16.1688  16.2728  16.2867  17.3793  17.3870

     occupation numbers 
     1.0000   1.0000   1.0000   1.0000   1.0000   1.0000   1.0000   1.0000
     1.0000   1.0000   1.0000   1.0000   1.0000   1.0000   1.0000   1.0000
     1.0000   1.0000   1.0000   1.0000   1.0000   1.0000   1.0000   1.0000
     1.0000   1.0000   1.0000   1.0000   1.0000   1.0000   1.0000   1.0000
     1.0000   1.0000   1.0000   1.0000   1.0000   1.0000   1.0000   1.0000
     1.0000   1.0000   1.0000   1.0000   1.0000   1.0000   1.0000   1.0000
     1.0000   1.0000   1.0000   1.0000   1.0000   1.0000   1.0000   1.0000
     1.0000   1.0000   1.0000   1.0000   1.0000   1.0000   1.0000   1.0000
     1.0000   1.0000   1.0000   1.0000   1.0000   1.0000   1.0175   1.0316
    -0.0000  -0.0000  -0.0000  -0.0000  -0.0000  -0.0000  -0.0000  -0.0000
    -0.0000  -0.0000  -0.0000  -0.0000  -0.0000  -0.0000

          k = 0.0000 0.0000-0.5000 (  9658 PWs)   bands (ev):

   -56.5022 -56.5022 -56.5022 -56.5022 -56.4778 -56.4778 -56.4778 -56.4778
   -28.5897 -28.5897 -28.5836 -28.5836 -28.5234 -28.5234 -28.5219 -28.5219
   -27.6412 -27.6412 -27.5739 -27.5739 -27.5599 -27.5599 -27.5380 -27.5380
   -27.5047 -27.5047 -27.4779 -27.4779 -27.4570 -27.4570 -27.4428 -27.4428
     4.3289   4.3289   4.3291   4.3291   8.2826   8.2826   8.2891   8.2891
    10.0174  10.0174  10.0214  10.0214  10.8982  10.8982  10.9094  10.9094
    12.2474  12.2474  12.2539  12.2539  12.6846  12.6846  12.6970  12.6970
    13.1416  13.1416  13.1420  13.1420  13.2361  13.2361  13.2398  13.2398
    13.7826  13.7826  13.7857  13.7857  14.5660  14.5660  14.5945  14.5945
    15.3997  15.3997  15.4175  15.4175  15.8048  15.8048  15.8345  15.8345
    16.1660  16.1660  16.1797  16.1797  17.5422  17.5469

     occupation numbers 
     1.0000   1.0000   1.0000   1.0000   1.0000   1.0000   1.0000   1.0000
     1.0000   1.0000   1.0000   1.0000   1.0000   1.0000   1.0000   1.0000
     1.0000   1.0000   1.0000   1.0000   1.0000   1.0000   1.0000   1.0000
     1.0000   1.0000   1.0000   1.0000   1.0000   1.0000   1.0000   1.0000
     1.0000   1.0000   1.0000   1.0000   1.0000   1.0000   1.0000   1.0000
     1.0000   1.0000   1.0000   1.0000   1.0000   1.0000   1.0000   1.0000
     1.0000   1.0000   1.0000   1.0000   1.0000   1.0000   1.0000   1.0000
     1.0000   1.0000   1.0000   1.0000   1.0000   1.0000   1.0000   1.0000
     1.0000   1.0000   1.0000   1.0000   1.0000   1.0000   1.0000   1.0000
    -0.0000  -0.0000  -0.0000  -0.0000  -0.0000  -0.0000  -0.0000  -0.0000
    -0.0000  -0.0000  -0.0000  -0.0000  -0.0000  -0.0000

          k = 0.0000 0.1000 0.1000 (  9675 PWs)   bands (ev):

   -56.5147 -56.5147 -56.4856 -56.4856 -56.4813 -56.4813 -56.4782 -56.4782
   -28.5889 -28.5821 -28.5770 -28.5756 -28.5672 -28.5633 -28.4883 -28.4883
   -27.6306 -27.6273 -27.6045 -27.6011 -27.5499 -27.5453 -27.5405 -27.5391
   -27.5295 -27.5171 -27.4594 -27.4586 -27.4539 -27.4492 -27.4460 -27.4421
     2.8375   2.8375   6.8021   6.8072   7.3670   7.3704   8.0834   8.0895
    10.0374  10.0428  10.6306  10.6344  11.0124  11.0167  11.1732  11.1750
    11.8335  11.8348  12.4249  12.4396  12.5999  12.6064  12.8435  12.8519
    12.9296  12.9362  13.1401  13.1425  13.1601  13.1637  13.2331  13.2355
    13.4832  13.4884  13.6671  13.6762  13.9348  13.9387  15.3907  15.3996
    15.4506  15.4545  15.6569  15.6659  15.7357  15.7478  15.7735  15.7901
    16.4357  16.4543  16.6625  16.6682  16.8856  16.9123

     occupation numbers 
     1.0000   1.0000   1.0000   1.0000   1.0000   1.0000   1.0000   1.0000
     1.0000   1.0000   1.0000   1.0000   1.0000   1.0000   1.0000   1.0000
     1.0000   1.0000   1.0000   1.0000   1.0000   1.0000   1.0000   1.0000
     1.0000   1.0000   1.0000   1.0000   1.0000   1.0000   1.0000   1.0000
     1.0000   1.0000   1.0000   1.0000   1.0000   1.0000   1.0000   1.0000
     1.0000   1.0000   1.0000   1.0000   1.0000   1.0000   1.0000   1.0000
     1.0000   1.0000   1.0000   1.0000   1.0000   1.0000   1.0000   1.0000
     1.0000   1.0000   1.0000   1.0000   1.0000   1.0000   1.0000   1.0000
     1.0000   1.0000   1.0000   1.0000   1.0000   1.0000  -0.0000  -0.0000
    -0.0000  -0.0000  -0.0000  -0.0000  -0.0000  -0.0000  -0.0000  -0.0000
    -0.0000  -0.0000  -0.0000  -0.0000  -0.0000  -0.0000

          k = 0.0000 0.1000 0.2000 (  9636 PWs)   bands (ev):

   -56.5129 -56.5129 -56.4887 -56.4887 -56.4809 -56.4809 -56.4773 -56.4773
   -28.5912 -28.5846 -28.5775 -28.5769 -28.5596 -28.5559 -28.4936 -28.4935
   -27.6363 -27.6300 -27.5970 -27.5911 -27.5547 -27.5487 -27.5413 -27.5385
   -27.5262 -27.5074 -27.4680 -27.4631 -27.4566 -27.4509 -27.4440 -27.4391
     3.0428   3.0429   6.3259   6.3290   7.3970   7.3996   8.3525   8.3587
     9.8332   9.8364  10.6457  10.6487  10.7647  10.7686  11.4219  11.4235
    11.6077  11.6125  12.3954  12.4036  12.6325  12.6360  13.0051  13.0161
    13.0979  13.1043  13.1350  13.1362  13.2137  13.2164  13.2999  13.3022
    13.4893  13.4947  13.7054  13.7189  14.0453  14.0517  15.2131  15.2365
    15.3445  15.3580  15.5937  15.6087  15.7093  15.7273  15.8270  15.8507
    16.3031  16.3203  16.5833  16.5943  17.0599  17.0895

     occupation numbers 
     1.0000   1.0000   1.0000   1.0000   1.0000   1.0000   1.0000   1.0000
     1.0000   1.0000   1.0000   1.0000   1.0000   1.0000   1.0000   1.0000
     1.0000   1.0000   1.0000   1.0000   1.0000   1.0000   1.0000   1.0000
     1.0000   1.0000   1.0000   1.0000   1.0000   1.0000   1.0000   1.0000
     1.0000   1.0000   1.0000   1.0000   1.0000   1.0000   1.0000   1.0000
     1.0000   1.0000   1.0000   1.0000   1.0000   1.0000   1.0000   1.0000
     1.0000   1.0000   1.0000   1.0000   1.0000   1.0000   1.0000   1.0000
     1.0000   1.0000   1.0000   1.0000   1.0000   1.0000   1.0000   1.0000
     1.0000   1.0000   1.0000   1.0000   1.0000   1.0000  -0.0021  -0.0008
    -0.0000  -0.0000  -0.0000  -0.0000  -0.0000  -0.0000  -0.0000  -0.0000
    -0.0000  -0.0000  -0.0000  -0.0000  -0.0000  -0.0000

          k = 0.0000 0.1000 0.3000 (  9642 PWs)   bands (ev):

   -56.5100 -56.5100 -56.4928 -56.4928 -56.4801 -56.4801 -56.4770 -56.4770
   -28.5920 -28.5857 -28.5808 -28.5784 -28.5489 -28.5460 -28.5018 -28.5015
   -27.6402 -27.6330 -27.5875 -27.5822 -27.5615 -27.5482 -27.5415 -27.5350
   -27.5268 -27.4967 -27.4792 -27.4660 -27.4602 -27.4538 -27.4424 -27.4377
     3.3782   3.3783   5.6883   5.6898   7.5764   7.5782   8.5077   8.5135
     9.6889   9.6903  10.3946  10.3990  10.9284  10.9299  11.2919  11.3025
    11.7040  11.7071  12.2164  12.2295  12.7191  12.7227  13.0164  13.0264
    13.0321  13.0349  13.2265  13.2326  13.2981  13.2996  13.4128  13.4169
    13.5151  13.5239  13.8855  13.8977  14.1188  14.1243  14.9670  14.9983
    15.3127  15.3253  15.4893  15.5043  15.6987  15.7229  15.8514  15.8772
    16.1924  16.2059  16.4505  16.4639  17.2316  17.2600

     occupation numbers 
     1.0000   1.0000   1.0000   1.0000   1.0000   1.0000   1.0000   1.0000
     1.0000   1.0000   1.0000   1.0000   1.0000   1.0000   1.0000   1.0000
     1.0000   1.0000   1.0000   1.0000   1.0000   1.0000   1.0000   1.0000
     1.0000   1.0000   1.0000   1.0000   1.0000   1.0000   1.0000   1.0000
     1.0000   1.0000   1.0000   1.0000   1.0000   1.0000   1.0000   1.0000
     1.0000   1.0000   1.0000   1.0000   1.0000   1.0000   1.0000   1.0000
     1.0000   1.0000   1.0000   1.0000   1.0000   1.0000   1.0000   1.0000
     1.0000   1.0000   1.0000   1.0000   1.0000   1.0000   1.0000   1.0000
     1.0000   1.0000   1.0000   1.0000   1.0000   1.0000   0.4125   0.1949
    -0.0000  -0.0000  -0.0000  -0.0000  -0.0000  -0.0000  -0.0000  -0.0000
    -0.0000  -0.0000  -0.0000  -0.0000  -0.0000  -0.0000

          k = 0.0000 0.1000 0.4000 (  9650 PWs)   bands (ev):

   -56.5062 -56.5062 -56.4973 -56.4973 -56.4791 -56.4791 -56.4773 -56.4773
   -28.5911 -28.5863 -28.5835 -28.5806 -28.5369 -28.5348 -28.5124 -28.5116
   -27.6411 -27.6365 -27.5793 -27.5726 -27.5680 -27.5498 -27.5431 -27.5320
   -27.5223 -27.4934 -27.4855 -27.4694 -27.4618 -27.4569 -27.4409 -27.4379
     3.8326   3.8328   5.0208   5.0215   7.8364   7.8387   8.4143   8.4188
     9.7549   9.7584  10.2271  10.2310  11.0030  11.0077  11.0667  11.0795
    11.9589  11.9646  12.1919  12.2006  12.6469  12.6518  12.8515  12.8605
    13.0638  13.0685  13.2675  13.2714  13.3062  13.3087  13.3722  13.3739
    13.6275  13.6316  13.9415  13.9467  14.3358  14.3552  14.7773  14.8114
    15.3075  15.3226  15.3961  15.4106  15.7199  15.7468  15.8300  15.8584
    16.1460  16.1550  16.3081  16.3211  17.3506  17.3684

     occupation numbers 
     1.0000   1.0000   1.0000   1.0000   1.0000   1.0000   1.0000   1.0000
     1.0000   1.0000   1.0000   1.0000   1.0000   1.0000   1.0000   1.0000
     1.0000   1.0000   1.0000   1.0000   1.0000   1.0000   1.0000   1.0000
     1.0000   1.0000   1.0000   1.0000   1.0000   1.0000   1.0000   1.0000
     1.0000   1.0000   1.0000   1.0000   1.0000   1.0000   1.0000   1.0000
     1.0000   1.0000   1.0000   1.0000   1.0000   1.0000   1.0000   1.0000
     1.0000   1.0000   1.0000   1.0000   1.0000   1.0000   1.0000   1.0000
     1.0000   1.0000   1.0000   1.0000   1.0000   1.0000   1.0000   1.0000
     1.0000   1.0000   1.0000   1.0000   1.0000   1.0000   1.0213   1.0341
    -0.0000  -0.0000  -0.0000  -0.0000  -0.0000  -0.0000  -0.0000  -0.0000
    -0.0000  -0.0000  -0.0000  -0.0000  -0.0000  -0.0000

          k = 0.0000 0.1000-0.5000 (  9676 PWs)   bands (ev):

   -56.5019 -56.5019 -56.5019 -56.5019 -56.4781 -56.4781 -56.4781 -56.4781
   -28.5888 -28.5888 -28.5828 -28.5828 -28.5247 -28.5247 -28.5227 -28.5227
   -27.6396 -27.6396 -27.5738 -27.5738 -27.5605 -27.5605 -27.5376 -27.5376
   -27.5079 -27.5079 -27.4765 -27.4765 -27.4599 -27.4599 -27.4393 -27.4393
     4.3888   4.3888   4.3892   4.3892   8.1378   8.1378   8.1446   8.1446
     9.9958   9.9958  10.0002  10.0002  10.9956  10.9956  11.0093  11.0093
    12.1786  12.1786  12.1844  12.1844  12.6270  12.6270  12.6432  12.6432
    13.1986  13.1986  13.2023  13.2023  13.3004  13.3004  13.3021  13.3021
    13.8129  13.8129  13.8164  13.8164  14.5879  14.5879  14.6177  14.6177
    15.3343  15.3343  15.3508  15.3508  15.7752  15.7752  15.8050  15.8050
    16.1900  16.1900  16.2015  16.2015  17.5341  17.5376

     occupation numbers 
     1.0000   1.0000   1.0000   1.0000   1.0000   1.0000   1.0000   1.0000
     1.0000   1.0000   1.0000   1.0000   1.0000   1.0000   1.0000   1.0000
     1.0000   1.0000   1.0000   1.0000   1.0000   1.0000   1.0000   1.0000
     1.0000   1.0000   1.0000   1.0000   1.0000   1.0000   1.0000   1.0000
     1.0000   1.0000   1.0000   1.0000   1.0000   1.0000   1.0000   1.0000
     1.0000   1.0000   1.0000   1.0000   1.0000   1.0000   1.0000   1.0000
     1.0000   1.0000   1.0000   1.0000   1.0000   1.0000   1.0000   1.0000
     1.0000   1.0000   1.0000   1.0000   1.0000   1.0000   1.0000   1.0000
     1.0000   1.0000   1.0000   1.0000   1.0000   1.0000   1.0001   1.0001
    -0.0000  -0.0000  -0.0000  -0.0000  -0.0000  -0.0000  -0.0000  -0.0000
    -0.0000  -0.0000  -0.0000  -0.0000  -0.0000  -0.0000

          k = 0.0000 0.2000 0.2000 (  9629 PWs)   bands (ev):

   -56.5112 -56.5112 -56.4904 -56.4904 -56.4813 -56.4813 -56.4770 -56.4770
   -28.5918 -28.5859 -28.5761 -28.5757 -28.5562 -28.5523 -28.4986 -28.4983
   -27.6361 -27.6323 -27.5898 -27.5870 -27.5544 -27.5534 -27.5431 -27.5406
   -27.5224 -27.5002 -27.4755 -27.4695 -27.4609 -27.4497 -27.4407 -27.4364
     3.2453   3.2453   6.2135   6.2174   7.1066   7.1110   8.4947   8.4998
     9.7695   9.7715  10.3197  10.3236  10.8494  10.8513  11.3879  11.3900
    11.7955  11.7970  12.3656  12.3694  12.5710  12.5790  12.9915  12.9989
    13.1297  13.1409  13.1916  13.1950  13.3263  13.3285  13.4080  13.4204
    13.4895  13.4959  13.8245  13.8385  14.1258  14.1331  15.1679  15.1892
    15.2392  15.2605  15.4431  15.4558  15.6641  15.6876  15.8091  15.8352
    16.2126  16.2276  16.5669  16.5778  17.1087  17.1479

     occupation numbers 
     1.0000   1.0000   1.0000   1.0000   1.0000   1.0000   1.0000   1.0000
     1.0000   1.0000   1.0000   1.0000   1.0000   1.0000   1.0000   1.0000
     1.0000   1.0000   1.0000   1.0000   1.0000   1.0000   1.0000   1.0000
     1.0000   1.0000   1.0000   1.0000   1.0000   1.0000   1.0000   1.0000
     1.0000   1.0000   1.0000   1.0000   1.0000   1.0000   1.0000   1.0000
     1.0000   1.0000   1.0000   1.0000   1.0000   1.0000   1.0000   1.0000
     1.0000   1.0000   1.0000   1.0000   1.0000   1.0000   1.0000   1.0000
     1.0000   1.0000   1.0000   1.0000   1.0000   1.0000   1.0000   1.0000
     1.0000   1.0000   1.0000   1.0000   1.0000   1.0000  -0.0094  -0.0049
    -0.0007  -0.0003  -0.0000  -0.0000  -0.0000  -0.0000  -0.0000  -0.0000
    -0.0000  -0.0000  -0.0000  -0.0000  -0.0000  -0.0000

          k = 0.0000 0.2000 0.3000 (  9653 PWs)   bands (ev):

   -56.5085 -56.5085 -56.4933 -56.4933 -56.4809 -56.4809 -56.4772 -56.4772
   -28.5912 -28.5858 -28.5777 -28.5762 -28.5486 -28.5455 -28.5062 -28.5060
   -27.6369 -27.6326 -27.5846 -27.5797 -27.5609 -27.5523 -27.5432 -27.5379
   -27.5231 -27.4934 -27.4862 -27.4733 -27.4640 -27.4501 -27.4382 -27.4344
     3.5754   3.5757   5.7765   5.7790   7.1293   7.1329   8.4353   8.4391
     9.7420   9.7454  10.1781  10.1827  10.9537  10.9555  11.4461  11.4495
    11.7630  11.7645  12.2214  12.2264  12.5371  12.5451  12.8817  12.8897
    13.1661  13.1783  13.2249  13.2288  13.4069  13.4074  13.5502  13.5611
    13.5859  13.5977  13.9900  14.0025  14.2293  14.2382  14.9838  15.0111
    15.1725  15.1942  15.3163  15.3262  15.6290  15.6535  15.7838  15.8140
    16.1557  16.1660  16.4878  16.4994  17.1990  17.2381

     occupation numbers 
     1.0000   1.0000   1.0000   1.0000   1.0000   1.0000   1.0000   1.0000
     1.0000   1.0000   1.0000   1.0000   1.0000   1.0000   1.0000   1.0000
     1.0000   1.0000   1.0000   1.0000   1.0000   1.0000   1.0000   1.0000
     1.0000   1.0000   1.0000   1.0000   1.0000   1.0000   1.0000   1.0000
     1.0000   1.0000   1.0000   1.0000   1.0000   1.0000   1.0000   1.0000
     1.0000   1.0000   1.0000   1.0000   1.0000   1.0000   1.0000   1.0000
     1.0000   1.0000   1.0000   1.0000   1.0000   1.0000   1.0000   1.0000
     1.0000   1.0000   1.0000   1.0000   1.0000   1.0000   1.0000   1.0000
     1.0000   1.0000   1.0000   1.0000   1.0000   1.0000   0.2887   0.1247
    -0.0082  -0.0041  -0.0000  -0.0000  -0.0000  -0.0000  -0.0000  -0.0000
    -0.0000  -0.0000  -0.0000  -0.0000  -0.0000  -0.0000

          k = 0.0000 0.2000 0.4000 (  9651 PWs)   bands (ev):

   -56.5050 -56.5050 -56.4970 -56.4970 -56.4800 -56.4800 -56.4779 -56.4779
   -28.5893 -28.5849 -28.5806 -28.5783 -28.5384 -28.5364 -28.5160 -28.5154
   -27.6366 -27.6333 -27.5807 -27.5733 -27.5653 -27.5529 -27.5426 -27.5307
   -27.5254 -27.5002 -27.4866 -27.4772 -27.4620 -27.4528 -27.4362 -27.4339
     4.0216   4.0220   5.1715   5.1727   7.3848   7.3873   8.1324   8.1351
     9.8719   9.8754  10.1409  10.1443  11.0537  11.0605  11.3122  11.3244
    11.8756  11.8800  12.0989  12.1050  12.4984  12.5091  12.6804  12.6911
    13.2244  13.2299  13.2756  13.2808  13.4055  13.4078  13.5609  13.5632
    13.7422  13.7463  14.0116  14.0191  14.4430  14.4682  14.7927  14.8242
    15.1660  15.1839  15.2242  15.2291  15.6282  15.6542  15.7337  15.7658
    16.1806  16.1867  16.3890  16.4015  17.2687  17.2936

     occupation numbers 
     1.0000   1.0000   1.0000   1.0000   1.0000   1.0000   1.0000   1.0000
     1.0000   1.0000   1.0000   1.0000   1.0000   1.0000   1.0000   1.0000
     1.0000   1.0000   1.0000   1.0000   1.0000   1.0000   1.0000   1.0000
     1.0000   1.0000   1.0000   1.0000   1.0000   1.0000   1.0000   1.0000
     1.0000   1.0000   1.0000   1.0000   1.0000   1.0000   1.0000   1.0000
     1.0000   1.0000   1.0000   1.0000   1.0000   1.0000   1.0000   1.0000
     1.0000   1.0000   1.0000   1.0000   1.0000   1.0000   1.0000   1.0000
     1.0000   1.0000   1.0000   1.0000   1.0000   1.0000   1.0000   1.0000
     1.0000   1.0000   1.0000   1.0000   1.0000   1.0000   1.0278   1.0354
    -0.0099  -0.0058  -0.0013  -0.0011  -0.0000  -0.0000  -0.0000  -0.0000
    -0.0000  -0.0000  -0.0000  -0.0000  -0.0000  -0.0000

          k = 0.0000 0.2000-0.5000 (  9650 PWs)   bands (ev):

   -56.5011 -56.5011 -56.5011 -56.5011 -56.4789 -56.4789 -56.4789 -56.4789
   -28.5864 -28.5864 -28.5806 -28.5806 -28.5280 -28.5280 -28.5251 -28.5251
   -27.6351 -27.6351 -27.5762 -27.5762 -27.5595 -27.5595 -27.5365 -27.5365
   -27.5137 -27.5137 -27.4818 -27.4818 -27.4573 -27.4573 -27.4346 -27.4346
     4.5645   4.5645   4.5653   4.5653   7.7412   7.7412   7.7479   7.7479
    10.0486  10.0486  10.0522  10.0522  11.1495  11.1495  11.1630  11.1630
    12.0403  12.0403  12.0438  12.0438  12.4894  12.4894  12.5042  12.5042
    13.3087  13.3087  13.3118  13.3118  13.4384  13.4384  13.4411  13.4411
    13.9067  13.9067  13.9112  13.9112  14.6382  14.6382  14.6699  14.6699
    15.1770  15.1770  15.1905  15.1905  15.6709  15.6709  15.7005  15.7005
    16.2737  16.2737  16.2844  16.2844  17.4432  17.4476

     occupation numbers 
     1.0000   1.0000   1.0000   1.0000   1.0000   1.0000   1.0000   1.0000
     1.0000   1.0000   1.0000   1.0000   1.0000   1.0000   1.0000   1.0000
     1.0000   1.0000   1.0000   1.0000   1.0000   1.0000   1.0000   1.0000
     1.0000   1.0000   1.0000   1.0000   1.0000   1.0000   1.0000   1.0000
     1.0000   1.0000   1.0000   1.0000   1.0000   1.0000   1.0000   1.0000
     1.0000   1.0000   1.0000   1.0000   1.0000   1.0000   1.0000   1.0000
     1.0000   1.0000   1.0000   1.0000   1.0000   1.0000   1.0000   1.0000
     1.0000   1.0000   1.0000   1.0000   1.0000   1.0000   1.0000   1.0000
     1.0000   1.0000   1.0000   1.0000   1.0001   1.0001   1.0006   1.0006
    -0.0072  -0.0072  -0.0046  -0.0046  -0.0000  -0.0000  -0.0000  -0.0000
    -0.0000  -0.0000  -0.0000  -0.0000  -0.0000  -0.0000

          k = 0.0000 0.3000 0.3000 (  9641 PWs)   bands (ev):

   -56.5061 -56.5061 -56.4946 -56.4946 -56.4814 -56.4814 -56.4778 -56.4778
   -28.5892 -28.5845 -28.5761 -28.5752 -28.5459 -28.5430 -28.5132 -28.5126
   -27.6330 -27.6309 -27.5835 -27.5781 -27.5610 -27.5530 -27.5411 -27.5393
   -27.5224 -27.4962 -27.4933 -27.4816 -27.4621 -27.4461 -27.4356 -27.4323
     3.8962   3.8965   5.7563   5.7589   6.7779   6.7812   8.1200   8.1244
     9.8829   9.8864  10.2221  10.2263  10.9525  10.9548  11.2879  11.2893
    11.9117  11.9183  12.2058  12.2111  12.3903  12.4009  12.7565  12.7636
    13.1515  13.1603  13.3632  13.3722  13.4936  13.4987  13.6395  13.6458
    13.7468  13.7584  14.0593  14.0723  14.3834  14.4037  14.9280  14.9452
    15.0229  15.0458  15.1461  15.1579  15.5575  15.5822  15.6722  15.7027
    16.1812  16.1898  16.4872  16.4958  17.1814  17.2185

     occupation numbers 
     1.0000   1.0000   1.0000   1.0000   1.0000   1.0000   1.0000   1.0000
     1.0000   1.0000   1.0000   1.0000   1.0000   1.0000   1.0000   1.0000
     1.0000   1.0000   1.0000   1.0000   1.0000   1.0000   1.0000   1.0000
     1.0000   1.0000   1.0000   1.0000   1.0000   1.0000   1.0000   1.0000
     1.0000   1.0000   1.0000   1.0000   1.0000   1.0000   1.0000   1.0000
     1.0000   1.0000   1.0000   1.0000   1.0000   1.0000   1.0000   1.0000
     1.0000   1.0000   1.0000   1.0000   1.0000   1.0000   1.0000   1.0000
     1.0000   1.0000   1.0000   1.0000   1.0000   1.0000   1.0000   1.0000
     1.0000   1.0000   1.0000   1.0000   1.0000   1.0000   0.7071   0.5812
     0.0720   0.0030  -0.0164  -0.0123  -0.0000  -0.0000  -0.0000  -0.0000
    -0.0000  -0.0000  -0.0000  -0.0000  -0.0000  -0.0000

          k = 0.0000 0.3000 0.4000 (  9635 PWs)   bands (ev):

   -56.5032 -56.5032 -56.4969 -56.4969 -56.4810 -56.4810 -56.4788 -56.4788
   -28.5862 -28.5824 -28.5775 -28.5758 -28.5396 -28.5377 -28.5216 -28.5210
   -27.6298 -27.6282 -27.5853 -27.5800 -27.5587 -27.5512 -27.5407 -27.5313
   -27.5266 -27.5056 -27.4962 -27.4884 -27.4556 -27.4458 -27.4337 -27.4315
     4.3268   4.3274   5.3795   5.3814   6.8560   6.8591   7.6669   7.6701
    10.0827  10.0851  10.2805  10.2830  11.0335  11.0369  11.3612  11.3685
    11.8661  11.8698  11.9503  11.9528  12.3435  12.3529  12.5149  12.5250
    13.2529  13.2615  13.4275  13.4287  13.4863  13.4866  13.7137  13.7178
    13.9460  13.9518  14.1242  14.1330  14.5480  14.5760  14.7619  14.7835
    14.9726  14.9921  15.0370  15.0500  15.5247  15.5473  15.5897  15.6203
    16.2734  16.2819  16.4808  16.4889  17.1357  17.1591

     occupation numbers 
     1.0000   1.0000   1.0000   1.0000   1.0000   1.0000   1.0000   1.0000
     1.0000   1.0000   1.0000   1.0000   1.0000   1.0000   1.0000   1.0000
     1.0000   1.0000   1.0000   1.0000   1.0000   1.0000   1.0000   1.0000
     1.0000   1.0000   1.0000   1.0000   1.0000   1.0000   1.0000   1.0000
     1.0000   1.0000   1.0000   1.0000   1.0000   1.0000   1.0000   1.0000
     1.0000   1.0000   1.0000   1.0000   1.0000   1.0000   1.0000   1.0000
     1.0000   1.0000   1.0000   1.0000   1.0000   1.0000   1.0000   1.0000
     1.0000   1.0000   1.0000   1.0000   1.0000   1.0000   1.0000   1.0000
     1.0000   1.0000   1.0000   1.0000   1.0000   1.0000   1.0152   1.0239
     0.3701   0.2336   0.0246  -0.0053  -0.0000  -0.0000  -0.0000  -0.0000
    -0.0000  -0.0000  -0.0000  -0.0000  -0.0000  -0.0000

          k = 0.0000 0.3000-0.5000 (  9642 PWs)   bands (ev):

   -56.5000 -56.5000 -56.5000 -56.5000 -56.4800 -56.4800 -56.4800 -56.4800
   -28.5828 -28.5828 -28.5778 -28.5778 -28.5319 -28.5319 -28.5288 -28.5288
   -27.6278 -27.6278 -27.5841 -27.5841 -27.5539 -27.5539 -27.5350 -27.5350
   -27.5184 -27.5184 -27.4934 -27.4934 -27.4494 -27.4494 -27.4321 -27.4321
     4.8412   4.8412   4.8425   4.8425   7.2108   7.2108   7.2163   7.2163
    10.2420  10.2420  10.2444  10.2444  11.2287  11.2287  11.2382  11.2382
    11.8469  11.8469  11.8504  11.8504  12.3615  12.3615  12.3709  12.3709
    13.3624  13.3624  13.3700  13.3700  13.6055  13.6055  13.6136  13.6136
    14.0919  14.0919  14.0979  14.0979  14.6426  14.6426  14.6676  14.6676
    14.9951  14.9951  15.0070  15.0070  15.5352  15.5352  15.5619  15.5619
    16.3969  16.3969  16.4079  16.4079  17.2621  17.2654

     occupation numbers 
     1.0000   1.0000   1.0000   1.0000   1.0000   1.0000   1.0000   1.0000
     1.0000   1.0000   1.0000   1.0000   1.0000   1.0000   1.0000   1.0000
     1.0000   1.0000   1.0000   1.0000   1.0000   1.0000   1.0000   1.0000
     1.0000   1.0000   1.0000   1.0000   1.0000   1.0000   1.0000   1.0000
     1.0000   1.0000   1.0000   1.0000   1.0000   1.0000   1.0000   1.0000
     1.0000   1.0000   1.0000   1.0000   1.0000   1.0000   1.0000   1.0000
     1.0000   1.0000   1.0000   1.0000   1.0000   1.0000   1.0000   1.0000
     1.0000   1.0000   1.0000   1.0000   1.0000   1.0000   1.0000   1.0000
     1.0000   1.0000   1.0000   1.0000   1.0002   1.0002   1.0006   1.0006
     0.2142   0.2142   0.1457   0.1457  -0.0000  -0.0000  -0.0000  -0.0000
    -0.0000  -0.0000  -0.0000  -0.0000  -0.0000  -0.0000

          k = 0.0000 0.4000 0.4000 (  9636 PWs)   bands (ev):

   -56.5010 -56.5010 -56.4975 -56.4975 -56.4814 -56.4814 -56.4800 -56.4800
   -28.5823 -28.5794 -28.5759 -28.5750 -28.5386 -28.5371 -28.5281 -28.5272
   -27.6222 -27.6221 -27.5919 -27.5889 -27.5511 -27.5473 -27.5376 -27.5297
   -27.5288 -27.5091 -27.5071 -27.4987 -27.4476 -27.4406 -27.4337 -27.4312
     4.7280   4.7287   5.4691   5.4704   6.5219   6.5236   7.1470   7.1496
    10.3760  10.3765  10.5508  10.5517  10.9050  10.9054  11.2351  11.2385
    11.6915  11.6924  11.9444  11.9498  12.2654  12.2659  12.3946  12.4009
    13.2701  13.2769  13.3815  13.3821  13.7473  13.7491  13.8776  13.8824
    14.1458  14.1543  14.2001  14.2057  14.5513  14.5597  14.6734  14.6918
    14.8203  14.8365  14.9028  14.9271  15.4535  15.4695  15.4751  15.4986
    16.3834  16.3950  16.5293  16.5344  17.0554  17.0731

     occupation numbers 
     1.0000   1.0000   1.0000   1.0000   1.0000   1.0000   1.0000   1.0000
     1.0000   1.0000   1.0000   1.0000   1.0000   1.0000   1.0000   1.0000
     1.0000   1.0000   1.0000   1.0000   1.0000   1.0000   1.0000   1.0000
     1.0000   1.0000   1.0000   1.0000   1.0000   1.0000   1.0000   1.0000
     1.0000   1.0000   1.0000   1.0000   1.0000   1.0000   1.0000   1.0000
     1.0000   1.0000   1.0000   1.0000   1.0000   1.0000   1.0000   1.0000
     1.0000   1.0000   1.0000   1.0000   1.0000   1.0000   1.0000   1.0000
     1.0000   1.0000   1.0000   1.0000   1.0000   1.0000   1.0000   1.0000
     1.0000   1.0000   1.0000   1.0000   1.0000   1.0000   1.0008   1.0016
     1.0354   1.0324   0.8622   0.7135  -0.0000  -0.0000  -0.0000  -0.0000
    -0.0000  -0.0000  -0.0000  -0.0000  -0.0000  -0.0000

          k = 0.0000 0.4000-0.5000 (  9646 PWs)   bands (ev):

   -56.4990 -56.4990 -56.4990 -56.4990 -56.4810 -56.4810 -56.4810 -56.4810
   -28.5788 -28.5788 -28.5758 -28.5758 -28.5349 -28.5349 -28.5327 -28.5327
   -27.6181 -27.6181 -27.5951 -27.5951 -27.5459 -27.5459 -27.5348 -27.5348
   -27.5199 -27.5199 -27.5057 -27.5057 -27.4417 -27.4417 -27.4325 -27.4325
     5.1724   5.1724   5.1739   5.1739   6.6927   6.6927   6.6963   6.6963
    10.5221  10.5221  10.5231  10.5231  11.2415  11.2415  11.2500  11.2500
    11.5667  11.5667  11.5758  11.5758  12.2999  12.2999  12.3037  12.3037
    13.3628  13.3628  13.3675  13.3675  13.8272  13.8272  13.8363  13.8363
    14.3263  14.3263  14.3299  14.3299  14.4966  14.4966  14.5047  14.5047
    14.8519  14.8519  14.8718  14.8718  15.4395  15.4395  15.4558  15.4558
    16.5207  16.5207  16.5300  16.5300  17.0703  17.0715

     occupation numbers 
     1.0000   1.0000   1.0000   1.0000   1.0000   1.0000   1.0000   1.0000
     1.0000   1.0000   1.0000   1.0000   1.0000   1.0000   1.0000   1.0000
     1.0000   1.0000   1.0000   1.0000   1.0000   1.0000   1.0000   1.0000
     1.0000   1.0000   1.0000   1.0000   1.0000   1.0000   1.0000   1.0000
     1.0000   1.0000   1.0000   1.0000   1.0000   1.0000   1.0000   1.0000
     1.0000   1.0000   1.0000   1.0000   1.0000   1.0000   1.0000   1.0000
     1.0000   1.0000   1.0000   1.0000   1.0000   1.0000   1.0000   1.0000
     1.0000   1.0000   1.0000   1.0000   1.0000   1.0000   1.0000   1.0000
     1.0000   1.0000   1.0000   1.0000   1.0000   1.0000   1.0000   1.0000
     1.0196   1.0196   0.9821   0.9821  -0.0000  -0.0000  -0.0000  -0.0000
    -0.0000  -0.0000  -0.0000  -0.0000  -0.0000  -0.0000

          k = 0.0000-0.5000-0.5000 (  9580 PWs)   bands (ev):

   -56.4985 -56.4985 -56.4985 -56.4985 -56.4814 -56.4814 -56.4814 -56.4814
   -28.5760 -28.5760 -28.5760 -28.5760 -28.5353 -28.5353 -28.5353 -28.5353
   -27.6069 -27.6069 -27.6069 -27.6069 -27.5385 -27.5385 -27.5385 -27.5385
   -27.5155 -27.5155 -27.5155 -27.5155 -27.4358 -27.4358 -27.4358 -27.4358
     5.3718   5.3718   5.3718   5.3718   6.4280   6.4280   6.4280   6.4280
    10.7057  10.7057  10.7057  10.7057  11.2422  11.2422  11.2422  11.2422
    11.3850  11.3850  11.3850  11.3850  12.2846  12.2846  12.2846  12.2846
    13.3609  13.3609  13.3609  13.3609  14.0067  14.0067  14.0067  14.0067
    14.2918  14.2918  14.2918  14.2918  14.5255  14.5255  14.5255  14.5255
    14.7581  14.7581  14.7581  14.7581  15.4152  15.4152  15.4152  15.4152
    16.5873  16.5873  16.5873  16.5873  16.9828  16.9828

     occupation numbers 
     1.0000   1.0000   1.0000   1.0000   1.0000   1.0000   1.0000   1.0000
     1.0000   1.0000   1.0000   1.0000   1.0000   1.0000   1.0000   1.0000
     1.0000   1.0000   1.0000   1.0000   1.0000   1.0000   1.0000   1.0000
     1.0000   1.0000   1.0000   1.0000   1.0000   1.0000   1.0000   1.0000
     1.0000   1.0000   1.0000   1.0000   1.0000   1.0000   1.0000   1.0000
     1.0000   1.0000   1.0000   1.0000   1.0000   1.0000   1.0000   1.0000
     1.0000   1.0000   1.0000   1.0000   1.0000   1.0000   1.0000   1.0000
     1.0000   1.0000   1.0000   1.0000   1.0000   1.0000   1.0000   1.0000
     1.0000   1.0000   1.0000   1.0000   1.0000   1.0000   1.0000   1.0000
     1.0139   1.0139   1.0139   1.0139  -0.0000  -0.0000  -0.0000  -0.0000
    -0.0000  -0.0000  -0.0000  -0.0000  -0.0000  -0.0000

          k = 0.1000 0.1000 0.1000 (  9669 PWs)   bands (ev):

   -56.5141 -56.5141 -56.4865 -56.4865 -56.4815 -56.4815 -56.4778 -56.4778
   -28.5900 -28.5835 -28.5761 -28.5748 -28.5656 -28.5612 -28.4901 -28.4900
   -27.6312 -27.6301 -27.6011 -27.5976 -27.5515 -27.5446 -27.5429 -27.5417
   -27.5262 -27.5132 -27.4649 -27.4582 -27.4545 -27.4518 -27.4436 -27.4406
     2.9063   2.9063   6.7166   6.7231   7.2687   7.2750   8.1858   8.1907
     9.9890   9.9946  10.6190  10.6197  10.8715  10.8716  11.1921  11.1975
    11.9280  11.9291  12.3622  12.3756  12.6872  12.6884  12.8056  12.8139
    13.0087  13.0094  13.1661  13.1665  13.2131  13.2182  13.2397  13.2430
    13.4570  13.4607  13.6791  13.6828  13.9963  14.0014  15.3603  15.3645
    15.4270  15.4284  15.6208  15.6263  15.6864  15.6991  15.8003  15.8097
    16.3818  16.4016  16.6660  16.6721  16.9089  16.9403

     occupation numbers 
     1.0000   1.0000   1.0000   1.0000   1.0000   1.0000   1.0000   1.0000
     1.0000   1.0000   1.0000   1.0000   1.0000   1.0000   1.0000   1.0000
     1.0000   1.0000   1.0000   1.0000   1.0000   1.0000   1.0000   1.0000
     1.0000   1.0000   1.0000   1.0000   1.0000   1.0000   1.0000   1.0000
     1.0000   1.0000   1.0000   1.0000   1.0000   1.0000   1.0000   1.0000
     1.0000   1.0000   1.0000   1.0000   1.0000   1.0000   1.0000   1.0000
     1.0000   1.0000   1.0000   1.0000   1.0000   1.0000   1.0000   1.0000
     1.0000   1.0000   1.0000   1.0000   1.0000   1.0000   1.0000   1.0000
     1.0000   1.0000   1.0000   1.0000   1.0000   1.0000  -0.0000  -0.0000
    -0.0000  -0.0000  -0.0000  -0.0000  -0.0000  -0.0000  -0.0000  -0.0000
    -0.0000  -0.0000  -0.0000  -0.0000  -0.0000  -0.0000

          k = 0.1000 0.1000 0.2000 (  9653 PWs)   bands (ev):

   -56.5123 -56.5123 -56.4891 -56.4891 -56.4813 -56.4813 -56.4772 -56.4772
   -28.5915 -28.5853 -28.5762 -28.5759 -28.5591 -28.5551 -28.4953 -28.4951
   -27.6358 -27.6311 -27.5949 -27.5889 -27.5547 -27.5491 -27.5431 -27.5416
   -27.5231 -27.5046 -27.4728 -27.4625 -27.4573 -27.4537 -27.4412 -27.4381
     3.1107   3.1107   6.3284   6.3324   7.2721   7.2765   8.3627   8.3676
     9.8303   9.8335  10.5509  10.5531  10.6971  10.7002  11.3545  11.3594
    11.8171  11.8217  12.3555  12.3583  12.7046  12.7083  12.9593  12.9605
    13.0694  13.0773  13.1333  13.1366  13.2682  13.2728  13.3451  13.3576
    13.5127  13.5276  13.7242  13.7334  14.0853  14.0925  15.2031  15.2265
    15.3334  15.3479  15.5457  15.5592  15.6465  15.6627  15.8242  15.8418
    16.2725  16.2906  16.5962  16.6080  17.0413  17.0745

     occupation numbers 
     1.0000   1.0000   1.0000   1.0000   1.0000   1.0000   1.0000   1.0000
     1.0000   1.0000   1.0000   1.0000   1.0000   1.0000   1.0000   1.0000
     1.0000   1.0000   1.0000   1.0000   1.0000   1.0000   1.0000   1.0000
     1.0000   1.0000   1.0000   1.0000   1.0000   1.0000   1.0000   1.0000
     1.0000   1.0000   1.0000   1.0000   1.0000   1.0000   1.0000   1.0000
     1.0000   1.0000   1.0000   1.0000   1.0000   1.0000   1.0000   1.0000
     1.0000   1.0000   1.0000   1.0000   1.0000   1.0000   1.0000   1.0000
     1.0000   1.0000   1.0000   1.0000   1.0000   1.0000   1.0000   1.0000
     1.0000   1.0000   1.0000   1.0000   1.0000   1.0000  -0.0030  -0.0012
    -0.0000  -0.0000  -0.0000  -0.0000  -0.0000  -0.0000  -0.0000  -0.0000
    -0.0000  -0.0000  -0.0000  -0.0000  -0.0000  -0.0000

          k = 0.1000 0.1000 0.3000 (  9634 PWs)   bands (ev):

   -56.5095 -56.5095 -56.4929 -56.4929 -56.4805 -56.4805 -56.4770 -56.4770
   -28.5918 -28.5860 -28.5793 -28.5774 -28.5492 -28.5461 -28.5034 -28.5029
   -27.6390 -27.6328 -27.5865 -27.5809 -27.5608 -27.5490 -27.5445 -27.5372
   -27.5237 -27.4957 -27.4817 -27.4664 -27.4611 -27.4560 -27.4395 -27.4366
     3.4444   3.4445   5.7264   5.7281   7.4472   7.4495   8.4626   8.4681
     9.6443   9.6454  10.3744  10.3789  10.8190  10.8227  11.3612  11.3658
    11.7650  11.7661  12.2468  12.2548  12.7656  12.7689  13.0166  13.0248
    13.0584  13.0651  13.1622  13.1676  13.3266  13.3302  13.3862  13.3926
    13.5962  13.5991  13.9086  13.9180  14.1570  14.1619  14.9665  14.9967
    15.2970  15.3111  15.4378  15.4527  15.6382  15.6591  15.8285  15.8504
    16.1783  16.1925  16.4656  16.4806  17.1983  17.2275

     occupation numbers 
     1.0000   1.0000   1.0000   1.0000   1.0000   1.0000   1.0000   1.0000
     1.0000   1.0000   1.0000   1.0000   1.0000   1.0000   1.0000   1.0000
     1.0000   1.0000   1.0000   1.0000   1.0000   1.0000   1.0000   1.0000
     1.0000   1.0000   1.0000   1.0000   1.0000   1.0000   1.0000   1.0000
     1.0000   1.0000   1.0000   1.0000   1.0000   1.0000   1.0000   1.0000
     1.0000   1.0000   1.0000   1.0000   1.0000   1.0000   1.0000   1.0000
     1.0000   1.0000   1.0000   1.0000   1.0000   1.0000   1.0000   1.0000
     1.0000   1.0000   1.0000   1.0000   1.0000   1.0000   1.0000   1.0000
     1.0000   1.0000   1.0000   1.0000   1.0000   1.0000   0.4164   0.2047
    -0.0000  -0.0000  -0.0000  -0.0000  -0.0000  -0.0000  -0.0000  -0.0000
    -0.0000  -0.0000  -0.0000  -0.0000  -0.0000  -0.0000

          k = 0.1000 0.1000 0.4000 (  9660 PWs)   bands (ev):

   -56.5058 -56.5058 -56.4971 -56.4971 -56.4794 -56.4794 -56.4775 -56.4775
   -28.5905 -28.5860 -28.5823 -28.5797 -28.5376 -28.5354 -28.5137 -28.5128
   -27.6397 -27.6355 -27.5785 -27.5728 -27.5672 -27.5522 -27.5432 -27.5317
   -27.5232 -27.4980 -27.4820 -27.4693 -27.4632 -27.4592 -27.4383 -27.4364
     3.8961   3.8963   5.0731   5.0739   7.7155   7.7178   8.3340   8.3388
     9.6763   9.6777  10.1907  10.1945  10.9271  10.9311  11.2411  11.2475
    11.8797  11.8841  12.2198  12.2236  12.7271  12.7304  12.9295  12.9371
    13.0624  13.0694  13.2316  13.2374  13.3070  13.3088  13.3795  13.3856
    13.6676  13.6708  13.9455  13.9513  14.3710  14.3921  14.7826  14.8165
    15.2803  15.2964  15.3471  15.3627  15.6657  15.6885  15.7915  15.8159
    16.1491  16.1585  16.3234  16.3373  17.3632  17.3810

     occupation numbers 
     1.0000   1.0000   1.0000   1.0000   1.0000   1.0000   1.0000   1.0000
     1.0000   1.0000   1.0000   1.0000   1.0000   1.0000   1.0000   1.0000
     1.0000   1.0000   1.0000   1.0000   1.0000   1.0000   1.0000   1.0000
     1.0000   1.0000   1.0000   1.0000   1.0000   1.0000   1.0000   1.0000
     1.0000   1.0000   1.0000   1.0000   1.0000   1.0000   1.0000   1.0000
     1.0000   1.0000   1.0000   1.0000   1.0000   1.0000   1.0000   1.0000
     1.0000   1.0000   1.0000   1.0000   1.0000   1.0000   1.0000   1.0000
     1.0000   1.0000   1.0000   1.0000   1.0000   1.0000   1.0000   1.0000
     1.0000   1.0000   1.0000   1.0000   1.0000   1.0000   1.0236   1.0350
    -0.0001  -0.0000  -0.0000  -0.0000  -0.0000  -0.0000  -0.0000  -0.0000
    -0.0000  -0.0000  -0.0000  -0.0000  -0.0000  -0.0000

          k = 0.1000 0.1000-0.5000 (  9662 PWs)   bands (ev):

   -56.5016 -56.5016 -56.5016 -56.5016 -56.4784 -56.4784 -56.4784 -56.4784
   -28.5880 -28.5880 -28.5820 -28.5820 -28.5260 -28.5260 -28.5234 -28.5234
   -27.6382 -27.6382 -27.5730 -27.5730 -27.5619 -27.5619 -27.5370 -27.5370
   -27.5109 -27.5109 -27.4748 -27.4748 -27.4620 -27.4620 -27.4372 -27.4372
     4.4481   4.4481   4.4486   4.4486   8.0331   8.0331   8.0394   8.0394
     9.9193   9.9193   9.9220   9.9220  11.0692  11.0692  11.0798  11.0798
    12.1014  12.1014  12.1056  12.1056  12.7596  12.7596  12.7728  12.7728
    13.1689  13.1689  13.1757  13.1757  13.3252  13.3252  13.3280  13.3280
    13.8211  13.8211  13.8260  13.8260  14.6065  14.6065  14.6374  14.6374
    15.2935  15.2935  15.3122  15.3122  15.7256  15.7256  15.7534  15.7534
    16.2037  16.2037  16.2146  16.2146  17.6017  17.6047

     occupation numbers 
     1.0000   1.0000   1.0000   1.0000   1.0000   1.0000   1.0000   1.0000
     1.0000   1.0000   1.0000   1.0000   1.0000   1.0000   1.0000   1.0000
     1.0000   1.0000   1.0000   1.0000   1.0000   1.0000   1.0000   1.0000
     1.0000   1.0000   1.0000   1.0000   1.0000   1.0000   1.0000   1.0000
     1.0000   1.0000   1.0000   1.0000   1.0000   1.0000   1.0000   1.0000
     1.0000   1.0000   1.0000   1.0000   1.0000   1.0000   1.0000   1.0000
     1.0000   1.0000   1.0000   1.0000   1.0000   1.0000   1.0000   1.0000
     1.0000   1.0000   1.0000   1.0000   1.0000   1.0000   1.0000   1.0000
     1.0000   1.0000   1.0000   1.0000   1.0000   1.0000   1.0001   1.0001
    -0.0001  -0.0001  -0.0000  -0.0000  -0.0000  -0.0000  -0.0000  -0.0000
    -0.0000  -0.0000  -0.0000  -0.0000  -0.0000  -0.0000

          k = 0.1000 0.2000 0.2000 (  9644 PWs)   bands (ev):

   -56.5106 -56.5106 -56.4905 -56.4905 -56.4817 -56.4817 -56.4770 -56.4770
   -28.5917 -28.5860 -28.5750 -28.5747 -28.5561 -28.5520 -28.5002 -28.4998
   -27.6355 -27.6323 -27.5903 -27.5835 -27.5542 -27.5531 -27.5453 -27.5435
   -27.5196 -27.4991 -27.4797 -27.4659 -27.4625 -27.4530 -27.4383 -27.4359
     3.3121   3.3122   6.2299   6.2349   7.0572   7.0636   8.3960   8.3996
     9.6898   9.6922  10.4533  10.4560  10.6339  10.6366  11.4239  11.4290
    11.8992  11.9026  12.3330  12.3373  12.6660  12.6726  13.0039  13.0063
    13.0640  13.0713  13.1655  13.1702  13.2556  13.2609  13.4815  13.4924
    13.5994  13.6085  13.8295  13.8387  14.1573  14.1647  15.1588  15.1766
    15.2417  15.2603  15.4237  15.4356  15.5772  15.5928  15.7945  15.8132
    16.2056  16.2212  16.5742  16.5864  17.0894  17.1296

     occupation numbers 
     1.0000   1.0000   1.0000   1.0000   1.0000   1.0000   1.0000   1.0000
     1.0000   1.0000   1.0000   1.0000   1.0000   1.0000   1.0000   1.0000
     1.0000   1.0000   1.0000   1.0000   1.0000   1.0000   1.0000   1.0000
     1.0000   1.0000   1.0000   1.0000   1.0000   1.0000   1.0000   1.0000
     1.0000   1.0000   1.0000   1.0000   1.0000   1.0000   1.0000   1.0000
     1.0000   1.0000   1.0000   1.0000   1.0000   1.0000   1.0000   1.0000
     1.0000   1.0000   1.0000   1.0000   1.0000   1.0000   1.0000   1.0000
     1.0000   1.0000   1.0000   1.0000   1.0000   1.0000   1.0000   1.0000
     1.0000   1.0000   1.0000   1.0000   1.0000   1.0000  -0.0120  -0.0072
    -0.0006  -0.0003  -0.0000  -0.0000  -0.0000  -0.0000  -0.0000  -0.0000
    -0.0000  -0.0000  -0.0000  -0.0000  -0.0000  -0.0000

          k = 0.1000 0.2000 0.3000 (  9631 PWs)   bands (ev):

   -56.5080 -56.5080 -56.4932 -56.4932 -56.4813 -56.4813 -56.4773 -56.4773
   -28.5908 -28.5855 -28.5766 -28.5753 -28.5490 -28.5458 -28.5078 -28.5073
   -27.6359 -27.6318 -27.5849 -27.5777 -27.5607 -27.5522 -27.5458 -27.5400
   -27.5201 -27.4979 -27.4835 -27.4704 -27.4662 -27.4528 -27.4364 -27.4340
     3.6406   3.6408   5.8142   5.8171   7.0980   7.1024   8.3493   8.3526
     9.5029   9.5052  10.3405  10.3433  10.7927  10.7974  11.5156  11.5206
    11.8104  11.8164  12.2471  12.2497  12.5915  12.5997  12.9283  12.9357
    13.1504  13.1609  13.2097  13.2144  13.3132  13.3194  13.5193  13.5239
    13.7291  13.7342  13.9818  13.9909  14.2720  14.2816  14.9771  15.0021
    15.1787  15.1971  15.3006  15.3111  15.5583  15.5748  15.7520  15.7760
    16.1614  16.1725  16.4930  16.5061  17.1716  17.2090

     occupation numbers 
     1.0000   1.0000   1.0000   1.0000   1.0000   1.0000   1.0000   1.0000
     1.0000   1.0000   1.0000   1.0000   1.0000   1.0000   1.0000   1.0000
     1.0000   1.0000   1.0000   1.0000   1.0000   1.0000   1.0000   1.0000
     1.0000   1.0000   1.0000   1.0000   1.0000   1.0000   1.0000   1.0000
     1.0000   1.0000   1.0000   1.0000   1.0000   1.0000   1.0000   1.0000
     1.0000   1.0000   1.0000   1.0000   1.0000   1.0000   1.0000   1.0000
     1.0000   1.0000   1.0000   1.0000   1.0000   1.0000   1.0000   1.0000
     1.0000   1.0000   1.0000   1.0000   1.0000   1.0000   1.0000   1.0000
     1.0000   1.0000   1.0000   1.0000   1.0000   1.0000   0.3369   0.1727
    -0.0068  -0.0037  -0.0000  -0.0000  -0.0000  -0.0000  -0.0000  -0.0000
    -0.0000  -0.0000  -0.0000  -0.0000  -0.0000  -0.0000

          k = 0.1000 0.2000 0.4000 (  9656 PWs)   bands (ev):

   -56.5046 -56.5046 -56.4968 -56.4968 -56.4804 -56.4804 -56.4781 -56.4781
   -28.5885 -28.5844 -28.5796 -28.5774 -28.5392 -28.5371 -28.5174 -28.5166
   -27.6353 -27.6322 -27.5800 -27.5725 -27.5663 -27.5550 -27.5424 -27.5322
   -27.5238 -27.5052 -27.4822 -27.4751 -27.4641 -27.4551 -27.4349 -27.4333
     4.0840   4.0844   5.2224   5.2237   7.3548   7.3577   8.0850   8.0877
     9.5720   9.5735  10.1180  10.1203  11.0718  11.0770  11.5568  11.5630
    11.7333  11.7355  12.0998  12.1025  12.5618  12.5711  12.7858  12.7938
    13.1892  13.1970  13.2803  13.2852  13.3628  13.3672  13.5201  13.5263
    13.7982  13.8044  14.0210  14.0295  14.4750  14.5020  14.8019  14.8334
    15.1538  15.1681  15.2082  15.2146  15.5806  15.6000  15.6969  15.7231
    16.1851  16.1916  16.3893  16.4020  17.2753  17.2985

     occupation numbers 
     1.0000   1.0000   1.0000   1.0000   1.0000   1.0000   1.0000   1.0000
     1.0000   1.0000   1.0000   1.0000   1.0000   1.0000   1.0000   1.0000
     1.0000   1.0000   1.0000   1.0000   1.0000   1.0000   1.0000   1.0000
     1.0000   1.0000   1.0000   1.0000   1.0000   1.0000   1.0000   1.0000
     1.0000   1.0000   1.0000   1.0000   1.0000   1.0000   1.0000   1.0000
     1.0000   1.0000   1.0000   1.0000   1.0000   1.0000   1.0000   1.0000
     1.0000   1.0000   1.0000   1.0000   1.0000   1.0000   1.0000   1.0000
     1.0000   1.0000   1.0000   1.0000   1.0000   1.0000   1.0000   1.0000
[...]
    11.8848  11.8848  11.8887  11.8887  12.3764  12.3764  12.3839  12.3839
    13.2699  13.2699  13.2748  13.2748  13.8513  13.8513  13.8643  13.8643
    14.2104  14.2104  14.2174  14.2174  14.6455  14.6455  14.6729  14.6729
    14.8179  14.8179  14.8576  14.8576  15.4128  15.4128  15.4274  15.4274
    16.4544  16.4545  16.4657  16.4657  17.1049  17.1072

     occupation numbers 
     1.0000   1.0000   1.0000   1.0000   1.0000   1.0000   1.0000   1.0000
     1.0000   1.0000   1.0000   1.0000   1.0000   1.0000   1.0000   1.0000
     1.0000   1.0000   1.0000   1.0000   1.0000   1.0000   1.0000   1.0000
     1.0000   1.0000   1.0000   1.0000   1.0000   1.0000   1.0000   1.0000
     1.0000   1.0000   1.0000   1.0000   1.0000   1.0000   1.0000   1.0000
     1.0000   1.0000   1.0000   1.0000   1.0000   1.0000   1.0000   1.0000
     1.0000   1.0000   1.0000   1.0000   1.0000   1.0000   1.0000   1.0000
     1.0000   1.0000   1.0000   1.0000   1.0000   1.0000   1.0000   1.0000
     1.0000   1.0000   1.0000   1.0000   1.0002   1.0002   1.0007   1.0007
     1.0352   1.0352   1.0115   1.0115  -0.0000  -0.0000  -0.0000  -0.0000
    -0.0000  -0.0000  -0.0000  -0.0000  -0.0000  -0.0000

          k =-0.2000 0.4000 0.3000 (  9651 PWs)   bands (ev):

   -56.5015 -56.5015 -56.4959 -56.4959 -56.4824 -56.4824 -56.4800 -56.4800
   -28.5832 -28.5797 -28.5739 -28.5725 -28.5430 -28.5407 -28.5266 -28.5252
   -27.6256 -27.6233 -27.5822 -27.5772 -27.5666 -27.5614 -27.5398 -27.5322
   -27.5241 -27.5144 -27.4836 -27.4770 -27.4608 -27.4532 -27.4341 -27.4316
     4.5653   4.5657   5.5673   5.5694   6.8874   6.8917   7.6194   7.6227
     9.1377   9.1412   9.7832   9.7867  11.0153  11.0178  11.5298  11.5316
    11.7529  11.7560  12.2098  12.2131  12.6685  12.6739  12.8318  12.8385
    13.1079  13.1143  13.1936  13.2060  13.4197  13.4261  13.6481  13.6596
    13.9719  13.9824  14.2844  14.2945  14.6199  14.6456  14.8154  14.8310
    14.9753  14.9921  15.1251  15.1538  15.3610  15.3661  15.5051  15.5184
    16.2475  16.2555  16.4034  16.4122  17.1302  17.1463

     occupation numbers 
     1.0000   1.0000   1.0000   1.0000   1.0000   1.0000   1.0000   1.0000
     1.0000   1.0000   1.0000   1.0000   1.0000   1.0000   1.0000   1.0000
     1.0000   1.0000   1.0000   1.0000   1.0000   1.0000   1.0000   1.0000
     1.0000   1.0000   1.0000   1.0000   1.0000   1.0000   1.0000   1.0000
     1.0000   1.0000   1.0000   1.0000   1.0000   1.0000   1.0000   1.0000
     1.0000   1.0000   1.0000   1.0000   1.0000   1.0000   1.0000   1.0000
     1.0000   1.0000   1.0000   1.0000   1.0000   1.0000   1.0000   1.0000
     1.0000   1.0000   1.0000   1.0000   1.0000   1.0000   1.0000   1.0000
     1.0000   1.0000   1.0000   1.0000   1.0001   1.0002   1.0349   1.0344
     0.3496   0.2333  -0.0251  -0.0137  -0.0000  -0.0000  -0.0000  -0.0000
    -0.0000  -0.0000  -0.0000  -0.0000  -0.0000  -0.0000

          k =-0.2000-0.5000 0.3000 (  9660 PWs)   bands (ev):

   -56.4986 -56.4986 -56.4986 -56.4986 -56.4814 -56.4814 -56.4814 -56.4814
   -28.5794 -28.5794 -28.5746 -28.5746 -28.5362 -28.5362 -28.5325 -28.5325
   -27.6230 -27.6230 -27.5806 -27.5806 -27.5647 -27.5647 -27.5335 -27.5335
   -27.5214 -27.5214 -27.4820 -27.4820 -27.4554 -27.4554 -27.4329 -27.4329
     5.0603   5.0603   5.0614   5.0614   7.2220   7.2220   7.2269   7.2269
     9.4399   9.4399   9.4432   9.4432  11.2334  11.2334  11.2363  11.2363
    11.9948  11.9948  12.0019  12.0019  12.7535  12.7535  12.7641  12.7641
    13.1380  13.1380  13.1486  13.1486  13.5464  13.5464  13.5561  13.5561
    14.1599  14.1599  14.1692  14.1692  14.7348  14.7348  14.7605  14.7605
    15.0214  15.0214  15.0465  15.0465  15.4232  15.4232  15.4399  15.4399
    16.3232  16.3232  16.3336  16.3336  17.2484  17.2541

     occupation numbers 
     1.0000   1.0000   1.0000   1.0000   1.0000   1.0000   1.0000   1.0000
     1.0000   1.0000   1.0000   1.0000   1.0000   1.0000   1.0000   1.0000
     1.0000   1.0000   1.0000   1.0000   1.0000   1.0000   1.0000   1.0000
     1.0000   1.0000   1.0000   1.0000   1.0000   1.0000   1.0000   1.0000
     1.0000   1.0000   1.0000   1.0000   1.0000   1.0000   1.0000   1.0000
     1.0000   1.0000   1.0000   1.0000   1.0000   1.0000   1.0000   1.0000
     1.0000   1.0000   1.0000   1.0000   1.0000   1.0000   1.0000   1.0000
     1.0000   1.0000   1.0000   1.0000   1.0000   1.0000   1.0000   1.0000
     1.0000   1.0000   1.0000   1.0000   1.0073   1.0073   1.0147   1.0147
     0.0781   0.0781   0.0017   0.0017  -0.0000  -0.0000  -0.0000  -0.0000
    -0.0000  -0.0000  -0.0000  -0.0000  -0.0000  -0.0000

          k =-0.2000-0.5000 0.4000 (  9638 PWs)   bands (ev):

   -56.4974 -56.4974 -56.4974 -56.4974 -56.4825 -56.4825 -56.4825 -56.4825
   -28.5754 -28.5754 -28.5723 -28.5723 -28.5393 -28.5393 -28.5367 -28.5367
   -27.6144 -27.6144 -27.5911 -27.5911 -27.5607 -27.5607 -27.5365 -27.5365
   -27.5173 -27.5173 -27.4896 -27.4896 -27.4483 -27.4483 -27.4349 -27.4349
     5.3784   5.3784   5.3798   5.3798   6.8022   6.8022   6.8059   6.8059
     9.5481   9.5481   9.5521   9.5521  10.9112  10.9112  10.9137  10.9137
    12.1981  12.1981  12.2060  12.2060  12.5665  12.5665  12.5764  12.5764
    13.1585  13.1585  13.1644  13.1644  13.6486  13.6486  13.6617  13.6617
    14.3391  14.3391  14.3449  14.3449  14.7475  14.7475  14.7714  14.7714
    14.9077  14.9077  14.9457  14.9457  15.3601  15.3601  15.3724  15.3724
    16.3980  16.3980  16.4077  16.4077  17.0255  17.0296

     occupation numbers 
     1.0000   1.0000   1.0000   1.0000   1.0000   1.0000   1.0000   1.0000
     1.0000   1.0000   1.0000   1.0000   1.0000   1.0000   1.0000   1.0000
     1.0000   1.0000   1.0000   1.0000   1.0000   1.0000   1.0000   1.0000
     1.0000   1.0000   1.0000   1.0000   1.0000   1.0000   1.0000   1.0000
     1.0000   1.0000   1.0000   1.0000   1.0000   1.0000   1.0000   1.0000
     1.0000   1.0000   1.0000   1.0000   1.0000   1.0000   1.0000   1.0000
     1.0000   1.0000   1.0000   1.0000   1.0000   1.0000   1.0000   1.0000
     1.0000   1.0000   1.0000   1.0000   1.0000   1.0000   1.0000   1.0000
     1.0000   1.0000   1.0000   1.0000   1.0105   1.0105   1.0189   1.0189
     0.8355   0.8355   0.5767   0.5767  -0.0000  -0.0000  -0.0000  -0.0000
    -0.0000  -0.0000  -0.0000  -0.0000  -0.0000  -0.0000

          k =-0.3000-0.5000 0.4000 (  9654 PWs)   bands (ev):

   -56.4957 -56.4957 -56.4957 -56.4957 -56.4843 -56.4843 -56.4843 -56.4843
   -28.5715 -28.5715 -28.5685 -28.5685 -28.5439 -28.5439 -28.5412 -28.5412
   -27.6094 -27.6094 -27.5880 -27.5880 -27.5705 -27.5705 -27.5423 -27.5423
   -27.5097 -27.5097 -27.4792 -27.4792 -27.4542 -27.4542 -27.4389 -27.4389
     5.6194   5.6194   5.6214   5.6214   6.8420   6.8420   6.8472   6.8472
     9.1179   9.1179   9.1237   9.1237  10.4443  10.4443  10.4475  10.4475
    12.4412  12.4412  12.4494  12.4494  12.7822  12.7822  12.7912  12.7912
    13.0786  13.0786  13.0881  13.0881  13.4288  13.4288  13.4400  13.4400
    14.5068  14.5068  14.5139  14.5139  14.8783  14.8783  14.9007  14.9007
    15.0313  15.0313  15.0641  15.0641  15.2843  15.2843  15.3000  15.3000
    16.3476  16.3476  16.3565  16.3565  16.8701  16.8760

     occupation numbers 
     1.0000   1.0000   1.0000   1.0000   1.0000   1.0000   1.0000   1.0000
     1.0000   1.0000   1.0000   1.0000   1.0000   1.0000   1.0000   1.0000
     1.0000   1.0000   1.0000   1.0000   1.0000   1.0000   1.0000   1.0000
     1.0000   1.0000   1.0000   1.0000   1.0000   1.0000   1.0000   1.0000
     1.0000   1.0000   1.0000   1.0000   1.0000   1.0000   1.0000   1.0000
     1.0000   1.0000   1.0000   1.0000   1.0000   1.0000   1.0000   1.0000
     1.0000   1.0000   1.0000   1.0000   1.0000   1.0000   1.0000   1.0000
     1.0000   1.0000   1.0000   1.0000   1.0000   1.0000   1.0000   1.0000
     1.0000   1.0000   1.0000   1.0000   0.9634   0.9634   0.8726   0.8726
     0.0418   0.0418  -0.0247  -0.0247  -0.0001  -0.0001  -0.0000  -0.0000
    -0.0000  -0.0000  -0.0000  -0.0000  -0.0000  -0.0000

     the Fermi energy is    14.9556 ev

!    total energy              =   -1180.35027748 Ry

     total all-electron energy =    -10727.811114 Ry
     estimated scf accuracy    <       0.00000043 Ry
     smearing contrib. (-TS)   =      -0.00026812 Ry
     internal energy E=F+TS    =   -1180.35000935 Ry

     The total energy is F=E-TS. E is the sum of the following terms:
     one-electron contribution =    -336.79859130 Ry
     hartree contribution      =     207.04382427 Ry
     xc contribution           =    -114.36250575 Ry
     ewald contribution        =    -496.51183961 Ry
     one-center paw contrib.   =    -439.72089696 Ry
      -> PAW hartree energy AE =     126.71697661 Ry
      -> PAW hartree energy PS =    -125.74961685 Ry
      -> PAW xc energy AE      =     -96.24002945 Ry
      -> PAW xc energy PS      =      20.93264654 Ry
      -> total E_H with PAW    =     208.01118403 Ry
      -> total E_XC with PAW   =    -189.66988866 Ry

     convergence has been achieved in   8 iterations

     Forces acting on atoms (cartesian axes, Ry/au):

     atom    1 type  1   force =    -0.00275051   -0.00275051    0.00275051
     atom    2 type  1   force =    -0.00275051    0.00275051   -0.00275051
     atom    3 type  1   force =     0.00275051   -0.00275051   -0.00275051
     atom    4 type  1   force =     0.00275051    0.00275051    0.00275051
     atom    5 type  2   force =    -0.00437668   -0.00437668    0.00437668
     atom    6 type  2   force =    -0.00437668    0.00437668   -0.00437668
     atom    7 type  2   force =     0.00437668   -0.00437668   -0.00437668
     atom    8 type  2   force =     0.00437668    0.00437668    0.00437668
     The non-local contrib.  to forces
     atom    1 type  1   force =     0.05125369    0.05125369   -0.05125369
     atom    2 type  1   force =     0.05125369   -0.05125369    0.05125369
     atom    3 type  1   force =    -0.05125369    0.05125369    0.05125369
     atom    4 type  1   force =    -0.05125369   -0.05125369   -0.05125369
     atom    5 type  2   force =    -0.00810265   -0.00810265    0.00810265
     atom    6 type  2   force =    -0.00810265    0.00810265   -0.00810265
     atom    7 type  2   force =     0.00810265   -0.00810265   -0.00810265
     atom    8 type  2   force =     0.00810265    0.00810265    0.00810265
     The ionic contribution  to forces
     atom    1 type  1   force =    -0.85044630   -0.85044630    0.85044630
     atom    2 type  1   force =    -0.85044630    0.85044630   -0.85044630
     atom    3 type  1   force =     0.85044630   -0.85044630   -0.85044630
     atom    4 type  1   force =     0.85044630    0.85044630    0.85044630
     atom    5 type  2   force =    -0.24524978   -0.24524978    0.24524978
     atom    6 type  2   force =    -0.24524978    0.24524978   -0.24524978
     atom    7 type  2   force =     0.24524978   -0.24524978   -0.24524978
     atom    8 type  2   force =     0.24524978    0.24524978    0.24524978
     The local contribution  to forces
     atom    1 type  1   force =     0.79739202    0.79739202   -0.79739202
     atom    2 type  1   force =     0.79739202   -0.79739202    0.79739202
     atom    3 type  1   force =    -0.79739202    0.79739202    0.79739202
     atom    4 type  1   force =    -0.79739202   -0.79739202   -0.79739202
     atom    5 type  2   force =     0.24818978    0.24818978   -0.24818978
     atom    6 type  2   force =     0.24818978   -0.24818978    0.24818978
     atom    7 type  2   force =    -0.24818978    0.24818978    0.24818978
     atom    8 type  2   force =    -0.24818978   -0.24818978   -0.24818978
     The core correction contribution to forces
     atom    1 type  1   force =    -0.00103235   -0.00103235    0.00103235
     atom    2 type  1   force =    -0.00103235    0.00103235   -0.00103235
     atom    3 type  1   force =     0.00103235   -0.00103235   -0.00103235
     atom    4 type  1   force =     0.00103235    0.00103235    0.00103235
     atom    5 type  2   force =     0.00079810    0.00079810   -0.00079810
     atom    6 type  2   force =     0.00079810   -0.00079810    0.00079810
     atom    7 type  2   force =    -0.00079810    0.00079810    0.00079810
     atom    8 type  2   force =    -0.00079810   -0.00079810   -0.00079810
     The Hubbard contrib.    to forces
     atom    1 type  1   force =     0.00000000    0.00000000    0.00000000
     atom    2 type  1   force =     0.00000000    0.00000000    0.00000000
     atom    3 type  1   force =     0.00000000    0.00000000    0.00000000
     atom    4 type  1   force =     0.00000000    0.00000000    0.00000000
     atom    5 type  2   force =     0.00000000    0.00000000    0.00000000
     atom    6 type  2   force =     0.00000000    0.00000000    0.00000000
     atom    7 type  2   force =     0.00000000    0.00000000    0.00000000
     atom    8 type  2   force =     0.00000000    0.00000000    0.00000000
     The SCF correction term to forces
     atom    1 type  1   force =     0.00008242    0.00008242   -0.00008242
     atom    2 type  1   force =     0.00008242   -0.00008242    0.00008242
     atom    3 type  1   force =    -0.00008242    0.00008242    0.00008242
     atom    4 type  1   force =    -0.00008242   -0.00008242   -0.00008242
     atom    5 type  2   force =    -0.00001214   -0.00001214    0.00001214
     atom    6 type  2   force =    -0.00001214    0.00001214   -0.00001214
     atom    7 type  2   force =     0.00001214   -0.00001214   -0.00001214
     atom    8 type  2   force =     0.00001214    0.00001214    0.00001214

     Total force =     0.017907     Total SCF correction =     0.000289


     Computing stress (Cartesian axis) and pressure

          total   stress  (Ry/bohr**3)                   (kbar)     P=      -41.10
  -0.00027942   0.00000000   0.00000000          -41.10        0.00        0.00
   0.00000000  -0.00027942   0.00000000            0.00      -41.10        0.00
   0.00000000   0.00000000  -0.00027942            0.00        0.00      -41.10

     kinetic stress (kbar)  35760.04      0.00      0.00
                                0.00  35760.04      0.00
                                0.00      0.00  35760.04

     local   stress (kbar) -10012.53      0.00     -0.00
                                0.00 -10012.53     -0.00
                               -0.00     -0.00 -10012.53

     nonloc. stress (kbar)   2427.91      0.00      0.00
                                0.00   2427.91      0.00
                                0.00      0.00   2427.91

     hartree stress (kbar)  15167.38     -0.00     -0.00
                               -0.00  15167.38     -0.00
                               -0.00     -0.00  15167.38

     exc-cor stress (kbar)  -1706.63      0.00     -0.00
                                0.00  -1706.63     -0.00
                               -0.00     -0.00  -1706.63

     corecor stress (kbar)  -5304.38      0.00     -0.00
                                0.00  -5304.38     -0.00
                               -0.00     -0.00  -5304.38

     ewald   stress (kbar) -36372.90      0.00      0.00
                                0.00 -36372.90      0.00
                                0.00      0.00 -36372.90

     hubbard stress (kbar)      0.00      0.00      0.00
                                0.00      0.00      0.00
                                0.00      0.00      0.00

     DFT-D   stress (kbar)      0.00      0.00      0.00
                                0.00      0.00      0.00
                                0.00      0.00      0.00

     XDM     stress (kbar)      0.00      0.00      0.00
                                0.00      0.00      0.00
                                0.00      0.00      0.00

     dft-nl  stress (kbar)      0.00      0.00      0.00
                                0.00      0.00      0.00
                                0.00      0.00      0.00

     TS-vdW  stress (kbar)      0.00      0.00      0.00
                                0.00      0.00      0.00
                                0.00      0.00      0.00



     Writing output data file /zfs_data/vergnior/martin/Scratch/OAL/CrSi/convergence/smearing/10x10x10/0.008/tmp/CrSi.save/
 
     init_run     :     15.30s CPU     15.99s WALL (       1 calls)
     electrons    :    495.87s CPU    507.64s WALL (       1 calls)
     forces       :     14.69s CPU     14.84s WALL (       1 calls)
     stress       :     41.47s CPU     41.90s WALL (       1 calls)

     Called by init_run:
     wfcinit      :     13.95s CPU     14.36s WALL (       1 calls)
     wfcinit:atom :      0.11s CPU      0.11s WALL (      76 calls)
     wfcinit:wfcr :     13.32s CPU     13.72s WALL (      76 calls)
     potinit      :      0.22s CPU      0.33s WALL (       1 calls)
     hinit0       :      0.20s CPU      0.21s WALL (       1 calls)

     Called by electrons:
     c_bands      :    400.73s CPU    409.01s WALL (       9 calls)
     sum_band     :     88.82s CPU     91.56s WALL (       9 calls)
     v_of_rho     :      0.27s CPU      0.28s WALL (       9 calls)
     v_h          :      0.02s CPU      0.02s WALL (       9 calls)
     v_xc         :      0.30s CPU      0.31s WALL (      11 calls)
     newd         :      5.08s CPU      5.91s WALL (       9 calls)
     PAW_pot      :      1.36s CPU      1.39s WALL (       9 calls)
     mix_rho      :      0.18s CPU      0.19s WALL (       9 calls)

     Called by c_bands:
     init_us_2    :      2.51s CPU      2.55s WALL (    1596 calls)
     cegterg      :    371.13s CPU    379.03s WALL (     684 calls)

     Called by sum_band:
     sum_band:wei :      0.09s CPU      0.09s WALL (       9 calls)
     sum_band:loo :     84.65s CPU     86.30s WALL (       9 calls)
     sum_band:buf :      0.63s CPU      0.74s WALL (     684 calls)
     sum_band:ini :      1.17s CPU      1.19s WALL (     684 calls)
     sum_band:cal :      5.16s CPU      5.19s WALL (     684 calls)
     sum_band:bec :     10.02s CPU     10.14s WALL (     684 calls)
     addusdens    :      3.84s CPU      4.92s WALL (       9 calls)
     addusd:skk   :      0.01s CPU      0.01s WALL (      18 calls)
     addusd:dgemm :      1.50s CPU      2.51s WALL (      18 calls)
     addusd:qvan2 :      2.28s CPU      2.33s WALL (      18 calls)

     Called by *egterg:
     cdiaghg      :     31.19s CPU     31.40s WALL (    3862 calls)
     cegterg:over :     20.94s CPU     21.14s WALL (    3254 calls)
     cegterg:upda :      9.78s CPU      9.88s WALL (    3254 calls)
     cegterg:last :     19.31s CPU     19.48s WALL (    2052 calls)
     h_psi        :    259.64s CPU    266.88s WALL (    4014 calls)
     s_psi        :     33.89s CPU     34.24s WALL (    4014 calls)
     g_psi        :      0.61s CPU      0.62s WALL (    3254 calls)

     Called by h_psi:
     h_psi:calbec :     17.75s CPU     17.97s WALL (    4014 calls)
     vloc_psi     :    209.13s CPU    215.84s WALL (    4014 calls)
     add_vuspsi   :     31.32s CPU     31.62s WALL (    4014 calls)

     General routines
     calbec       :     25.57s CPU     25.85s WALL (    5078 calls)
     fft          :      0.30s CPU      0.31s WALL (     216 calls)
     ffts         :      0.03s CPU      0.11s WALL (      72 calls)
     fftw         :    170.95s CPU    176.06s WALL (  961976 calls)
     interpolate  :      0.07s CPU      0.16s WALL (      36 calls)
 
     Parallel routines
     fft_scatt_xy :     16.88s CPU     17.44s WALL (  962264 calls)
     fft_scatt_yz :     65.91s CPU     67.78s WALL (  962264 calls)

     PAW routines
     PAW_pot      :      1.36s CPU      1.39s WALL (       9 calls)
     PAW_symme    :      0.02s CPU      0.02s WALL (      18 calls)
 
     PWSCF        :   9m31.35s CPU   9m48.16s WALL

 
   This run was terminated on:  12:39:13   1Aug2021            

=------------------------------------------------------------------------------=
   JOB DONE.
=------------------------------------------------------------------------------=
