
     Program PWSCF v.6.7MaX starts on 18May2022 at 15:54: 6 

     This program is part of the open-source Quantum ESPRESSO suite
     for quantum simulation of materials; please cite
         "P. Giannozzi et al., J. Phys.:Condens. Matter 21 395502 (2009);
         "P. Giannozzi et al., J. Phys.:Condens. Matter 29 465901 (2017);
          URL http://www.quantum-espresso.org", 
     in publications or presentations arising from this work. More details at
     http://www.quantum-espresso.org/quote

     Parallel version (MPI), running on    48 processors

     MPI processes distributed on     1 nodes
     R & G space division:  proc/nbgrp/npool/nimage =      48
     Waiting for input...
     Reading input from standard input

     Current dimensions of program PWSCF are:
     Max number of different atomic species (ntypx) = 10
     Max number of k-points (npk) =  40000
     Max angular momentum in pseudopotentials (lmaxx) =  3
     file O.pbe-nl-kjpaw_psl.1.0.0.UPF: wavefunction(s)  2S 2P renormalized
     file Cl.pbe-nl-kjpaw_psl.1.0.0.UPF: wavefunction(s)  3S renormalized
     file Nb.pbe-spn-kjpaw_psl.1.0.0.UPF: wavefunction(s)  4S 4P 4D renormalized

     Subspace diagonalization in iterative solution of the eigenvalue problem:
     a serial algorithm will be used

     Message from routine setup:
     using ibrav=0 with symmetry is DISCOURAGED, use correct ibrav instead
 
     Parallelization info
     --------------------
     sticks:   dense  smooth     PW     G-vecs:    dense   smooth      PW
     Min         113      45     15                 2831      717     143
     Max         114      46     16                 2832      718     145
     Sum        5431    2167    747               135907    34429    6903
 


     bravais-lattice index     =            0
     lattice parameter (alat)  =      12.6717  a.u.
     unit-cell volume          =     547.9313 (a.u.)^3
     number of atoms/cell      =            4
     number of atomic types    =            3
     number of electrons       =        33.00
     number of Kohn-Sham states=           21
     kinetic-energy cutoff     =      60.0000  Ry
     charge density cutoff     =     600.0000  Ry
     scf convergence threshold =      1.0E-10
     mixing beta               =       0.7000
     number of iterations used =            8  plain     mixing
     Exchange-correlation= SLA  PW   PBX  PBC
                           (   1   4   3   4   0   0   0)

     celldm(1)=  12.671676  celldm(2)=   0.000000  celldm(3)=   0.000000
     celldm(4)=   0.000000  celldm(5)=   0.000000  celldm(6)=   0.000000

     crystal axes: (cart. coord. in units of alat)
               a(1) = (  -0.250426   0.291161   0.923316 )  
               a(2) = (   0.250426  -0.291161   0.923316 )  
               a(3) = (   0.250426   0.291161  -0.923316 )  

     reciprocal axes: (cart. coord. in units 2 pi/alat)
               b(1) = (  0.000000  1.717261  0.541527 )  
               b(2) = (  1.996594  0.000000  0.541527 )  
               b(3) = (  1.996594  1.717261  0.000000 )  


     PseudoPot. # 1 for O  read from file:
     /zfs_data/gutierre/Scratch/Cl2NbO/convergence/cutoff/8x8x8/60/pseudo/O.pbe-nl-kjpaw_psl.1.0.0.UPF
     MD5 check sum: df3ddea38124b4e5de5e1084591730e4
     Pseudo is Projector augmented-wave + core cor, Zval =  6.0
     Generated using 'atomic' code by A. Dal Corso  v.6.7MaX
     Shape of augmentation charge: PSQ
     Using radial grid of 1095 points,  4 beta functions with: 
                l(1) =   0
                l(2) =   0
                l(3) =   1
                l(4) =   1
     Q(r) pseudized with 0 coefficients 


     PseudoPot. # 2 for Cl read from file:
     /zfs_data/gutierre/Scratch/Cl2NbO/convergence/cutoff/8x8x8/60/pseudo/Cl.pbe-nl-kjpaw_psl.1.0.0.UPF
     MD5 check sum: 8cf6bde52c08f6236e0f72a8870677af
     Pseudo is Projector augmented-wave + core cor, Zval =  7.0
     Generated using 'atomic' code by A. Dal Corso  v.6.7MaX
     Shape of augmentation charge: PSQ
     Using radial grid of 1157 points,  4 beta functions with: 
                l(1) =   0
                l(2) =   0
                l(3) =   1
                l(4) =   1
     Q(r) pseudized with 0 coefficients 


     PseudoPot. # 3 for Nb read from file:
     /zfs_data/gutierre/Scratch/Cl2NbO/convergence/cutoff/8x8x8/60/pseudo/Nb.pbe-spn-kjpaw_psl.1.0.0.UPF
     MD5 check sum: 1ec1a3aa7bf3cbf7f7e0d720422bce7a
     Pseudo is Projector augmented-wave + core cor, Zval = 13.0
     Generated using 'atomic' code by A. Dal Corso  v.6.7MaX
     Shape of augmentation charge: PSQ
     Using radial grid of 1227 points,  6 beta functions with: 
                l(1) =   0
                l(2) =   0
                l(3) =   1
                l(4) =   1
                l(5) =   2
                l(6) =   2
     Q(r) pseudized with 0 coefficients 


     atomic species   valence    mass     pseudopotential
        O              6.00    15.99940     O ( 1.00)
        Cl             7.00    35.45150     Cl( 1.00)
        Nb            13.00    92.90637     Nb( 1.00)

      8 Sym. Ops., with inversion, found


                                    s                        frac. trans.

      isym =  1     identity                                     

 cryst.   s( 1) = (     1          0          0      )
                  (     0          1          0      )
                  (     0          0          1      )

 cart.    s( 1) = (  1.0000000  0.0000000  0.0000000 )
                  (  0.0000000  1.0000000  0.0000000 )
                  (  0.0000000  0.0000000  1.0000000 )


      isym =  2     180 deg rotation - cart. axis [0,0,1]        

 cryst.   s( 2) = (     0          1          0      )
                  (     1          0          0      )
                  (    -1         -1         -1      )

 cart.    s( 2) = ( -1.0000000  0.0000000  0.0000000 )
                  (  0.0000000 -1.0000000  0.0000000 )
                  (  0.0000000  0.0000000  1.0000000 )


      isym =  3     180 deg rotation - cart. axis [0,1,0]        

 cryst.   s( 3) = (     0          0          1      )
                  (    -1         -1         -1      )
                  (     1          0          0      )

 cart.    s( 3) = ( -1.0000000  0.0000000  0.0000000 )
                  (  0.0000000  1.0000000  0.0000000 )
                  (  0.0000000  0.0000000 -1.0000000 )


      isym =  4     180 deg rotation - cart. axis [1,0,0]        

 cryst.   s( 4) = (    -1         -1         -1      )
                  (     0          0          1      )
                  (     0          1          0      )

 cart.    s( 4) = (  1.0000000  0.0000000  0.0000000 )
                  (  0.0000000 -1.0000000  0.0000000 )
                  (  0.0000000  0.0000000 -1.0000000 )


      isym =  5     inversion                                    

 cryst.   s( 5) = (    -1          0          0      )
                  (     0         -1          0      )
                  (     0          0         -1      )

 cart.    s( 5) = ( -1.0000000  0.0000000  0.0000000 )
                  (  0.0000000 -1.0000000  0.0000000 )
                  (  0.0000000  0.0000000 -1.0000000 )


      isym =  6     inv. 180 deg rotation - cart. axis [0,0,1]   

 cryst.   s( 6) = (     0         -1          0      )
                  (    -1          0          0      )
                  (     1          1          1      )

 cart.    s( 6) = (  1.0000000  0.0000000  0.0000000 )
                  (  0.0000000  1.0000000  0.0000000 )
                  (  0.0000000  0.0000000 -1.0000000 )


      isym =  7     inv. 180 deg rotation - cart. axis [0,1,0]   

 cryst.   s( 7) = (     0          0         -1      )
                  (     1          1          1      )
                  (    -1          0          0      )

 cart.    s( 7) = (  1.0000000  0.0000000  0.0000000 )
                  (  0.0000000 -1.0000000  0.0000000 )
                  (  0.0000000  0.0000000  1.0000000 )


      isym =  8     inv. 180 deg rotation - cart. axis [1,0,0]   

 cryst.   s( 8) = (     1          1          1      )
                  (     0          0         -1      )
                  (     0         -1          0      )

 cart.    s( 8) = ( -1.0000000  0.0000000  0.0000000 )
                  (  0.0000000  1.0000000  0.0000000 )
                  (  0.0000000  0.0000000  1.0000000 )


   Cartesian axes

     site n.     atom                  positions (alat units)
         1           O   tau(   1) = (   0.0000000   0.2911613   0.0000000  )
         2           Cl  tau(   2) = (  -0.0000000   0.2911613   0.6365338  )
         3           Cl  tau(   3) = (   0.2504264  -0.0000000   0.2867819  )
         4           Nb  tau(   4) = (   0.0000000   0.0000000   0.0000000  )

   Crystallographic axes

     site n.     atom                  positions (cryst. coord.)
         1           O   tau(   1) = (  0.5000000  0.0000000  0.5000000  )
         2           Cl  tau(   2) = (  0.8447000  0.3447000  0.5000000  )
         3           Cl  tau(   3) = (  0.1553000  0.6553000  0.5000000  )
         4           Nb  tau(   4) = (  0.0000000  0.0000000  0.0000000  )

     number of k points=    95  Methfessel-Paxton smearing, width (Ry)=  0.0120
                       cart. coord. in units 2pi/alat
        k(    1) = (   0.0000000   0.0000000   0.0000000), wk =   0.0039062
        k(    2) = (   0.2495743   0.2146577   0.0000000), wk =   0.0156250
        k(    3) = (   0.4991486   0.4293153   0.0000000), wk =   0.0156250
        k(    4) = (   0.7487229   0.6439730   0.0000000), wk =   0.0156250
        k(    5) = (  -0.9982971  -0.8586307   0.0000000), wk =   0.0078125
        k(    6) = (   0.2495743   0.0000000   0.0676908), wk =   0.0156250
        k(    7) = (   0.4991486   0.2146577   0.0676908), wk =   0.0312500
        k(    8) = (   0.7487229   0.4293153   0.0676908), wk =   0.0312500
        k(    9) = (   0.9982971   0.6439730   0.0676908), wk =   0.0312500
        k(   10) = (  -0.7487229  -0.8586307   0.0676908), wk =   0.0312500
        k(   11) = (  -0.4991486  -0.6439730   0.0676908), wk =   0.0312500
        k(   12) = (  -0.2495743  -0.4293153   0.0676908), wk =   0.0312500
        k(   13) = (   0.0000000  -0.2146577   0.0676908), wk =   0.0156250
        k(   14) = (   0.4991486   0.0000000   0.1353817), wk =   0.0156250
        k(   15) = (   0.7487229   0.2146577   0.1353817), wk =   0.0312500
        k(   16) = (   0.9982971   0.4293153   0.1353817), wk =   0.0312500
        k(   17) = (   1.2478714   0.6439730   0.1353817), wk =   0.0312500
        k(   18) = (  -0.4991486  -0.8586307   0.1353817), wk =   0.0312500
        k(   19) = (  -0.2495743  -0.6439730   0.1353817), wk =   0.0312500
        k(   20) = (   0.0000000  -0.4293153   0.1353817), wk =   0.0156250
        k(   21) = (   0.2495743  -0.2146577   0.1353817), wk =   0.0312500
        k(   22) = (   0.7487229   0.0000000   0.2030725), wk =   0.0156250
        k(   23) = (   0.9982971   0.2146577   0.2030725), wk =   0.0312500
        k(   24) = (   1.2478714   0.4293153   0.2030725), wk =   0.0312500
        k(   25) = (   1.4974457   0.6439730   0.2030725), wk =   0.0312500
        k(   26) = (  -0.2495743  -0.8586307   0.2030725), wk =   0.0312500
        k(   27) = (   0.0000000  -0.6439730   0.2030725), wk =   0.0156250
        k(   28) = (   0.2495743  -0.4293153   0.2030725), wk =   0.0312500
        k(   29) = (   0.4991486  -0.2146577   0.2030725), wk =   0.0312500
        k(   30) = (  -0.9982971   0.0000000  -0.2707633), wk =   0.0078125
        k(   31) = (  -0.7487229   0.2146577  -0.2707633), wk =   0.0312500
        k(   32) = (  -0.4991486   0.4293153  -0.2707633), wk =   0.0312500
        k(   33) = (  -0.2495743   0.6439730  -0.2707633), wk =   0.0312500
        k(   34) = (  -1.9965943  -0.8586307  -0.2707633), wk =   0.0078125
        k(   35) = (   0.4991486   0.4293153   0.1353817), wk =   0.0312500
        k(   36) = (   0.7487229   0.6439730   0.1353817), wk =   0.0312500
        k(   37) = (   0.9982971   0.8586307   0.1353817), wk =   0.0156250
        k(   38) = (   0.0000000   0.0000000   0.1353817), wk =   0.0078125
        k(   39) = (   0.7487229   0.4293153   0.2030725), wk =   0.0312500
        k(   40) = (   0.9982971   0.6439730   0.2030725), wk =   0.0312500
        k(   41) = (   1.2478714   0.8586307   0.2030725), wk =   0.0312500
        k(   42) = (  -0.4991486  -0.6439730   0.2030725), wk =   0.0312500
        k(   43) = (   0.0000000  -0.2146577   0.2030725), wk =   0.0156250
        k(   44) = (   0.2495743   0.0000000   0.2030725), wk =   0.0156250
        k(   45) = (   0.9982971   0.4293153   0.2707633), wk =   0.0156250
        k(   46) = (   1.2478714   0.6439730   0.2707633), wk =   0.0312500
        k(   47) = (   1.4974457   0.8586307   0.2707633), wk =   0.0156250
        k(   48) = (   0.0000000  -0.4293153   0.2707633), wk =   0.0156250
        k(   49) = (   0.2495743  -0.2146577   0.2707633), wk =   0.0312500
        k(   50) = (   0.4991486   0.0000000   0.2707633), wk =   0.0156250
        k(   51) = (  -1.9965943  -0.6439730  -0.2030725), wk =   0.0156250
        k(   52) = (  -1.7470200  -0.4293153  -0.2030725), wk =   0.0312500
        k(   53) = (  -1.4974457  -0.2146577  -0.2030725), wk =   0.0312500
        k(   54) = (  -1.2478714   0.0000000  -0.2030725), wk =   0.0156250
        k(   55) = (   0.0000000   0.8586307  -0.1353817), wk =   0.0156250
        k(   56) = (  -1.7470200  -0.6439730  -0.1353817), wk =   0.0312500
        k(   57) = (  -1.4974457  -0.4293153  -0.1353817), wk =   0.0312500
        k(   58) = (  -1.2478714  -0.2146577  -0.1353817), wk =   0.0312500
        k(   59) = (  -0.9982971   0.0000000  -0.1353817), wk =   0.0156250
        k(   60) = (   0.0000000   0.6439730  -0.0676908), wk =   0.0156250
        k(   61) = (   0.2495743   0.8586307  -0.0676908), wk =   0.0312500
        k(   62) = (  -1.4974457  -0.6439730  -0.0676908), wk =   0.0312500
        k(   63) = (  -1.2478714  -0.4293153  -0.0676908), wk =   0.0312500
        k(   64) = (  -0.9982971  -0.2146577  -0.0676908), wk =   0.0312500
        k(   65) = (  -0.7487229   0.0000000  -0.0676908), wk =   0.0156250
        k(   66) = (   0.0000000   0.4293153   0.0000000), wk =   0.0078125
        k(   67) = (   0.2495743   0.6439730   0.0000000), wk =   0.0156250
        k(   68) = (   0.4991486   0.8586307   0.0000000), wk =   0.0156250
        k(   69) = (  -1.2478714  -0.6439730   0.0000000), wk =   0.0156250
        k(   70) = (  -0.9982971  -0.4293153   0.0000000), wk =   0.0156250
        k(   71) = (  -0.7487229  -0.2146577   0.0000000), wk =   0.0156250
        k(   72) = (  -0.4991486   0.0000000   0.0000000), wk =   0.0078125
        k(   73) = (   0.9982971   0.8586307   0.2707633), wk =   0.0078125
        k(   74) = (   0.0000000   0.0000000   0.2707633), wk =   0.0078125
        k(   75) = (   0.0000000  -0.2146577   0.3384542), wk =   0.0156250
        k(   76) = (   0.2495743   0.0000000   0.3384542), wk =   0.0156250
        k(   77) = (  -1.9965943  -0.4293153  -0.1353817), wk =   0.0156250
        k(   78) = (  -1.7470200  -0.2146577  -0.1353817), wk =   0.0312500
        k(   79) = (  -1.4974457   0.0000000  -0.1353817), wk =   0.0156250
        k(   80) = (   0.0000000   1.0732883  -0.0676908), wk =   0.0156250
        k(   81) = (  -1.7470200  -0.4293153  -0.0676908), wk =   0.0312500
        k(   82) = (  -1.4974457  -0.2146577  -0.0676908), wk =   0.0312500
        k(   83) = (  -1.2478714   0.0000000  -0.0676908), wk =   0.0156250
        k(   84) = (   0.0000000   0.8586307   0.0000000), wk =   0.0078125
        k(   85) = (   0.2495743   1.0732883   0.0000000), wk =   0.0156250
        k(   86) = (  -1.4974457  -0.4293153   0.0000000), wk =   0.0156250
        k(   87) = (  -1.2478714  -0.2146577   0.0000000), wk =   0.0156250
        k(   88) = (  -0.9982971   0.0000000   0.0000000), wk =   0.0078125
        k(   89) = (   0.0000000   0.0000000   0.4061450), wk =   0.0078125
        k(   90) = (  -1.9965943  -0.2146577  -0.0676908), wk =   0.0156250
        k(   91) = (  -1.7470200   0.0000000  -0.0676908), wk =   0.0156250
        k(   92) = (   0.0000000   1.2879460   0.0000000), wk =   0.0078125
        k(   93) = (  -1.7470200  -0.2146577   0.0000000), wk =   0.0156250
        k(   94) = (  -1.4974457   0.0000000   0.0000000), wk =   0.0078125
        k(   95) = (  -1.9965943  -1.7172613  -0.5415266), wk =   0.0039062

                       cryst. coord.
        k(    1) = (   0.0000000   0.0000000   0.0000000), wk =   0.0039062
        k(    2) = (   0.0000000   0.0000000   0.1250000), wk =   0.0156250
        k(    3) = (   0.0000000   0.0000000   0.2500000), wk =   0.0156250
        k(    4) = (  -0.0000000   0.0000000   0.3750000), wk =   0.0156250
        k(    5) = (   0.0000000   0.0000000  -0.5000000), wk =   0.0078125
        k(    6) = (   0.0000000   0.1250000   0.0000000), wk =   0.0156250
        k(    7) = (   0.0000000   0.1250000   0.1250000), wk =   0.0312500
        k(    8) = (   0.0000000   0.1250000   0.2500000), wk =   0.0312500
        k(    9) = (  -0.0000000   0.1250000   0.3750000), wk =   0.0312500
        k(   10) = (   0.0000000   0.1250000  -0.5000000), wk =   0.0312500
        k(   11) = (   0.0000000   0.1250000  -0.3750000), wk =   0.0312500
        k(   12) = (   0.0000000   0.1250000  -0.2500000), wk =   0.0312500
        k(   13) = (   0.0000000   0.1250000  -0.1250000), wk =   0.0156250
        k(   14) = (   0.0000000   0.2500000   0.0000000), wk =   0.0156250
        k(   15) = (   0.0000000   0.2500000   0.1250000), wk =   0.0312500
        k(   16) = (   0.0000000   0.2500000   0.2500000), wk =   0.0312500
        k(   17) = (  -0.0000000   0.2500000   0.3750000), wk =   0.0312500
        k(   18) = (   0.0000000   0.2500000  -0.5000000), wk =   0.0312500
        k(   19) = (   0.0000000   0.2500000  -0.3750000), wk =   0.0312500
        k(   20) = (   0.0000000   0.2500000  -0.2500000), wk =   0.0156250
        k(   21) = (   0.0000000   0.2500000  -0.1250000), wk =   0.0312500
        k(   22) = (   0.0000000   0.3750000   0.0000000), wk =   0.0156250
        k(   23) = (   0.0000000   0.3750000   0.1250000), wk =   0.0312500
        k(   24) = (  -0.0000000   0.3750000   0.2500000), wk =   0.0312500
        k(   25) = (  -0.0000000   0.3750000   0.3750000), wk =   0.0312500
        k(   26) = (   0.0000000   0.3750000  -0.5000000), wk =   0.0312500
        k(   27) = (   0.0000000   0.3750000  -0.3750000), wk =   0.0156250
        k(   28) = (   0.0000000   0.3750000  -0.2500000), wk =   0.0312500
        k(   29) = (   0.0000000   0.3750000  -0.1250000), wk =   0.0312500
        k(   30) = (   0.0000000  -0.5000000   0.0000000), wk =   0.0078125
        k(   31) = (   0.0000000  -0.5000000   0.1250000), wk =   0.0312500
        k(   32) = (   0.0000000  -0.5000000   0.2500000), wk =   0.0312500
        k(   33) = (   0.0000000  -0.5000000   0.3750000), wk =   0.0312500
        k(   34) = (   0.0000000  -0.5000000  -0.5000000), wk =   0.0078125
        k(   35) = (   0.1250000   0.1250000   0.1250000), wk =   0.0312500
        k(   36) = (   0.1250000   0.1250000   0.2500000), wk =   0.0312500
        k(   37) = (   0.1250000   0.1250000   0.3750000), wk =   0.0156250
        k(   38) = (   0.1250000   0.1250000  -0.1250000), wk =   0.0078125
        k(   39) = (   0.1250000   0.2500000   0.1250000), wk =   0.0312500
        k(   40) = (   0.1250000   0.2500000   0.2500000), wk =   0.0312500
        k(   41) = (   0.1250000   0.2500000   0.3750000), wk =   0.0312500
        k(   42) = (   0.1250000   0.2500000  -0.5000000), wk =   0.0312500
        k(   43) = (   0.1250000   0.2500000  -0.2500000), wk =   0.0156250
        k(   44) = (   0.1250000   0.2500000  -0.1250000), wk =   0.0156250
        k(   45) = (   0.1250000   0.3750000   0.1250000), wk =   0.0156250
        k(   46) = (   0.1250000   0.3750000   0.2500000), wk =   0.0312500
        k(   47) = (   0.1250000   0.3750000   0.3750000), wk =   0.0156250
        k(   48) = (   0.1250000   0.3750000  -0.3750000), wk =   0.0156250
        k(   49) = (   0.1250000   0.3750000  -0.2500000), wk =   0.0312500
        k(   50) = (   0.1250000   0.3750000  -0.1250000), wk =   0.0156250
        k(   51) = (   0.1250000  -0.5000000  -0.5000000), wk =   0.0156250
        k(   52) = (   0.1250000  -0.5000000  -0.3750000), wk =   0.0312500
        k(   53) = (   0.1250000  -0.5000000  -0.2500000), wk =   0.0312500
        k(   54) = (   0.1250000  -0.5000000  -0.1250000), wk =   0.0156250
        k(   55) = (   0.1250000  -0.3750000   0.3750000), wk =   0.0156250
        k(   56) = (   0.1250000  -0.3750000  -0.5000000), wk =   0.0312500
        k(   57) = (   0.1250000  -0.3750000  -0.3750000), wk =   0.0312500
        k(   58) = (   0.1250000  -0.3750000  -0.2500000), wk =   0.0312500
        k(   59) = (   0.1250000  -0.3750000  -0.1250000), wk =   0.0156250
        k(   60) = (   0.1250000  -0.2500000   0.2500000), wk =   0.0156250
        k(   61) = (   0.1250000  -0.2500000   0.3750000), wk =   0.0312500
        k(   62) = (   0.1250000  -0.2500000  -0.5000000), wk =   0.0312500
        k(   63) = (   0.1250000  -0.2500000  -0.3750000), wk =   0.0312500
        k(   64) = (   0.1250000  -0.2500000  -0.2500000), wk =   0.0312500
        k(   65) = (   0.1250000  -0.2500000  -0.1250000), wk =   0.0156250
        k(   66) = (   0.1250000  -0.1250000   0.1250000), wk =   0.0078125
        k(   67) = (   0.1250000  -0.1250000   0.2500000), wk =   0.0156250
        k(   68) = (   0.1250000  -0.1250000   0.3750000), wk =   0.0156250
        k(   69) = (   0.1250000  -0.1250000  -0.5000000), wk =   0.0156250
        k(   70) = (   0.1250000  -0.1250000  -0.3750000), wk =   0.0156250
        k(   71) = (   0.1250000  -0.1250000  -0.2500000), wk =   0.0156250
        k(   72) = (   0.1250000  -0.1250000  -0.1250000), wk =   0.0078125
        k(   73) = (   0.2500000   0.2500000   0.2500000), wk =   0.0078125
        k(   74) = (   0.2500000   0.2500000  -0.2500000), wk =   0.0078125
        k(   75) = (   0.2500000   0.3750000  -0.3750000), wk =   0.0156250
        k(   76) = (   0.2500000   0.3750000  -0.2500000), wk =   0.0156250
        k(   77) = (   0.2500000  -0.5000000  -0.5000000), wk =   0.0156250
        k(   78) = (   0.2500000  -0.5000000  -0.3750000), wk =   0.0312500
        k(   79) = (   0.2500000  -0.5000000  -0.2500000), wk =   0.0156250
        k(   80) = (   0.2500000  -0.3750000   0.3750000), wk =   0.0156250
        k(   81) = (   0.2500000  -0.3750000  -0.5000000), wk =   0.0312500
        k(   82) = (   0.2500000  -0.3750000  -0.3750000), wk =   0.0312500
        k(   83) = (   0.2500000  -0.3750000  -0.2500000), wk =   0.0156250
        k(   84) = (   0.2500000  -0.2500000   0.2500000), wk =   0.0078125
        k(   85) = (   0.2500000  -0.2500000   0.3750000), wk =   0.0156250
        k(   86) = (   0.2500000  -0.2500000  -0.5000000), wk =   0.0156250
        k(   87) = (   0.2500000  -0.2500000  -0.3750000), wk =   0.0156250
        k(   88) = (   0.2500000  -0.2500000  -0.2500000), wk =   0.0078125
        k(   89) = (   0.3750000   0.3750000  -0.3750000), wk =   0.0078125
        k(   90) = (   0.3750000  -0.5000000  -0.5000000), wk =   0.0156250
        k(   91) = (   0.3750000  -0.5000000  -0.3750000), wk =   0.0156250
        k(   92) = (   0.3750000  -0.3750000   0.3750000), wk =   0.0078125
        k(   93) = (   0.3750000  -0.3750000  -0.5000000), wk =   0.0156250
        k(   94) = (   0.3750000  -0.3750000  -0.3750000), wk =   0.0078125
        k(   95) = (  -0.5000000  -0.5000000  -0.5000000), wk =   0.0039062

     Dense  grid:   135907 G-vectors     FFT dimensions: ( 100, 100, 100)

     Smooth grid:    34429 G-vectors     FFT dimensions: (  64,  64,  64)

     Dynamical RAM for                 wfc:       0.03 MB

     Dynamical RAM for     wfc (w. buffer):       2.74 MB

     Dynamical RAM for           str. fact:       0.13 MB

     Dynamical RAM for           local pot:       0.00 MB

     Dynamical RAM for          nlocal pot:       0.06 MB

     Dynamical RAM for                qrad:       5.90 MB

     Dynamical RAM for          rho,v,vnew:       0.82 MB

     Dynamical RAM for               rhoin:       0.27 MB

     Dynamical RAM for            rho*nmix:       0.69 MB

     Dynamical RAM for           G-vectors:       0.17 MB

     Dynamical RAM for          h,s,v(r/c):       0.08 MB

     Dynamical RAM for          <psi|beta>:       0.01 MB

     Dynamical RAM for                 psi:       0.06 MB

     Dynamical RAM for                hpsi:       0.06 MB

     Dynamical RAM for                spsi:       0.06 MB

     Dynamical RAM for      wfcinit/wfcrot:       0.08 MB

     Dynamical RAM for           addusdens:       8.12 MB

     Dynamical RAM for          addusforce:       8.24 MB

     Dynamical RAM for         addusstress:       8.69 MB

     Estimated static dynamical RAM per process >      12.08 MB

     Estimated max dynamical RAM per process >      20.77 MB

     Estimated total dynamical RAM >     996.96 MB

     Initial potential from superposition of free atoms

     starting charge   32.99867, renormalised to   33.00000
     Starting wfcs are   25 randomized atomic wfcs
     Checking if some PAW data can be deallocated... 
       PAW data deallocated on   36 nodes for type:  1
       PAW data deallocated on   24 nodes for type:  2
       PAW data deallocated on   36 nodes for type:  3

     total cpu time spent up to now is        1.7 secs

     Self-consistent Calculation

     iteration #  1     ecut=    60.00 Ry     beta= 0.70
     Davidson diagonalization with overlap
     ethr =  1.00E-02,  avg # of iterations =  2.2

     total cpu time spent up to now is        4.1 secs

     total energy              =    -534.52126148 Ry
     estimated scf accuracy    <       0.76456147 Ry

     iteration #  2     ecut=    60.00 Ry     beta= 0.70
     Davidson diagonalization with overlap
     ethr =  2.32E-03,  avg # of iterations =  3.6

     total cpu time spent up to now is        7.0 secs

     total energy              =    -533.64286709 Ry
     estimated scf accuracy    <       8.30713732 Ry

     iteration #  3     ecut=    60.00 Ry     beta= 0.70
     Davidson diagonalization with overlap
     ethr =  2.32E-03,  avg # of iterations =  3.5

     total cpu time spent up to now is        9.6 secs

     total energy              =    -534.97044142 Ry
     estimated scf accuracy    <       0.12344500 Ry

     iteration #  4     ecut=    60.00 Ry     beta= 0.70
     Davidson diagonalization with overlap
     ethr =  3.74E-04,  avg # of iterations =  1.3

     total cpu time spent up to now is       11.7 secs

     total energy              =    -534.96451345 Ry
     estimated scf accuracy    <       0.05843091 Ry

     iteration #  5     ecut=    60.00 Ry     beta= 0.70
     Davidson diagonalization with overlap
     ethr =  1.77E-04,  avg # of iterations =  1.5

     total cpu time spent up to now is       13.8 secs

     total energy              =    -534.96039185 Ry
     estimated scf accuracy    <       0.02384901 Ry

     iteration #  6     ecut=    60.00 Ry     beta= 0.70
     Davidson diagonalization with overlap
     ethr =  7.23E-05,  avg # of iterations =  2.0

     total cpu time spent up to now is       16.0 secs

     total energy              =    -534.96308939 Ry
     estimated scf accuracy    <       0.00059080 Ry

     iteration #  7     ecut=    60.00 Ry     beta= 0.70
     Davidson diagonalization with overlap
     ethr =  1.79E-06,  avg # of iterations =  3.5

     total cpu time spent up to now is       18.8 secs

     total energy              =    -534.96327975 Ry
     estimated scf accuracy    <       0.00016820 Ry

     iteration #  8     ecut=    60.00 Ry     beta= 0.70
     Davidson diagonalization with overlap
     ethr =  5.10E-07,  avg # of iterations =  1.2

     total cpu time spent up to now is       20.9 secs

     total energy              =    -534.96328042 Ry
     estimated scf accuracy    <       0.00002821 Ry

     iteration #  9     ecut=    60.00 Ry     beta= 0.70
     Davidson diagonalization with overlap
     ethr =  8.55E-08,  avg # of iterations =  2.4

     total cpu time spent up to now is       23.3 secs

     total energy              =    -534.96328694 Ry
     estimated scf accuracy    <       0.00000063 Ry

     iteration # 10     ecut=    60.00 Ry     beta= 0.70
     Davidson diagonalization with overlap
     ethr =  1.90E-09,  avg # of iterations =  3.4

     total cpu time spent up to now is       26.0 secs

     total energy              =    -534.96328717 Ry
     estimated scf accuracy    <          9.1E-09 Ry

     iteration # 11     ecut=    60.00 Ry     beta= 0.70
     Davidson diagonalization with overlap
     ethr =  2.75E-11,  avg # of iterations =  4.7

     total cpu time spent up to now is       29.4 secs

     total energy              =    -534.96328718 Ry
     estimated scf accuracy    <       0.00000002 Ry

     iteration # 12     ecut=    60.00 Ry     beta= 0.70
     Davidson diagonalization with overlap
     ethr =  2.75E-11,  avg # of iterations =  2.3

     total cpu time spent up to now is       31.7 secs

     End of self-consistent calculation

          k = 0.0000 0.0000 0.0000 (  4275 PWs)   bands (ev):

   -49.8333 -26.0562 -25.7914 -25.7138 -12.3812  -9.5182  -8.8290   0.6172
     2.4660   2.7377   2.8736   3.0047   3.4597   3.9430   4.2020   4.2832
     5.5078   7.2164   7.3570   8.6532   9.3894

     occupation numbers 
     1.0000   1.0000   1.0000   1.0000   1.0000   1.0000   1.0000   1.0000
     1.0000   1.0000   1.0000   1.0000   1.0000   1.0000   1.0000   1.0000
     1.0000  -0.0015  -0.0000  -0.0000  -0.0000

          k = 0.2496 0.2147 0.0000 (  4284 PWs)   bands (ev):

   -49.8308 -26.0813 -25.7848 -25.7448 -12.1860  -9.4096  -8.8366   0.8288
     2.1224   2.2560   2.4442   2.9947   3.2928   3.5036   3.8837   4.0356
     5.9412   7.5261   7.6017   8.7571  10.0932

     occupation numbers 
     1.0000   1.0000   1.0000   1.0000   1.0000   1.0000   1.0000   1.0000
     1.0000   1.0000   1.0000   1.0000   1.0000   1.0000   1.0000   1.0000
     1.0000  -0.0000  -0.0000  -0.0000  -0.0000

          k = 0.4991 0.4293 0.0000 (  4309 PWs)   bands (ev):

   -49.8246 -26.1402 -25.8188 -25.7689 -11.6871  -9.1322  -8.8588   1.1107
     1.4018   1.7334   1.8974   2.0073   2.1869   2.9236   3.8460   4.0137
     6.8120   8.1648   8.2756   9.1646  11.1554

     occupation numbers 
     1.0000   1.0000   1.0000   1.0000   1.0000   1.0000   1.0000   1.0000
     1.0000   1.0000   1.0000   1.0000   1.0000   1.0000   1.0000   1.0000
     0.5319  -0.0000  -0.0000  -0.0000  -0.0000

          k = 0.7487 0.6440 0.0000 (  4296 PWs)   bands (ev):

   -49.8181 -26.1966 -25.8914 -25.7530 -11.1375  -8.8860  -8.8276  -0.0710
     0.9783   1.2643   1.6653   1.7793   2.1869   2.3109   3.5234   3.9760
     7.8687   8.8533   9.0611   9.5797  11.3948

     occupation numbers 
     1.0000   1.0000   1.0000   1.0000   1.0000   1.0000   1.0000   1.0000
     1.0000   1.0000   1.0000   1.0000   1.0000   1.0000   1.0000   1.0000
    -0.0000  -0.0000  -0.0000  -0.0000  -0.0000

          k =-0.9983-0.8586 0.0000 (  4304 PWs)   bands (ev):

   -49.8155 -26.2193 -25.9210 -25.7464 -10.8902  -8.8987  -8.6910  -0.5598
     0.6056   0.9559   1.7509   1.8300   1.9838   2.5731   3.2694   3.8805
     8.4674   9.1845   9.3769   9.7698  11.4223

     occupation numbers 
     1.0000   1.0000   1.0000   1.0000   1.0000   1.0000   1.0000   1.0000
     1.0000   1.0000   1.0000   1.0000   1.0000   1.0000   1.0000   1.0000
    -0.0000  -0.0000  -0.0000  -0.0000  -0.0000

          k = 0.2496 0.0000 0.0677 (  4283 PWs)   bands (ev):

   -49.8313 -26.0537 -25.7858 -25.7458 -12.3639  -9.4289  -8.8420   0.8068
     2.2498   2.6637   2.9512   3.0597   3.1027   3.8011   3.9336   4.1210
     5.9256   7.1259   7.2966   8.7372   9.7683

     occupation numbers 
     1.0000   1.0000   1.0000   1.0000   1.0000   1.0000   1.0000   1.0000
     1.0000   1.0000   1.0000   1.0000   1.0000   1.0000   1.0000   1.0000
     1.0000  -0.0114  -0.0001  -0.0000  -0.0000

          k = 0.4991 0.2147 0.0677 (  4309 PWs)   bands (ev):

   -49.8258 -26.0751 -25.8212 -25.7713 -12.1450  -9.1892  -8.8605   1.2358
     1.9033   2.0829   2.2409   2.4857   2.8921   3.0655   3.8701   4.0705
     6.7606   7.3225   7.4408   9.1677  10.5554

     occupation numbers 
     1.0000   1.0000   1.0000   1.0000   1.0000   1.0000   1.0000   1.0000
     1.0000   1.0000   1.0000   1.0000   1.0000   1.0000   1.0000   1.0000
     0.7784  -0.0001  -0.0000  -0.0000  -0.0000

          k = 0.7487 0.4293 0.0677 (  4317 PWs)   bands (ev):

   -49.8195 -26.1334 -25.8939 -25.7553 -11.6477  -8.9109  -8.8641   1.0918
     1.2401   1.4429   1.6812   1.9130   2.2621   2.5432   3.7133   4.1144
     7.7204   8.0657   8.1726   9.6568  11.1360

     occupation numbers 
     1.0000   1.0000   1.0000   1.0000   1.0000   1.0000   1.0000   1.0000
     1.0000   1.0000   1.0000   1.0000   1.0000   1.0000   1.0000   1.0000
    -0.0000  -0.0000  -0.0000  -0.0000  -0.0000

          k = 0.9983 0.6440 0.0677 (  4305 PWs)   bands (ev):

   -49.8160 -26.1936 -25.9221 -25.7473 -11.1220  -8.9107  -8.7044  -0.0583
     0.7504   0.9309   1.5591   1.9418   2.2121   2.6033   3.3443   3.9456
     8.4553   8.7805   9.0202   9.7544  11.2960

     occupation numbers 
     1.0000   1.0000   1.0000   1.0000   1.0000   1.0000   1.0000   1.0000
     1.0000   1.0000   1.0000   1.0000   1.0000   1.0000   1.0000   1.0000
    -0.0000  -0.0000  -0.0000  -0.0000  -0.0000

          k =-0.7487-0.8586 0.0677 (  4317 PWs)   bands (ev):

   -49.8178 -26.2224 -25.8903 -25.7520 -10.9050  -8.9046  -8.7819  -0.5705
     0.7916   1.2453   1.4376   1.8059   2.3307   2.4027   3.4326   3.8234
     7.9201   9.2356   9.4251   9.4902  11.3558

     occupation numbers 
     1.0000   1.0000   1.0000   1.0000   1.0000   1.0000   1.0000   1.0000
     1.0000   1.0000   1.0000   1.0000   1.0000   1.0000   1.0000   1.0000
    -0.0000  -0.0000  -0.0000  -0.0000  -0.0000

          k =-0.4991-0.6440 0.0677 (  4296 PWs)   bands (ev):

   -49.8233 -26.2037 -25.8164 -25.7665 -11.1743  -9.0563  -8.8771  -0.1002
     1.3245   1.4616   1.5716   1.8790   2.1362   2.9317   3.7155   3.8071
     6.8885   8.9691   9.0545   9.2229  11.4318

     occupation numbers 
     1.0000   1.0000   1.0000   1.0000   1.0000   1.0000   1.0000   1.0000
     1.0000   1.0000   1.0000   1.0000   1.0000   1.0000   1.0000   1.0000
     0.1701  -0.0000  -0.0000  -0.0000  -0.0000

          k =-0.2496-0.4293 0.0677 (  4301 PWs)   bands (ev):

   -49.8297 -26.1469 -25.7824 -25.7427 -11.7263  -9.3413  -8.8502   0.9171
     1.1331   1.4952   2.2527   2.5206   3.1835   3.4092   3.7285   3.9164
     6.0058   8.3745   8.4047   8.7914  10.6521

     occupation numbers 
     1.0000   1.0000   1.0000   1.0000   1.0000   1.0000   1.0000   1.0000
     1.0000   1.0000   1.0000   1.0000   1.0000   1.0000   1.0000   1.0000
     1.0000  -0.0000  -0.0000  -0.0000  -0.0000

          k = 0.0000-0.2147 0.0677 (  4282 PWs)   bands (ev):

   -49.8329 -26.0839 -25.7904 -25.7129 -12.2029  -9.4879  -8.8377   0.6698
     2.0630   2.4326   2.4885   3.2946   3.3576   3.7542   3.9568   4.1602
     5.5365   7.6414   7.6668   8.6825   9.7262

     occupation numbers 
     1.0000   1.0000   1.0000   1.0000   1.0000   1.0000   1.0000   1.0000
     1.0000   1.0000   1.0000   1.0000   1.0000   1.0000   1.0000   1.0000
     1.0000  -0.0000  -0.0000  -0.0000  -0.0000

          k = 0.4991 0.0000 0.1354 (  4298 PWs)   bands (ev):

   -49.8262 -26.0477 -25.8222 -25.7722 -12.3223  -9.2061  -8.8682   1.1837
     1.9252   2.0248   2.4807   3.0502   3.3267   3.4631   3.7856   3.9094
     6.7898   6.9389   7.0970   9.1092  10.1166

     occupation numbers 
     1.0000   1.0000   1.0000   1.0000   1.0000   1.0000   1.0000   1.0000
     1.0000   1.0000   1.0000   1.0000   1.0000   1.0000   1.0000   1.0000
     0.6443   0.0270  -0.0182  -0.0000  -0.0000

          k = 0.7487 0.2147 0.1354 (  4308 PWs)   bands (ev):

   -49.8206 -26.0688 -25.8965 -25.7576 -12.1040  -8.9711  -8.8631   1.0788
     1.4584   1.8252   2.0179   2.6182   2.7657   3.1402   3.8333   4.0165
     7.0939   7.2295   7.8530   9.6468  10.4576

     occupation numbers 
     1.0000   1.0000   1.0000   1.0000   1.0000   1.0000   1.0000   1.0000
     1.0000   1.0000   1.0000   1.0000   1.0000   1.0000   1.0000   1.0000
    -0.0190  -0.0011  -0.0000  -0.0000  -0.0000

          k = 0.9983 0.4293 0.1354 (  4313 PWs)   bands (ev):

   -49.8173 -26.1306 -25.9247 -25.7497 -11.6313  -8.9395  -8.7361   0.7676
     1.2171   1.2410   1.4288   1.9519   2.6343   2.8143   3.5539   4.0451
     7.8531   8.1214   8.4578   9.7382  10.9123

     occupation numbers 
     1.0000   1.0000   1.0000   1.0000   1.0000   1.0000   1.0000   1.0000
     1.0000   1.0000   1.0000   1.0000   1.0000   1.0000   1.0000   1.0000
    -0.0000  -0.0000  -0.0000  -0.0000  -0.0000

          k = 1.2479 0.6440 0.1354 (  4297 PWs)   bands (ev):

   -49.8181 -26.1966 -25.8913 -25.7530 -11.1372  -8.9418  -8.7677  -0.0713
     0.9221   1.1572   1.3360   1.9088   2.5124   2.5801   3.5039   3.8067
     7.9369   8.8375   9.0665   9.4168  11.1980

     occupation numbers 
     1.0000   1.0000   1.0000   1.0000   1.0000   1.0000   1.0000   1.0000
     1.0000   1.0000   1.0000   1.0000   1.0000   1.0000   1.0000   1.0000
    -0.0000  -0.0000  -0.0000  -0.0000  -0.0000

          k =-0.4991-0.8586 0.1354 (  4300 PWs)   bands (ev):

   -49.8228 -26.2297 -25.8154 -25.7656 -10.9400  -8.9907  -8.9201  -0.5963
     1.1763   1.2218   1.7237   1.8023   2.1814   2.9632   3.5796   3.7473
     6.9425   8.9649   9.4211   9.5193  11.4779

     occupation numbers 
     1.0000   1.0000   1.0000   1.0000   1.0000   1.0000   1.0000   1.0000
     1.0000   1.0000   1.0000   1.0000   1.0000   1.0000   1.0000   1.0000
     0.0204  -0.0000  -0.0000  -0.0000  -0.0000

          k =-0.2496-0.6440 0.1354 (  4308 PWs)   bands (ev):

   -49.8286 -26.2109 -25.7800 -25.7405 -11.2106  -9.2516  -8.8898  -0.1284
     0.9544   1.2485   2.0113   2.2595   2.9740   3.3198   3.5283   3.9370
     6.0744   8.7712   9.2221   9.2545  11.0548

     occupation numbers 
     1.0000   1.0000   1.0000   1.0000   1.0000   1.0000   1.0000   1.0000
     1.0000   1.0000   1.0000   1.0000   1.0000   1.0000   1.0000   1.0000
     1.0000  -0.0000  -0.0000  -0.0000  -0.0000

          k = 0.0000-0.4293 0.1354 (  4304 PWs)   bands (ev):

   -49.8319 -26.1496 -25.7880 -25.7108 -11.7423  -9.4082  -8.8665   0.7812
     1.1097   1.4392   2.5451   2.9045   3.0145   3.5515   3.9525   4.0104
     5.5917   8.4255   8.5358   8.7541  10.3275

     occupation numbers 
     1.0000   1.0000   1.0000   1.0000   1.0000   1.0000   1.0000   1.0000
     1.0000   1.0000   1.0000   1.0000   1.0000   1.0000   1.0000   1.0000
     1.0000  -0.0000  -0.0000  -0.0000  -0.0000

          k = 0.2496-0.2147 0.1354 (  4290 PWs)   bands (ev):

   -49.8308 -26.0813 -25.7848 -25.7449 -12.1857  -9.3906  -8.8597   0.8849
     2.1379   2.2509   2.4552   2.9583   3.2054   3.4977   3.8611   4.0666
     5.9647   7.5200   7.6193   8.7389  10.1587

     occupation numbers 
     1.0000   1.0000   1.0000   1.0000   1.0000   1.0000   1.0000   1.0000
     1.0000   1.0000   1.0000   1.0000   1.0000   1.0000   1.0000   1.0000
     1.0000  -0.0000  -0.0000  -0.0000  -0.0000

          k = 0.7487 0.0000 0.2031 (  4308 PWs)   bands (ev):

   -49.8210 -26.0416 -25.8976 -25.7586 -12.2809  -9.0092  -8.8477   1.0097
     1.3340   1.9964   2.0969   3.1700   3.4413   3.5793   3.7299   3.7609
     6.7825   6.7971   7.8408   9.5502   9.9847

     occupation numbers 
     1.0000   1.0000   1.0000   1.0000   1.0000   1.0000   1.0000   1.0000
     1.0000   1.0000   1.0000   1.0000   1.0000   1.0000   1.0000   1.0000
     0.6799   0.6081  -0.0000  -0.0000  -0.0000

          k = 0.9983 0.2147 0.2031 (  4308 PWs)   bands (ev):

   -49.8184 -26.0662 -25.9274 -25.7520 -12.0870  -8.9679  -8.7673   0.6971
     1.3340   1.7687   1.9299   2.6873   2.9047   3.4025   3.8044   3.9310
     7.0334   7.1219   8.4343   9.6783  10.3187

     occupation numbers 
     1.0000   1.0000   1.0000   1.0000   1.0000   1.0000   1.0000   1.0000
     1.0000   1.0000   1.0000   1.0000   1.0000   1.0000   1.0000   1.0000
    -0.0343  -0.0122  -0.0000  -0.0000  -0.0000

          k = 1.2479 0.4293 0.2031 (  4300 PWs)   bands (ev):

   -49.8193 -26.1334 -25.8939 -25.7553 -11.6474  -8.9841  -8.7852   1.0046
     1.1825   1.2994   1.3948   2.0978   2.6510   2.8091   3.6924   3.9535
     7.8602   7.9920   8.1773   9.4090  10.8727

     occupation numbers 
     1.0000   1.0000   1.0000   1.0000   1.0000   1.0000   1.0000   1.0000
     1.0000   1.0000   1.0000   1.0000   1.0000   1.0000   1.0000   1.0000
    -0.0000  -0.0000  -0.0000  -0.0000  -0.0000

          k = 1.4974 0.6440 0.2031 (  4303 PWs)   bands (ev):

   -49.8233 -26.2038 -25.8164 -25.7665 -11.1738  -9.0214  -8.9128  -0.1014
     1.2553   1.3215   1.6937   1.8486   2.2868   3.0110   3.5558   3.8705
     6.9470   8.8597   9.1207   9.1561  11.3675

     occupation numbers 
     1.0000   1.0000   1.0000   1.0000   1.0000   1.0000   1.0000   1.0000
     1.0000   1.0000   1.0000   1.0000   1.0000   1.0000   1.0000   1.0000
     0.0128  -0.0000  -0.0000  -0.0000  -0.0000

          k =-0.2496-0.8586 0.2031 (  4306 PWs)   bands (ev):

   -49.8281 -26.2370 -25.7790 -25.7396 -10.9744  -9.1873  -8.9371  -0.6219
     0.8394   1.4207   1.7751   2.1698   2.8877   3.2251   3.4804   3.9644
     6.1113   8.7857   9.5713   9.6012  11.2167

     occupation numbers 
     1.0000   1.0000   1.0000   1.0000   1.0000   1.0000   1.0000   1.0000
     1.0000   1.0000   1.0000   1.0000   1.0000   1.0000   1.0000   1.0000
     1.0000  -0.0000  -0.0000  -0.0000  -0.0000

          k = 0.0000-0.6440 0.2031 (  4311 PWs)   bands (ev):

   -49.8307 -26.2139 -25.7856 -25.7087 -11.2253  -9.3136  -8.9139  -0.1404
     0.7867   1.2393   2.4071   2.5604   2.6081   3.4591   3.9246   3.9858
     5.6455   8.8248   9.2246   9.3615  10.7920

     occupation numbers 
     1.0000   1.0000   1.0000   1.0000   1.0000   1.0000   1.0000   1.0000
     1.0000   1.0000   1.0000   1.0000   1.0000   1.0000   1.0000   1.0000
     1.0000  -0.0000  -0.0000  -0.0000  -0.0000

          k = 0.2496-0.4293 0.2031 (  4300 PWs)   bands (ev):

   -49.8297 -26.1469 -25.7824 -25.7427 -11.7258  -9.3069  -8.8906   0.9624
     1.1579   1.5904   2.1773   2.5422   2.9611   3.4651   3.5780   4.0750
     6.0353   8.3939   8.4029   8.7670  10.7528

     occupation numbers 
     1.0000   1.0000   1.0000   1.0000   1.0000   1.0000   1.0000   1.0000
     1.0000   1.0000   1.0000   1.0000   1.0000   1.0000   1.0000   1.0000
     1.0000  -0.0000  -0.0000  -0.0000  -0.0000

          k = 0.4991-0.2147 0.2031 (  4298 PWs)   bands (ev):

   -49.8257 -26.0751 -25.8212 -25.7713 -12.1447  -9.1751  -8.8751   1.2089
     1.8878   1.9445   2.3084   2.5186   2.9332   3.1632   3.8423   4.0825
     6.8160   7.2883   7.4551   9.0366  10.4990

     occupation numbers 
     1.0000   1.0000   1.0000   1.0000   1.0000   1.0000   1.0000   1.0000
     1.0000   1.0000   1.0000   1.0000   1.0000   1.0000   1.0000   1.0000
     0.5111  -0.0002  -0.0000  -0.0000  -0.0000

          k =-0.9983 0.0000-0.2708 (  4322 PWs)   bands (ev):

   -49.8190 -26.0391 -25.9285 -25.7529 -12.2637  -8.9795  -8.7801   0.6632
     1.3139   1.8912   2.0435   3.3080   3.4087   3.5010   3.7829   3.9223
     6.6059   6.7467   8.4218   9.5416  10.0319

     occupation numbers 
     1.0000   1.0000   1.0000   1.0000   1.0000   1.0000   1.0000   1.0000
     1.0000   1.0000   1.0000   1.0000   1.0000   1.0000   1.0000   1.0000
     1.0347   0.8340  -0.0000  -0.0000  -0.0000

          k =-0.7487 0.2147-0.2708 (  4302 PWs)   bands (ev):

   -49.8205 -26.0688 -25.8965 -25.7576 -12.1039  -9.0120  -8.8183   0.9975
     1.2699   1.8244   2.1583   2.6364   2.8947   3.2515   3.8080   4.0107
     7.0830   7.2235   7.8832   9.4659  10.3255

     occupation numbers 
     1.0000   1.0000   1.0000   1.0000   1.0000   1.0000   1.0000   1.0000
     1.0000   1.0000   1.0000   1.0000   1.0000   1.0000   1.0000   1.0000
    -0.0220  -0.0012  -0.0000  -0.0000  -0.0000

          k =-0.4991 0.4293-0.2708 (  4292 PWs)   bands (ev):

   -49.8245 -26.1401 -25.8188 -25.7689 -11.6866  -9.1054  -8.8864   1.0926
     1.3097   1.6909   1.8863   1.9362   2.4029   3.0825   3.6935   4.0585
     6.8954   8.1358   8.2992   8.9920  11.0614

     occupation numbers 
     1.0000   1.0000   1.0000   1.0000   1.0000   1.0000   1.0000   1.0000
     1.0000   1.0000   1.0000   1.0000   1.0000   1.0000   1.0000   1.0000
     0.1450  -0.0000  -0.0000  -0.0000  -0.0000

          k =-0.2496 0.6440-0.2708 (  4312 PWs)   bands (ev):

   -49.8286 -26.2109 -25.7800 -25.7405 -11.2102  -9.2150  -8.9309  -0.1296
     0.9470   1.4645   1.8443   2.2686   2.8833   3.2753   3.5010   4.0204
     6.0963   8.7763   9.2106   9.2571  11.1230

     occupation numbers 
     1.0000   1.0000   1.0000   1.0000   1.0000   1.0000   1.0000   1.0000
     1.0000   1.0000   1.0000   1.0000   1.0000   1.0000   1.0000   1.0000
     1.0000  -0.0000  -0.0000  -0.0000  -0.0000

          k =-1.9966-0.8586-0.2708 (  4316 PWs)   bands (ev):

   -49.8303 -26.2401 -25.7846 -25.7079 -10.9884  -9.2656  -8.9446  -0.6325
     0.6867   1.3323   2.1201   2.4343   2.6327   3.4177   3.8948   3.9825
     5.6679   8.8547   9.5752   9.6992  10.9630

     occupation numbers 
     1.0000   1.0000   1.0000   1.0000   1.0000   1.0000   1.0000   1.0000
     1.0000   1.0000   1.0000   1.0000   1.0000   1.0000   1.0000   1.0000
     1.0000  -0.0000  -0.0000  -0.0000  -0.0000

          k = 0.4991 0.4293 0.1354 (  4297 PWs)   bands (ev):

   -49.8245 -26.1401 -25.8188 -25.7689 -11.6869  -9.1249  -8.8663   1.1049
     1.3665   1.7510   1.8356   2.0664   2.1923   2.9851   3.7947   4.0340
     6.8355   8.1515   8.2859   9.1146  11.1322

     occupation numbers 
     1.0000   1.0000   1.0000   1.0000   1.0000   1.0000   1.0000   1.0000
     1.0000   1.0000   1.0000   1.0000   1.0000   1.0000   1.0000   1.0000
     0.4105  -0.0000  -0.0000  -0.0000  -0.0000

          k = 0.7487 0.6440 0.1354 (  4303 PWs)   bands (ev):

   -49.8182 -26.1966 -25.8914 -25.7530 -11.1374  -8.9012  -8.8117  -0.0711
     0.9713   1.2299   1.6446   1.7362   2.2837   2.3593   3.5175   3.9488
     7.8809   8.8414   9.0612   9.5607  11.3759

     occupation numbers 
     1.0000   1.0000   1.0000   1.0000   1.0000   1.0000   1.0000   1.0000
     1.0000   1.0000   1.0000   1.0000   1.0000   1.0000   1.0000   1.0000
    -0.0000  -0.0000  -0.0000  -0.0000  -0.0000

          k = 0.9983 0.8586 0.1354 (  4304 PWs)   bands (ev):

   -49.8156 -26.2193 -25.9210 -25.7464 -10.8902  -8.8987  -8.6911  -0.5598
     0.6198   0.9261   1.7741   1.8620   1.9497   2.5848   3.2257   3.9086
     8.4691   9.1862   9.3863   9.7415  11.4034

     occupation numbers 
     1.0000   1.0000   1.0000   1.0000   1.0000   1.0000   1.0000   1.0000
     1.0000   1.0000   1.0000   1.0000   1.0000   1.0000   1.0000   1.0000
    -0.0000  -0.0000  -0.0000  -0.0000  -0.0000

          k = 0.0000 0.0000 0.1354 (  4277 PWs)   bands (ev):

   -49.8334 -26.0562 -25.7914 -25.7138 -12.3809  -9.4954  -8.8580   0.6955
     2.4902   2.7067   2.8463   3.0600   3.4462   3.8234   4.1553   4.2478
     5.5256   7.2165   7.3870   8.7045   9.4818

     occupation numbers 
     1.0000   1.0000   1.0000   1.0000   1.0000   1.0000   1.0000   1.0000
     1.0000   1.0000   1.0000   1.0000   1.0000   1.0000   1.0000   1.0000
     1.0000  -0.0015  -0.0000  -0.0000  -0.0000

          k = 0.7487 0.4293 0.2031 (  4303 PWs)   bands (ev):

   -49.8194 -26.1334 -25.8939 -25.7553 -11.6476  -8.9527  -8.8199   1.0537
     1.2099   1.4137   1.4967   1.9885   2.4692   2.6477   3.7010   4.0556
     7.7737   8.0346   8.1741   9.5567  11.0302

     occupation numbers 
     1.0000   1.0000   1.0000   1.0000   1.0000   1.0000   1.0000   1.0000
     1.0000   1.0000   1.0000   1.0000   1.0000   1.0000   1.0000   1.0000
    -0.0000  -0.0000  -0.0000  -0.0000  -0.0000

          k = 0.9983 0.6440 0.2031 (  4301 PWs)   bands (ev):

   -49.8160 -26.1936 -25.9221 -25.7473 -11.1220  -8.9107  -8.7044  -0.0583
     0.7831   0.8784   1.6403   1.8539   2.2252   2.6422   3.2908   3.9753
     8.4636   8.7762   9.0268   9.7230  11.2871

     occupation numbers 
     1.0000   1.0000   1.0000   1.0000   1.0000   1.0000   1.0000   1.0000
     1.0000   1.0000   1.0000   1.0000   1.0000   1.0000   1.0000   1.0000
    -0.0000  -0.0000  -0.0000  -0.0000  -0.0000

          k = 1.2479 0.8586 0.2031 (  4309 PWs)   bands (ev):

   -49.8177 -26.2224 -25.8903 -25.7520 -10.9050  -8.9046  -8.7819  -0.5705
     0.7951   1.2123   1.5387   1.6993   2.3650   2.4117   3.4290   3.8178
     7.9211   9.1983   9.4302   9.5214  11.3943

     occupation numbers 
     1.0000   1.0000   1.0000   1.0000   1.0000   1.0000   1.0000   1.0000
     1.0000   1.0000   1.0000   1.0000   1.0000   1.0000   1.0000   1.0000
    -0.0000  -0.0000  -0.0000  -0.0000  -0.0000

          k =-0.4991-0.6440 0.2031 (  4307 PWs)   bands (ev):

   -49.8234 -26.2038 -25.8164 -25.7666 -11.1741  -9.0439  -8.8899  -0.1007
     1.2920   1.3911   1.6107   1.9259   2.1589   2.9731   3.6279   3.8541
     6.9119   8.8968   9.1164   9.1883  11.4140

     occupation numbers 
     1.0000   1.0000   1.0000   1.0000   1.0000   1.0000   1.0000   1.0000
     1.0000   1.0000   1.0000   1.0000   1.0000   1.0000   1.0000   1.0000
     0.0918  -0.0000  -0.0000  -0.0000  -0.0000

          k = 0.0000-0.2147 0.2031 (  4291 PWs)   bands (ev):

   -49.8330 -26.0839 -25.7905 -25.7129 -12.2023  -9.4441  -8.8924   0.8138
     2.1031   2.4305   2.5321   3.1521   3.2805   3.5634   4.0591   4.0897
     5.5528   7.6410   7.6897   8.7703   9.9093

     occupation numbers 
     1.0000   1.0000   1.0000   1.0000   1.0000   1.0000   1.0000   1.0000
     1.0000   1.0000   1.0000   1.0000   1.0000   1.0000   1.0000   1.0000
     1.0000  -0.0000  -0.0000  -0.0000  -0.0000

          k = 0.2496 0.0000 0.2031 (  4286 PWs)   bands (ev):

   -49.8313 -26.0537 -25.7858 -25.7457 -12.3634  -9.3907  -8.8881   0.9253
     2.2551   2.5881   2.8864   3.0467   3.1766   3.6993   3.9603   4.0492
     5.9784   7.1060   7.3432   8.7090   9.8660

     occupation numbers 
     1.0000   1.0000   1.0000   1.0000   1.0000   1.0000   1.0000   1.0000
     1.0000   1.0000   1.0000   1.0000   1.0000   1.0000   1.0000   1.0000
     1.0000  -0.0159  -0.0000  -0.0000  -0.0000

          k = 0.9983 0.4293 0.2708 (  4308 PWs)   bands (ev):

   -49.8172 -26.1307 -25.9247 -25.7496 -11.6313  -8.9395  -8.7362   0.7546
     1.2168   1.2395   1.5064   1.8618   2.6217   2.8730   3.5271   4.0534
     7.8619   8.1231   8.4512   9.7156  10.9312

     occupation numbers 
     1.0000   1.0000   1.0000   1.0000   1.0000   1.0000   1.0000   1.0000
     1.0000   1.0000   1.0000   1.0000   1.0000   1.0000   1.0000   1.0000
    -0.0000  -0.0000  -0.0000  -0.0000  -0.0000

          k = 1.2479 0.6440 0.2708 (  4308 PWs)   bands (ev):

   -49.8182 -26.1966 -25.8914 -25.7530 -11.1373  -8.9248  -8.7864  -0.0712
     0.9510   1.1728   1.4839   1.8153   2.4245   2.4741   3.5067   3.8805
     7.9098   8.8266   9.0632   9.5004  11.3035

     occupation numbers 
     1.0000   1.0000   1.0000   1.0000   1.0000   1.0000   1.0000   1.0000
     1.0000   1.0000   1.0000   1.0000   1.0000   1.0000   1.0000   1.0000
    -0.0000  -0.0000  -0.0000  -0.0000  -0.0000

          k = 1.4974 0.8586 0.2708 (  4306 PWs)   bands (ev):

   -49.8229 -26.2297 -25.8154 -25.7656 -10.9400  -8.9908  -8.9200  -0.5963
     1.1920   1.2055   1.7099   1.8106   2.1963   2.9511   3.5713   3.7591
     6.9421   8.9551   9.4412   9.5104  11.4897

     occupation numbers 
     1.0000   1.0000   1.0000   1.0000   1.0000   1.0000   1.0000   1.0000
     1.0000   1.0000   1.0000   1.0000   1.0000   1.0000   1.0000   1.0000
     0.0210  -0.0000  -0.0000  -0.0000  -0.0000

          k = 0.0000-0.4293 0.2708 (  4308 PWs)   bands (ev):

   -49.8319 -26.1496 -25.7881 -25.7108 -11.7416  -9.3502  -8.9359   0.8946
     1.1429   1.5752   2.5927   2.6233   2.9004   3.3868   3.9272   4.1552
     5.6037   8.4164   8.5346   8.8424  10.5449

     occupation numbers 
     1.0000   1.0000   1.0000   1.0000   1.0000   1.0000   1.0000   1.0000
     1.0000   1.0000   1.0000   1.0000   1.0000   1.0000   1.0000   1.0000
     1.0000  -0.0000  -0.0000  -0.0000  -0.0000

          k = 0.2496-0.2147 0.2708 (  4288 PWs)   bands (ev):

   -49.8308 -26.0813 -25.7849 -25.7449 -12.1851  -9.3361  -8.9239   1.0459
     2.1084   2.2758   2.4705   2.8376   3.1160   3.4566   3.7856   4.1152
     6.0197   7.5118   7.6495   8.7291  10.2817

     occupation numbers 
     1.0000   1.0000   1.0000   1.0000   1.0000   1.0000   1.0000   1.0000
     1.0000   1.0000   1.0000   1.0000   1.0000   1.0000   1.0000   1.0000
     1.0000  -0.0000  -0.0000  -0.0000  -0.0000

          k = 0.4991 0.0000 0.2708 (  4291 PWs)   bands (ev):

   -49.8261 -26.0477 -25.8222 -25.7722 -12.3219  -9.1866  -8.8884   1.1665
     1.7855   2.0242   2.5646   2.9854   3.4473   3.5434   3.8491   3.8664
     6.8575   6.8889   7.1111   8.9269  10.0379

     occupation numbers 
     1.0000   1.0000   1.0000   1.0000   1.0000   1.0000   1.0000   1.0000
     1.0000   1.0000   1.0000   1.0000   1.0000   1.0000   1.0000   1.0000
     0.3022   0.1685  -0.0147  -0.0000  -0.0000

          k =-1.9966-0.6440-0.2031 (  4298 PWs)   bands (ev):

   -49.8306 -26.2138 -25.7856 -25.7087 -11.2248  -9.2633  -8.9712  -0.1420
     0.8492   1.3895   2.2005   2.5598   2.6380   3.2641   3.8724   4.1464
     5.6517   8.8765   9.2158   9.3608  10.9111

     occupation numbers 
     1.0000   1.0000   1.0000   1.0000   1.0000   1.0000   1.0000   1.0000
     1.0000   1.0000   1.0000   1.0000   1.0000   1.0000   1.0000   1.0000
     1.0000  -0.0000  -0.0000  -0.0000  -0.0000

          k =-1.7470-0.4293-0.2031 (  4297 PWs)   bands (ev):

   -49.8297 -26.1469 -25.7825 -25.7427 -11.7252  -9.2424  -8.9636   1.0119
     1.2518   1.7350   1.9989   2.5344   2.8803   3.3838   3.4241   4.2210
     6.0775   8.3800   8.4103   8.7836  10.8730

     occupation numbers 
     1.0000   1.0000   1.0000   1.0000   1.0000   1.0000   1.0000   1.0000
     1.0000   1.0000   1.0000   1.0000   1.0000   1.0000   1.0000   1.0000
     1.0000  -0.0000  -0.0000  -0.0000  -0.0000

          k =-1.4974-0.2147-0.2031 (  4292 PWs)   bands (ev):

   -49.8256 -26.0751 -25.8212 -25.7713 -12.1443  -9.1523  -8.8986   1.1980
     1.6790   1.9714   2.3811   2.5403   3.0347   3.2508   3.7855   4.1067
     6.9039   7.2551   7.4622   8.8613  10.3999

     occupation numbers 
     1.0000   1.0000   1.0000   1.0000   1.0000   1.0000   1.0000   1.0000
     1.0000   1.0000   1.0000   1.0000   1.0000   1.0000   1.0000   1.0000
     0.1161  -0.0005  -0.0000  -0.0000  -0.0000

          k =-1.2479 0.0000-0.2031 (  4314 PWs)   bands (ev):

   -49.8211 -26.0416 -25.8976 -25.7586 -12.2807  -9.0446  -8.8077   0.9336
     1.1535   2.0148   2.2757   3.1275   3.5573   3.5674   3.7915   3.8486
     6.7425   6.7729   7.8900   9.3463   9.8491

     occupation numbers 
     1.0000   1.0000   1.0000   1.0000   1.0000   1.0000   1.0000   1.0000
     1.0000   1.0000   1.0000   1.0000   1.0000   1.0000   1.0000   1.0000
     0.8493   0.7245  -0.0000  -0.0000  -0.0000

          k = 0.0000 0.8586-0.1354 (  4307 PWs)   bands (ev):

   -49.8302 -26.2401 -25.7846 -25.7079 -10.9884  -9.2656  -8.9446  -0.6325
     0.7409   1.1828   2.3379   2.4344   2.6326   3.1851   3.8949   4.0984
     5.6636   8.8547   9.5850   9.6991  10.9214

     occupation numbers 
     1.0000   1.0000   1.0000   1.0000   1.0000   1.0000   1.0000   1.0000
     1.0000   1.0000   1.0000   1.0000   1.0000   1.0000   1.0000   1.0000
     1.0000  -0.0000  -0.0000  -0.0000  -0.0000

          k =-1.7470-0.6440-0.1354 (  4304 PWs)   bands (ev):

   -49.8285 -26.2109 -25.7801 -25.7405 -11.2098  -9.1627  -8.9876  -0.1308
     1.0345   1.4561   1.8654   2.2200   2.9284   3.1790   3.3442   4.1502
     6.1147   8.7686   9.2283   9.2564  11.1784

     occupation numbers 
     1.0000   1.0000   1.0000   1.0000   1.0000   1.0000   1.0000   1.0000
     1.0000   1.0000   1.0000   1.0000   1.0000   1.0000   1.0000   1.0000
     1.0000  -0.0000  -0.0000  -0.0000  -0.0000

          k =-1.4974-0.4293-0.1354 (  4290 PWs)   bands (ev):

   -49.8244 -26.1401 -25.8188 -25.7689 -11.6862  -9.0814  -8.9111   1.0842
     1.2751   1.6250   1.7948   1.9888   2.6104   3.1232   3.6025   4.0709
     6.9597   8.1442   8.2966   8.8654  10.9717

     occupation numbers 
     1.0000   1.0000   1.0000   1.0000   1.0000   1.0000   1.0000   1.0000
     1.0000   1.0000   1.0000   1.0000   1.0000   1.0000   1.0000   1.0000
    -0.0053  -0.0000  -0.0000  -0.0000  -0.0000

          k =-1.2479-0.2147-0.1354 (  4301 PWs)   bands (ev):

   -49.8205 -26.0688 -25.8965 -25.7576 -12.1037  -9.0391  -8.7872   0.9417
     1.1186   1.7939   2.2960   2.6364   3.0120   3.3679   3.8075   3.9754
     7.0700   7.2189   7.9269   9.2906  10.1794

     occupation numbers 
     1.0000   1.0000   1.0000   1.0000   1.0000   1.0000   1.0000   1.0000
     1.0000   1.0000   1.0000   1.0000   1.0000   1.0000   1.0000   1.0000
    -0.0257  -0.0014  -0.0000  -0.0000  -0.0000

          k =-0.9983 0.0000-0.1354 (  4304 PWs)   bands (ev):

   -49.8189 -26.0391 -25.9285 -25.7529 -12.2637  -8.9795  -8.7801   0.6812
     1.2604   1.9100   2.0709   3.3077   3.4092   3.5156   3.7538   3.9220
     6.6125   6.7400   8.4252   9.6093   9.9559

     occupation numbers 
     1.0000   1.0000   1.0000   1.0000   1.0000   1.0000   1.0000   1.0000
     1.0000   1.0000   1.0000   1.0000   1.0000   1.0000   1.0000   1.0000
     1.0353   0.8580  -0.0000  -0.0000  -0.0000

          k = 0.0000 0.6440-0.0677 (  4330 PWs)   bands (ev):

   -49.8309 -26.2139 -25.7856 -25.7088 -11.2257  -9.3418  -8.8808  -0.1394
     0.8341   1.0143   2.5625   2.5863   2.8038   3.2235   3.9607   4.0283
     5.6363   8.7882   9.2454   9.3617  10.6697

     occupation numbers 
     1.0000   1.0000   1.0000   1.0000   1.0000   1.0000   1.0000   1.0000
     1.0000   1.0000   1.0000   1.0000   1.0000   1.0000   1.0000   1.0000
     1.0000  -0.0000  -0.0000  -0.0000  -0.0000

          k = 0.2496 0.8586-0.0677 (  4307 PWs)   bands (ev):

   -49.8281 -26.2370 -25.7790 -25.7396 -10.9744  -9.1872  -8.9371  -0.6219
     0.9112   1.2226   1.9467   2.1461   2.9896   3.1529   3.3578   4.0378
     6.1075   8.7846   9.5847   9.5974  11.2073

     occupation numbers 
     1.0000   1.0000   1.0000   1.0000   1.0000   1.0000   1.0000   1.0000
     1.0000   1.0000   1.0000   1.0000   1.0000   1.0000   1.0000   1.0000
     1.0000  -0.0000  -0.0000  -0.0000  -0.0000

          k =-1.4974-0.6440-0.0677 (  4305 PWs)   bands (ev):

   -49.8234 -26.2038 -25.8164 -25.7665 -11.1736  -8.9962  -8.9383  -0.1019
     1.2279   1.2951   1.7545   1.7815   2.3718   3.0335   3.5149   3.8701
     6.9730   8.8624   9.0530   9.1745  11.3194

     occupation numbers 
     1.0000   1.0000   1.0000   1.0000   1.0000   1.0000   1.0000   1.0000
     1.0000   1.0000   1.0000   1.0000   1.0000   1.0000   1.0000   1.0000
    -0.0190  -0.0000  -0.0000  -0.0000  -0.0000

          k =-1.2479-0.4293-0.0677 (  4298 PWs)   bands (ev):

   -49.8193 -26.1334 -25.8939 -25.7553 -11.6473  -9.0008  -8.7661   0.9815
     1.1521   1.1955   1.3838   2.1658   2.7660   2.9157   3.7143   3.8456
     7.9309   7.9638   8.1805   9.2979  10.7548

     occupation numbers 
     1.0000   1.0000   1.0000   1.0000   1.0000   1.0000   1.0000   1.0000
     1.0000   1.0000   1.0000   1.0000   1.0000   1.0000   1.0000   1.0000
    -0.0000  -0.0000  -0.0000  -0.0000  -0.0000

          k =-0.9983-0.2147-0.0677 (  4301 PWs)   bands (ev):

   -49.8184 -26.0662 -25.9274 -25.7519 -12.0870  -8.9679  -8.7673   0.7231
     1.2645   1.7160   2.0602   2.6837   2.8956   3.3632   3.8221   3.9298
     7.0297   7.1193   8.4401   9.7482  10.2384

     occupation numbers 
     1.0000   1.0000   1.0000   1.0000   1.0000   1.0000   1.0000   1.0000
     1.0000   1.0000   1.0000   1.0000   1.0000   1.0000   1.0000   1.0000
    -0.0347  -0.0128  -0.0000  -0.0000  -0.0000

          k =-0.7487 0.0000-0.0677 (  4309 PWs)   bands (ev):

   -49.8211 -26.0416 -25.8976 -25.7586 -12.2810  -8.9651  -8.8951   1.0807
     1.5401   1.8253   2.0384   3.2059   3.3560   3.6096   3.6719   3.6855
     6.7989   6.8254   7.8124   9.7155  10.0546

     occupation numbers 
     1.0000   1.0000   1.0000   1.0000   1.0000   1.0000   1.0000   1.0000
     1.0000   1.0000   1.0000   1.0000   1.0000   1.0000   1.0000   1.0000
     0.5987   0.4622  -0.0000  -0.0000  -0.0000

          k = 0.0000 0.4293 0.0000 (  4295 PWs)   bands (ev):

   -49.8318 -26.1496 -25.7880 -25.7108 -11.7426  -9.4283  -8.8417   0.7354
     1.1052   1.3860   2.5269   2.9058   3.3696   3.3985   3.8836   4.0441
     5.5863   8.4353   8.5368   8.7170  10.2317

     occupation numbers 
     1.0000   1.0000   1.0000   1.0000   1.0000   1.0000   1.0000   1.0000
     1.0000   1.0000   1.0000   1.0000   1.0000   1.0000   1.0000   1.0000
     1.0000  -0.0000  -0.0000  -0.0000  -0.0000

          k = 0.2496 0.6440 0.0000 (  4311 PWs)   bands (ev):

   -49.8286 -26.2109 -25.7800 -25.7405 -11.2107  -9.2645  -8.8751  -0.1280
     1.0535   1.0672   2.0965   2.2312   3.1510   3.2045   3.5042   3.9372
     6.0643   8.7652   9.2429   9.2455  11.0224

     occupation numbers 
     1.0000   1.0000   1.0000   1.0000   1.0000   1.0000   1.0000   1.0000
     1.0000   1.0000   1.0000   1.0000   1.0000   1.0000   1.0000   1.0000
     1.0000  -0.0000  -0.0000  -0.0000  -0.0000

          k = 0.4991 0.8586 0.0000 (  4294 PWs)   bands (ev):

   -49.8228 -26.2297 -25.8154 -25.7655 -10.9400  -8.9907  -8.9201  -0.5963
     1.1681   1.2303   1.7487   1.7827   2.1674   2.9747   3.5899   3.7338
     6.9429   8.9754   9.4030   9.5258  11.4663

     occupation numbers 
     1.0000   1.0000   1.0000   1.0000   1.0000   1.0000   1.0000   1.0000
     1.0000   1.0000   1.0000   1.0000   1.0000   1.0000   1.0000   1.0000
     0.0197  -0.0000  -0.0000  -0.0000  -0.0000

          k =-1.2479-0.6440 0.0000 (  4303 PWs)   bands (ev):

   -49.8182 -26.1966 -25.8914 -25.7530 -11.1372  -8.9479  -8.7609  -0.0714
     0.9074   1.1769   1.2609   1.9491   2.5482   2.6124   3.5075   3.7729
     7.9472   8.8532   9.0668   9.3737  11.1455

     occupation numbers 
     1.0000   1.0000   1.0000   1.0000   1.0000   1.0000   1.0000   1.0000
     1.0000   1.0000   1.0000   1.0000   1.0000   1.0000   1.0000   1.0000
    -0.0000  -0.0000  -0.0000  -0.0000  -0.0000

          k =-0.9983-0.4293 0.0000 (  4300 PWs)   bands (ev):

   -49.8172 -26.1306 -25.9247 -25.7496 -11.6313  -8.9395  -8.7361   0.7818
     1.2177   1.2434   1.3663   2.0277   2.6709   2.7303   3.5795   4.0363
     7.8446   8.1199   8.4641   9.7618  10.8920

     occupation numbers 
     1.0000   1.0000   1.0000   1.0000   1.0000   1.0000   1.0000   1.0000
     1.0000   1.0000   1.0000   1.0000   1.0000   1.0000   1.0000   1.0000
    -0.0000  -0.0000  -0.0000  -0.0000  -0.0000

          k =-0.7487-0.2147 0.0000 (  4311 PWs)   bands (ev):

   -49.8206 -26.0688 -25.8965 -25.7576 -12.1041  -8.9337  -8.9021   1.1204
     1.6354   1.6849   2.0120   2.5825   2.7204   3.0979   3.8490   4.0119
     7.0980   7.2323   7.8437   9.7252  10.5073

     occupation numbers 
     1.0000   1.0000   1.0000   1.0000   1.0000   1.0000   1.0000   1.0000
     1.0000   1.0000   1.0000   1.0000   1.0000   1.0000   1.0000   1.0000
    -0.0179  -0.0010  -0.0000  -0.0000  -0.0000

          k =-0.4991 0.0000 0.0000 (  4314 PWs)   bands (ev):

   -49.8263 -26.0477 -25.8222 -25.7723 -12.3224  -9.2135  -8.8605   1.1983
     1.8919   2.1516   2.4063   3.0972   3.2602   3.4299   3.7555   3.9235
     6.7650   6.9645   7.0863   9.1909  10.1427

     occupation numbers 
     1.0000   1.0000   1.0000   1.0000   1.0000   1.0000   1.0000   1.0000
     1.0000   1.0000   1.0000   1.0000   1.0000   1.0000   1.0000   1.0000
     0.7598  -0.0108  -0.0211  -0.0000  -0.0000

          k = 0.9983 0.8586 0.2708 (  4292 PWs)   bands (ev):

   -49.8155 -26.2193 -25.9210 -25.7464 -10.8902  -8.8987  -8.6911  -0.5598
     0.6367   0.8947   1.8109   1.8938   1.9025   2.5959   3.1839   3.9340
     8.4707   9.1879   9.3972   9.7123  11.3852

     occupation numbers 
     1.0000   1.0000   1.0000   1.0000   1.0000   1.0000   1.0000   1.0000
     1.0000   1.0000   1.0000   1.0000   1.0000   1.0000   1.0000   1.0000
    -0.0000  -0.0000  -0.0000  -0.0000  -0.0000

          k = 0.0000 0.0000 0.2708 (  4271 PWs)   bands (ev):

   -49.8333 -26.0562 -25.7915 -25.7138 -12.3801  -9.4298  -8.9386   0.9177
     2.5551   2.5803   2.8107   3.1749   3.4056   3.5776   4.0324   4.1659
     5.5507   7.2169   7.4583   8.8283   9.6897

     occupation numbers 
     1.0000   1.0000   1.0000   1.0000   1.0000   1.0000   1.0000   1.0000
     1.0000   1.0000   1.0000   1.0000   1.0000   1.0000   1.0000   1.0000
     1.0000  -0.0015  -0.0000  -0.0000  -0.0000

          k = 0.0000-0.2147 0.3385 (  4280 PWs)   bands (ev):

   -49.8329 -26.0839 -25.7905 -25.7129 -12.2015  -9.3615  -8.9901   1.0726
     2.1580   2.4262   2.6034   2.7760   3.2522   3.4539   3.9910   4.0861
     5.5700   7.6406   7.7318   8.8941  10.1522

     occupation numbers 
     1.0000   1.0000   1.0000   1.0000   1.0000   1.0000   1.0000   1.0000
     1.0000   1.0000   1.0000   1.0000   1.0000   1.0000   1.0000   1.0000
     1.0000  -0.0000  -0.0000  -0.0000  -0.0000

          k = 0.2496 0.0000 0.3385 (  4294 PWs)   bands (ev):

   -49.8313 -26.0537 -25.7859 -25.7458 -12.3627  -9.3206  -8.9693   1.1479
     2.1124   2.5783   2.8430   2.9613   3.3154   3.6522   3.9097   3.9266
     6.0409   7.0887   7.3978   8.7194   9.9470

     occupation numbers 
     1.0000   1.0000   1.0000   1.0000   1.0000   1.0000   1.0000   1.0000
     1.0000   1.0000   1.0000   1.0000   1.0000   1.0000   1.0000   1.0000
     1.0000  -0.0205  -0.0000  -0.0000  -0.0000

          k =-1.9966-0.4293-0.1354 (  4303 PWs)   bands (ev):

   -49.8319 -26.1497 -25.7881 -25.7108 -11.7409  -9.2609  -9.0364   0.9820
     1.2743   1.6904   2.3298   2.6480   2.8934   3.1218   3.8405   4.3103
     5.6147   8.4239   8.5342   8.9298  10.7443

     occupation numbers 
     1.0000   1.0000   1.0000   1.0000   1.0000   1.0000   1.0000   1.0000
     1.0000   1.0000   1.0000   1.0000   1.0000   1.0000   1.0000   1.0000
     1.0000  -0.0000  -0.0000  -0.0000  -0.0000

          k =-1.7470-0.2147-0.1354 (  4289 PWs)   bands (ev):

   -49.8308 -26.0813 -25.7849 -25.7449 -12.1844  -9.2558  -9.0139   1.2888
     1.9251   2.3509   2.4504   2.7763   3.0856   3.3921   3.6975   4.1390
     6.0710   7.5067   7.6699   8.7579  10.3628

     occupation numbers 
     1.0000   1.0000   1.0000   1.0000   1.0000   1.0000   1.0000   1.0000
     1.0000   1.0000   1.0000   1.0000   1.0000   1.0000   1.0000   1.0000
     1.0000  -0.0000  -0.0000  -0.0000  -0.0000

          k =-1.4974 0.0000-0.1354 (  4292 PWs)   bands (ev):

   -49.8261 -26.0477 -25.8222 -25.7723 -12.3215  -9.1639  -8.9117   1.1794
     1.5888   2.0933   2.6137   2.9421   3.5755   3.6322   3.7946   3.8938
     6.8466   6.9384   7.1176   8.7580   9.9419

     occupation numbers 
     1.0000   1.0000   1.0000   1.0000   1.0000   1.0000   1.0000   1.0000
     1.0000   1.0000   1.0000   1.0000   1.0000   1.0000   1.0000   1.0000
     0.3549   0.0280  -0.0132  -0.0000  -0.0000

          k = 0.0000 1.0733-0.0677 (  4305 PWs)   bands (ev):

   -49.8307 -26.2139 -25.7856 -25.7087 -11.2244  -9.2102  -9.0292  -0.1430
     1.0095   1.2569   2.3750   2.5599   2.6600   2.8996   3.8344   4.2944
     5.6519   8.9133   9.2218   9.3600  10.9507

     occupation numbers 
     1.0000   1.0000   1.0000   1.0000   1.0000   1.0000   1.0000   1.0000
     1.0000   1.0000   1.0000   1.0000   1.0000   1.0000   1.0000   1.0000
     1.0000  -0.0000  -0.0000  -0.0000  -0.0000

          k =-1.7470-0.4293-0.0677 (  4292 PWs)   bands (ev):

   -49.8296 -26.1468 -25.7825 -25.7427 -11.7247  -9.1568  -9.0552   1.0311
     1.4400   1.6990   1.9096   2.4788   2.9702   3.2269   3.3338   4.3026
     6.1075   8.3582   8.4115   8.8234  10.9439

     occupation numbers 
     1.0000   1.0000   1.0000   1.0000   1.0000   1.0000   1.0000   1.0000
     1.0000   1.0000   1.0000   1.0000   1.0000   1.0000   1.0000   1.0000
     1.0000  -0.0000  -0.0000  -0.0000  -0.0000

          k =-1.4974-0.2147-0.0677 (  4294 PWs)   bands (ev):

   -49.8256 -26.0751 -25.8212 -25.7713 -12.1440  -9.1332  -8.9183   1.2180
     1.5295   1.9771   2.4437   2.5424   3.1168   3.3108   3.7200   4.1292
     6.9719   7.2437   7.4590   8.7411  10.3184

     occupation numbers 
     1.0000   1.0000   1.0000   1.0000   1.0000   1.0000   1.0000   1.0000
     1.0000   1.0000   1.0000   1.0000   1.0000   1.0000   1.0000   1.0000
    -0.0180  -0.0007  -0.0000  -0.0000  -0.0000

          k =-1.2479 0.0000-0.0677 (  4289 PWs)   bands (ev):

   -49.8209 -26.0416 -25.8975 -25.7586 -12.2805  -9.0637  -8.7854   0.8991
     1.0391   2.0161   2.3849   3.1015   3.5635   3.6461   3.8267   3.9029
     6.7093   6.7601   7.9338   9.2125   9.7362

     occupation numbers 
     1.0000   1.0000   1.0000   1.0000   1.0000   1.0000   1.0000   1.0000
     1.0000   1.0000   1.0000   1.0000   1.0000   1.0000   1.0000   1.0000
     0.9475   0.7808  -0.0000  -0.0000  -0.0000

          k = 0.0000 0.8586 0.0000 (  4303 PWs)   bands (ev):

   -49.8302 -26.2400 -25.7846 -25.7078 -10.9884  -9.2656  -8.9447  -0.6325
     0.8428   1.0106   2.4345   2.6324   2.7296   2.7876   3.8949   4.1806
     5.6590   8.8546   9.5950   9.6990  10.8812

     occupation numbers 
     1.0000   1.0000   1.0000   1.0000   1.0000   1.0000   1.0000   1.0000
     1.0000   1.0000   1.0000   1.0000   1.0000   1.0000   1.0000   1.0000
     1.0000  -0.0000  -0.0000  -0.0000  -0.0000

          k = 0.2496 1.0733 0.0000 (  4302 PWs)   bands (ev):

   -49.8285 -26.2109 -25.7800 -25.7405 -11.2096  -9.1259  -9.0263  -0.1313
     1.1475   1.3077   2.0033   2.1442   3.0163   3.1080   3.2360   4.2043
     6.1214   8.7625   9.2445   9.2536  11.1980

     occupation numbers 
     1.0000   1.0000   1.0000   1.0000   1.0000   1.0000   1.0000   1.0000
     1.0000   1.0000   1.0000   1.0000   1.0000   1.0000   1.0000   1.0000
     1.0000  -0.0000  -0.0000  -0.0000  -0.0000

          k =-1.4974-0.4293 0.0000 (  4295 PWs)   bands (ev):

   -49.8245 -26.1401 -25.8188 -25.7689 -11.6860  -9.0691  -8.9236   1.0824
     1.2654   1.5919   1.7574   2.0214   2.7058   3.1188   3.5659   4.0748
     6.9877   8.1600   8.2857   8.8116  10.9295

     occupation numbers 
     1.0000   1.0000   1.0000   1.0000   1.0000   1.0000   1.0000   1.0000
     1.0000   1.0000   1.0000   1.0000   1.0000   1.0000   1.0000   1.0000
    -0.0287  -0.0000  -0.0000  -0.0000  -0.0000

          k =-1.2479-0.2147 0.0000 (  4284 PWs)   bands (ev):

   -49.8204 -26.0688 -25.8965 -25.7576 -12.1036  -9.0485  -8.7761   0.9293
     1.0545   1.7831   2.3468   2.6351   3.0592   3.4140   3.8268   3.9416
     7.0640   7.2174   7.9503   9.2181  10.1152

     occupation numbers 
     1.0000   1.0000   1.0000   1.0000   1.0000   1.0000   1.0000   1.0000
     1.0000   1.0000   1.0000   1.0000   1.0000   1.0000   1.0000   1.0000
    -0.0274  -0.0015  -0.0000  -0.0000  -0.0000

          k =-0.9983 0.0000 0.0000 (  4312 PWs)   bands (ev):

   -49.8189 -26.0391 -25.9285 -25.7529 -12.2637  -8.9795  -8.7801   0.7015
     1.2093   1.9217   2.1012   3.3075   3.4097   3.5351   3.7195   3.9216
     6.6198   6.7326   8.4285   9.7672   9.7896

     occupation numbers 
     1.0000   1.0000   1.0000   1.0000   1.0000   1.0000   1.0000   1.0000
     1.0000   1.0000   1.0000   1.0000   1.0000   1.0000   1.0000   1.0000
     1.0354   0.8829  -0.0000  -0.0000  -0.0000

          k = 0.0000 0.0000 0.4061 (  4271 PWs)   bands (ev):

   -49.8333 -26.0562 -25.7915 -25.7138 -12.3793  -9.3307  -9.0525   1.2358
     2.3127   2.6335   2.7887   3.3073   3.3481   3.4010   3.8803   4.0901
     5.5595   7.2172   7.5281   8.9517   9.8714

     occupation numbers 
     1.0000   1.0000   1.0000   1.0000   1.0000   1.0000   1.0000   1.0000
     1.0000   1.0000   1.0000   1.0000   1.0000   1.0000   1.0000   1.0000
     1.0000  -0.0015  -0.0000  -0.0000  -0.0000

          k =-1.9966-0.2147-0.0677 (  4275 PWs)   bands (ev):

   -49.8329 -26.0839 -25.7905 -25.7129 -12.2009  -9.2539  -9.1084   1.3493
     2.1538   2.4067   2.4886   2.6643   3.2223   3.3869   3.9222   4.0882
     5.5782   7.6404   7.7669   8.9816  10.3106

     occupation numbers 
     1.0000   1.0000   1.0000   1.0000   1.0000   1.0000   1.0000   1.0000
     1.0000   1.0000   1.0000   1.0000   1.0000   1.0000   1.0000   1.0000
     1.0000  -0.0000  -0.0000  -0.0000  -0.0000

          k =-1.7470 0.0000-0.0677 (  4279 PWs)   bands (ev):

   -49.8312 -26.0537 -25.7859 -25.7458 -12.3622  -9.2389  -9.0588   1.4431
     1.8093   2.6753   2.8217   2.8635   3.4424   3.6524   3.8021   3.8418
     6.0765   7.0802   7.4322   8.7562   9.9726

     occupation numbers 
     1.0000   1.0000   1.0000   1.0000   1.0000   1.0000   1.0000   1.0000
     1.0000   1.0000   1.0000   1.0000   1.0000   1.0000   1.0000   1.0000
     1.0000  -0.0228  -0.0000  -0.0000  -0.0000

          k = 0.0000 1.2879 0.0000 (  4301 PWs)   bands (ev):

   -49.8318 -26.1496 -25.7881 -25.7108 -11.7406  -9.1611  -9.1408   1.0019
     1.4281   1.6433   2.2657   2.6742   2.8889   2.9768   3.8032   4.3644
     5.6189   8.4311   8.5341   8.9658  10.8214

     occupation numbers 
     1.0000   1.0000   1.0000   1.0000   1.0000   1.0000   1.0000   1.0000
     1.0000   1.0000   1.0000   1.0000   1.0000   1.0000   1.0000   1.0000
     1.0000  -0.0000  -0.0000  -0.0000  -0.0000

          k =-1.7470-0.2147 0.0000 (  4267 PWs)   bands (ev):

   -49.8307 -26.0813 -25.7849 -25.7449 -12.1841  -9.1928  -9.0808   1.5057
     1.7149   2.4011   2.4214   2.7830   3.0769   3.3563   3.6582   4.1447
     6.0909   7.5049   7.6766   8.7798  10.3856

     occupation numbers 
     1.0000   1.0000   1.0000   1.0000   1.0000   1.0000   1.0000   1.0000
     1.0000   1.0000   1.0000   1.0000   1.0000   1.0000   1.0000   1.0000
     1.0000  -0.0000  -0.0000  -0.0000  -0.0000

          k =-1.4974 0.0000 0.0000 (  4292 PWs)   bands (ev):

   -49.8261 -26.0477 -25.8222 -25.7723 -12.3213  -9.1532  -8.9227   1.2014
     1.4992   2.1193   2.6301   2.9271   3.6749   3.6846   3.7058   3.9038
     6.8303   6.9766   7.1190   8.6903   9.8977

     occupation numbers 
     1.0000   1.0000   1.0000   1.0000   1.0000   1.0000   1.0000   1.0000
     1.0000   1.0000   1.0000   1.0000   1.0000   1.0000   1.0000   1.0000
     0.4368  -0.0218  -0.0128  -0.0000  -0.0000

          k =-1.9966-1.7173-0.5415 (  4270 PWs)   bands (ev):

   -49.8333 -26.0562 -25.7915 -25.7138 -12.3790  -9.2445  -9.1448   1.4576
     2.0957   2.6723   2.7815   3.3167   3.3493   3.3830   3.7951   4.0607
     5.5600   7.2173   7.5567   9.0031   9.9376

     occupation numbers 
     1.0000   1.0000   1.0000   1.0000   1.0000   1.0000   1.0000   1.0000
     1.0000   1.0000   1.0000   1.0000   1.0000   1.0000   1.0000   1.0000
     1.0000  -0.0015  -0.0000  -0.0000  -0.0000

     the Fermi energy is     6.8181 ev

!    total energy              =    -534.96328718 Ry

     total all-electron energy =     -9636.853530 Ry
     estimated scf accuracy    <          5.2E-11 Ry
     smearing contrib. (-TS)   =      -0.00022909 Ry
     internal energy E=F+TS    =    -534.96305809 Ry

     The total energy is F=E-TS. E is the sum of the following terms:
     one-electron contribution =     -93.94808361 Ry
     hartree contribution      =      61.22160267 Ry
     xc contribution           =     -39.53497053 Ry
     ewald contribution        =    -135.48921389 Ry
     one-center paw contrib.   =    -327.21239274 Ry
      -> PAW hartree energy AE =      29.03618344 Ry
      -> PAW hartree energy PS =     -29.00611476 Ry
      -> PAW xc energy AE      =     -17.03045536 Ry
      -> PAW xc energy PS      =       7.40619752 Ry
      -> total E_H with PAW    =      61.25167136 Ry
      -> total E_XC with PAW   =     -49.15922836 Ry

     convergence has been achieved in  12 iterations

     Forces acting on atoms (cartesian axes, Ry/au):

     atom    1 type  1   force =     0.00000000    0.00000000    0.00000000
     atom    2 type  2   force =     0.00000000    0.00000000    0.03633853
     atom    3 type  2   force =     0.00000000    0.00000000   -0.03633853
     atom    4 type  3   force =     0.00000000    0.00000000    0.00000000
     The non-local contrib.  to forces
     atom    1 type  1   force =     0.00000000    0.00000000    0.00000000
     atom    2 type  2   force =     0.00000000    0.00000000    0.08691963
     atom    3 type  2   force =     0.00000000    0.00000000   -0.08691963
     atom    4 type  3   force =     0.00000000    0.00000000    0.00000000
     The ionic contribution  to forces
     atom    1 type  1   force =    -0.00000000   -0.00000000    0.00000000
     atom    2 type  2   force =     0.00000001    0.00000000  -10.07462875
     atom    3 type  2   force =    -0.00000001   -0.00000000   10.07462875
     atom    4 type  3   force =    -0.00000000   -0.00000000    0.00000000
     The local contribution  to forces
     atom    1 type  1   force =    -0.00000000    0.00000000   -0.00000000
     atom    2 type  2   force =     0.00000002   -0.00000003   10.02285701
     atom    3 type  2   force =    -0.00000002    0.00000003  -10.02285701
     atom    4 type  3   force =    -0.00000000   -0.00000000   -0.00000000
     The core correction contribution to forces
     atom    1 type  1   force =    -0.00000000    0.00000000   -0.00000000
     atom    2 type  2   force =    -0.00000000    0.00000000    0.00118138
     atom    3 type  2   force =     0.00000000   -0.00000000   -0.00118138
     atom    4 type  3   force =    -0.00000000   -0.00000000   -0.00000000
     The Hubbard contrib.    to forces
     atom    1 type  1   force =     0.00000000    0.00000000    0.00000000
     atom    2 type  2   force =     0.00000000    0.00000000    0.00000000
     atom    3 type  2   force =     0.00000000    0.00000000    0.00000000
     atom    4 type  3   force =     0.00000000    0.00000000    0.00000000
     The SCF correction term to forces
     atom    1 type  1   force =     0.00000000   -0.00000000    0.00000000
     atom    2 type  2   force =    -0.00000000    0.00000000    0.00000927
     atom    3 type  2   force =     0.00000000   -0.00000000   -0.00000927
     atom    4 type  3   force =     0.00000000    0.00000000    0.00000000

     Total force =     0.051390     Total SCF correction =     0.000013


     Computing stress (Cartesian axis) and pressure

          total   stress  (Ry/bohr**3)                   (kbar)     P=      -41.89
  -0.00028119   0.00000000   0.00000000          -41.36        0.00        0.00
   0.00000000  -0.00028250  -0.00000000            0.00      -41.56       -0.00
   0.00000000  -0.00000000  -0.00029067            0.00       -0.00      -42.76

     kinetic stress (kbar)  14745.18     -0.00     -0.00
                               -0.00  14842.88      0.00
                               -0.00      0.00  14758.82

     local   stress (kbar) -18877.90      0.00      0.00
                                0.00 -24243.55      0.00
                                0.00      0.00   4124.28

     nonloc. stress (kbar)   8006.01      0.00      0.00
                                0.00   7926.92      0.00
                                0.00      0.00   8000.37

     hartree stress (kbar)   8370.56     -0.00     -0.00
                               -0.00  10123.92     -0.00
                               -0.00     -0.00  -2058.09

     exc-cor stress (kbar)  -1130.93     -0.00     -0.00
                               -0.00  -1121.06     -0.00
                               -0.00     -0.00  -1130.42

     corecor stress (kbar)  -2029.16      0.00      0.00
                                0.00  -2029.21      0.00
                                0.00      0.00  -2029.02

     ewald   stress (kbar)  -9125.13     -0.00     -0.00
                               -0.00  -5541.44     -0.00
                               -0.00     -0.00 -21708.70

     hubbard stress (kbar)      0.00      0.00      0.00
                                0.00      0.00      0.00
                                0.00      0.00      0.00

     DFT-D   stress (kbar)      0.00      0.00      0.00
                                0.00      0.00      0.00
                                0.00      0.00      0.00

     XDM     stress (kbar)      0.00      0.00      0.00
                                0.00      0.00      0.00
                                0.00      0.00      0.00

     dft-nl  stress (kbar)      0.00      0.00      0.00
                                0.00      0.00      0.00
                                0.00      0.00      0.00

     TS-vdW  stress (kbar)      0.00      0.00      0.00
                                0.00      0.00      0.00
                                0.00      0.00      0.00



     Writing output data file /zfs_data/gutierre/Scratch/Cl2NbO/convergence/cutoff/8x8x8/60/tmp/Cl2NbO.save/
 
     init_run     :      1.30s CPU      1.37s WALL (       1 calls)
     electrons    :     28.93s CPU     30.09s WALL (       1 calls)
     forces       :      0.30s CPU      0.30s WALL (       1 calls)
     stress       :      0.66s CPU      0.66s WALL (       1 calls)

     Called by init_run:
     wfcinit      :      0.86s CPU      0.90s WALL (       1 calls)
     wfcinit:atom :      0.01s CPU      0.01s WALL (      95 calls)
     wfcinit:wfcr :      0.83s CPU      0.87s WALL (      95 calls)
     potinit      :      0.17s CPU      0.18s WALL (       1 calls)
     hinit0       :      0.19s CPU      0.20s WALL (       1 calls)

     Called by electrons:
     c_bands      :     22.66s CPU     23.61s WALL (      12 calls)
     sum_band     :      4.91s CPU      5.08s WALL (      12 calls)
     v_of_rho     :      0.36s CPU      0.38s WALL (      13 calls)
     v_h          :      0.03s CPU      0.03s WALL (      13 calls)
     v_xc         :      0.38s CPU      0.41s WALL (      15 calls)
     newd         :      0.33s CPU      0.33s WALL (      13 calls)
     PAW_pot      :      0.67s CPU      0.69s WALL (      13 calls)
     mix_rho      :      0.05s CPU      0.05s WALL (      12 calls)

     Called by c_bands:
     init_us_2    :      0.21s CPU      0.22s WALL (    2565 calls)
     cegterg      :     22.07s CPU     22.98s WALL (    1140 calls)

     Called by sum_band:
     sum_band:wei :      0.04s CPU      0.05s WALL (      12 calls)
     sum_band:loo :      4.50s CPU      4.64s WALL (      12 calls)
     sum_band:buf :      0.02s CPU      0.02s WALL (    1140 calls)
     sum_band:ini :      0.09s CPU      0.09s WALL (    1140 calls)
     sum_band:cal :      0.11s CPU      0.11s WALL (    1140 calls)
     sum_band:bec :      0.03s CPU      0.03s WALL (    1140 calls)
     addusdens    :      0.32s CPU      0.34s WALL (      12 calls)
     addusd:skk   :      0.00s CPU      0.00s WALL (      36 calls)
     addusd:dgemm :      0.08s CPU      0.09s WALL (      36 calls)
     addusd:qvan2 :      0.22s CPU      0.23s WALL (      36 calls)

     Called by *egterg:
     cdiaghg      :      2.31s CPU      2.49s WALL (    4145 calls)
     cegterg:over :      0.31s CPU      0.32s WALL (    3005 calls)
     cegterg:upda :      0.09s CPU      0.09s WALL (    3005 calls)
     cegterg:last :      0.13s CPU      0.14s WALL (    2196 calls)
     h_psi        :     19.47s CPU     20.20s WALL (    4240 calls)
     s_psi        :      0.12s CPU      0.13s WALL (    4240 calls)
     g_psi        :      0.02s CPU      0.02s WALL (    3005 calls)

     Called by h_psi:
     h_psi:calbec :      0.35s CPU      0.36s WALL (    4240 calls)
     vloc_psi     :     18.88s CPU     19.59s WALL (    4240 calls)
     add_vuspsi   :      0.17s CPU      0.18s WALL (    4240 calls)

     General routines
     calbec       :      0.47s CPU      0.49s WALL (    5855 calls)
     fft          :      0.25s CPU      0.26s WALL (     192 calls)
     ffts         :      0.01s CPU      0.01s WALL (      25 calls)
     fftw         :     21.15s CPU     21.93s WALL (  145358 calls)
     interpolate  :      0.02s CPU      0.02s WALL (      13 calls)
 
     Parallel routines
     fft_scatt_xy :      3.51s CPU      3.63s WALL (  145575 calls)
     fft_scatt_yz :     12.33s CPU     12.77s WALL (  145575 calls)

     PAW routines
     PAW_pot      :      0.67s CPU      0.69s WALL (      13 calls)
     PAW_symme    :      0.01s CPU      0.01s WALL (      25 calls)
 
     PWSCF        :     31.98s CPU     33.73s WALL

 
   This run was terminated on:  15:54:40  18May2022            

=------------------------------------------------------------------------------=
   JOB DONE.
=------------------------------------------------------------------------------=
