MPI startup(): Warning: I_MPI_PMI_LIBRARY will be ignored since the hydra process manager was found
MPI startup(): Warning: I_MPI_PMI_LIBRARY will be ignored since the hydra process manager was found
MPI startup(): Warning: I_MPI_PMI_LIBRARY will be ignored since the hydra process manager was found
MPI startup(): Warning: I_MPI_PMI_LIBRARY will be ignored since the hydra process manager was found
MPI startup(): Warning: I_MPI_PMI_LIBRARY will be ignored since the hydra process manager was found
MPI startup(): Warning: I_MPI_PMI_LIBRARY will be ignored since the hydra process manager was found
MPI startup(): Warning: I_MPI_PMI_LIBRARY will be ignored since the hydra process manager was found
MPI startup(): Warning: I_MPI_PMI_LIBRARY will be ignored since the hydra process manager was found
MPI startup(): Warning: I_MPI_PMI_LIBRARY will be ignored since the hydra process manager was found
MPI startup(): Warning: I_MPI_PMI_LIBRARY will be ignored since the hydra process manager was found
MPI startup(): Warning: I_MPI_PMI_LIBRARY will be ignored since the hydra process manager was found
MPI startup(): Warning: I_MPI_PMI_LIBRARY will be ignored since the hydra process manager was found
MPI startup(): Warning: I_MPI_PMI_LIBRARY will be ignored since the hydra process manager was found
MPI startup(): Warning: I_MPI_PMI_LIBRARY will be ignored since the hydra process manager was found
MPI startup(): Warning: I_MPI_PMI_LIBRARY will be ignored since the hydra process manager was found
MPI startup(): Warning: I_MPI_PMI_LIBRARY will be ignored since the hydra process manager was found
MPI startup(): Warning: I_MPI_PMI_LIBRARY will be ignored since the hydra process manager was found
MPI startup(): Warning: I_MPI_PMI_LIBRARY will be ignored since the hydra process manager was found
MPI startup(): Warning: I_MPI_PMI_LIBRARY will be ignored since the hydra process manager was found
MPI startup(): Warning: I_MPI_PMI_LIBRARY will be ignored since the hydra process manager was found
MPI startup(): Warning: I_MPI_PMI_LIBRARY will be ignored since the hydra process manager was found
MPI startup(): Warning: I_MPI_PMI_LIBRARY will be ignored since the hydra process manager was found
MPI startup(): Warning: I_MPI_PMI_LIBRARY will be ignored since the hydra process manager was found
MPI startup(): Warning: I_MPI_PMI_LIBRARY will be ignored since the hydra process manager was found

     Program PWSCF v.6.7MaX starts on 30Jul2021 at 18:57:35 

     This program is part of the open-source Quantum ESPRESSO suite
     for quantum simulation of materials; please cite
         "P. Giannozzi et al., J. Phys.:Condens. Matter 21 395502 (2009);
         "P. Giannozzi et al., J. Phys.:Condens. Matter 29 465901 (2017);
          URL http://www.quantum-espresso.org", 
     in publications or presentations arising from this work. More details at
     http://www.quantum-espresso.org/quote

     Parallel version (MPI), running on    24 processors

     MPI processes distributed on     1 nodes
     R & G space division:  proc/nbgrp/npool/nimage =      24
     Waiting for input...
     Reading input from standard input

     Current dimensions of program PWSCF are:
     Max number of different atomic species (ntypx) = 10
     Max number of k-points (npk) =  40000
     Max angular momentum in pseudopotentials (lmaxx) =  3
     file Cr.rel-pbe-spn-kjpaw_psl.1.0.0.UPF: wavefunction(s)  3S 3P 3P 3D 3D renormalized
     file Si.rel-pbe-n-kjpaw_psl.1.0.0.UPF: wavefunction(s)  3S 3P 3P renormalized

     Subspace diagonalization in iterative solution of the eigenvalue problem:
     a serial algorithm will be used

     Message from routine setup:
     using ibrav=0 with symmetry is DISCOURAGED, use correct ibrav instead
 
     Parallelization info
     --------------------
     sticks:   dense  smooth     PW     G-vecs:    dense   smooth      PW
     Min         152      61     17                 6920     1753     273
     Max         153      62     18                 6923     1756     278
     Sum        3657    1465    421               166101    42115    6619
 


     bravais-lattice index     =            0
     lattice parameter (alat)  =       8.7475  a.u.
     unit-cell volume          =     669.3575 (a.u.)^3
     number of atoms/cell      =            8
     number of atomic types    =            2
     number of electrons       =        72.00
     number of Kohn-Sham states=           86
     kinetic-energy cutoff     =      60.0000  Ry
     charge density cutoff     =     600.0000  Ry
     scf convergence threshold =      1.0E-06
     mixing beta               =       0.7000
     number of iterations used =            8  plain     mixing
     Exchange-correlation= SLA  PW   PBX  PBC
                           (   1   4   3   4   0   0   0)
     Non magnetic calculation with spin-orbit


     celldm(1)=   8.747542  celldm(2)=   0.000000  celldm(3)=   0.000000
     celldm(4)=   0.000000  celldm(5)=   0.000000  celldm(6)=   0.000000

     crystal axes: (cart. coord. in units of alat)
               a(1) = (   1.000000   0.000000   0.000000 )  
               a(2) = (   0.000000   1.000000   0.000000 )  
               a(3) = (   0.000000   0.000000   1.000000 )  

     reciprocal axes: (cart. coord. in units 2 pi/alat)
               b(1) = (  1.000000  0.000000  0.000000 )  
               b(2) = (  0.000000  1.000000  0.000000 )  
               b(3) = (  0.000000  0.000000  1.000000 )  


     PseudoPot. # 1 for Cr read from file:
     ../../../../pseudo/Cr.rel-pbe-spn-kjpaw_psl.1.0.0.UPF
     MD5 check sum: 1e24e2b5251376a8b945118fca0c7981
     Pseudo is Projector augmented-wave + core cor, Zval = 14.0
     Generated using &quot;atomic&quot; code by A. Dal Corso  v.6.3
     Shape of augmentation charge: PSQ
     Using radial grid of 1183 points, 10 beta functions with: 
                l(1) =   0
                l(2) =   0
                l(3) =   1
                l(4) =   1
                l(5) =   1
                l(6) =   1
                l(7) =   2
                l(8) =   2
                l(9) =   2
               l(10) =   2
     Q(r) pseudized with 0 coefficients 


     PseudoPot. # 2 for Si read from file:
     ../../../../pseudo/Si.rel-pbe-n-kjpaw_psl.1.0.0.UPF
     MD5 check sum: d74f6caf6830ea4c2076867160cab1b0
     Pseudo is Projector augmented-wave + core cor, Zval =  4.0
     Generated using &quot;atomic&quot; code by A. Dal Corso  v.6.3
     Shape of augmentation charge: PSQ
     Using radial grid of 1141 points, 10 beta functions with: 
                l(1) =   0
                l(2) =   0
                l(3) =   1
                l(4) =   1
                l(5) =   1
                l(6) =   1
                l(7) =   2
                l(8) =   2
                l(9) =   2
               l(10) =   2
     Q(r) pseudized with 0 coefficients 


     atomic species   valence    mass     pseudopotential
        Cr            14.00    51.99600     Cr( 1.00)
        Si             4.00    28.08500     Si( 1.00)

     12 Sym. Ops. (no inversion) found ( 9 have fractional translation)


                                    s                        frac. trans.

      isym =  1     identity                                     

 cryst.   s( 1) = (     1          0          0      )
                  (     0          1          0      )
                  (     0          0          1      )

 cart.    s( 1) = (  1.0000000  0.0000000  0.0000000 )
                  (  0.0000000  1.0000000  0.0000000 )
                  (  0.0000000  0.0000000  1.0000000 )


      isym =  2     180 deg rotation - cart. axis [0,0,1]        

 cryst.   s( 2) = (    -1          0          0      )    f =(  0.5000000 )
                  (     0         -1          0      )       (  0.0000000 )
                  (     0          0          1      )       ( -0.5000000 )

 cart.    s( 2) = ( -1.0000000  0.0000000  0.0000000 )    f =(  0.5000000 )
                  (  0.0000000 -1.0000000  0.0000000 )       (  0.0000000 )
                  (  0.0000000  0.0000000  1.0000000 )       ( -0.5000000 )


      isym =  3     180 deg rotation - cart. axis [0,1,0]        

 cryst.   s( 3) = (    -1          0          0      )    f =(  0.0000000 )
                  (     0          1          0      )       ( -0.5000000 )
                  (     0          0         -1      )       (  0.5000000 )

 cart.    s( 3) = ( -1.0000000  0.0000000  0.0000000 )    f =(  0.0000000 )
                  (  0.0000000  1.0000000  0.0000000 )       ( -0.5000000 )
                  (  0.0000000  0.0000000 -1.0000000 )       (  0.5000000 )


      isym =  4     180 deg rotation - cart. axis [1,0,0]        

 cryst.   s( 4) = (     1          0          0      )    f =(  0.5000000 )
                  (     0         -1          0      )       (  0.5000000 )
                  (     0          0         -1      )       (  0.0000000 )

 cart.    s( 4) = (  1.0000000  0.0000000  0.0000000 )    f =(  0.5000000 )
                  (  0.0000000 -1.0000000  0.0000000 )       (  0.5000000 )
                  (  0.0000000  0.0000000 -1.0000000 )       (  0.0000000 )


      isym =  5     120 deg rotation - cart. axis [-1,-1,-1]     

 cryst.   s( 5) = (     0          0          1      )
                  (     1          0          0      )
                  (     0          1          0      )

 cart.    s( 5) = (  0.0000000  1.0000000  0.0000000 )
                  (  0.0000000  0.0000000  1.0000000 )
                  (  1.0000000  0.0000000  0.0000000 )


      isym =  6     120 deg rotation - cart. axis [-1,1,1]       

 cryst.   s( 6) = (     0          0         -1      )    f =(  0.0000000 )
                  (    -1          0          0      )       ( -0.5000000 )
                  (     0          1          0      )       (  0.5000000 )

 cart.    s( 6) = (  0.0000000 -1.0000000  0.0000000 )    f =(  0.0000000 )
                  (  0.0000000  0.0000000  1.0000000 )       ( -0.5000000 )
                  ( -1.0000000  0.0000000  0.0000000 )       (  0.5000000 )


      isym =  7     120 deg rotation - cart. axis [1,1,-1]       

 cryst.   s( 7) = (     0          0         -1      )    f =(  0.5000000 )
                  (     1          0          0      )       (  0.5000000 )
                  (     0         -1          0      )       (  0.0000000 )

 cart.    s( 7) = (  0.0000000  1.0000000  0.0000000 )    f =(  0.5000000 )
                  (  0.0000000  0.0000000 -1.0000000 )       (  0.5000000 )
                  ( -1.0000000  0.0000000  0.0000000 )       (  0.0000000 )


      isym =  8     120 deg rotation - cart. axis [1,-1,1]       

 cryst.   s( 8) = (     0          0          1      )    f =(  0.5000000 )
                  (    -1          0          0      )       (  0.0000000 )
                  (     0         -1          0      )       ( -0.5000000 )

 cart.    s( 8) = (  0.0000000 -1.0000000  0.0000000 )    f =(  0.5000000 )
                  (  0.0000000  0.0000000 -1.0000000 )       (  0.0000000 )
                  (  1.0000000  0.0000000  0.0000000 )       ( -0.5000000 )


      isym =  9     120 deg rotation - cart. axis [1,1,1]        

 cryst.   s( 9) = (     0          1          0      )
                  (     0          0          1      )
                  (     1          0          0      )

 cart.    s( 9) = (  0.0000000  0.0000000  1.0000000 )
                  (  1.0000000  0.0000000  0.0000000 )
                  (  0.0000000  1.0000000  0.0000000 )


      isym = 10     120 deg rotation - cart. axis [-1,1,-1]      

 cryst.   s(10) = (     0         -1          0      )    f =(  0.5000000 )
                  (     0          0         -1      )       (  0.5000000 )
                  (     1          0          0      )       (  0.0000000 )

 cart.    s(10) = (  0.0000000  0.0000000  1.0000000 )    f =(  0.5000000 )
                  ( -1.0000000  0.0000000  0.0000000 )       (  0.5000000 )
                  (  0.0000000 -1.0000000  0.0000000 )       (  0.0000000 )


      isym = 11     120 deg rotation - cart. axis [1,-1,-1]      

 cryst.   s(11) = (     0         -1          0      )    f =(  0.5000000 )
                  (     0          0          1      )       (  0.0000000 )
                  (    -1          0          0      )       ( -0.5000000 )

 cart.    s(11) = (  0.0000000  0.0000000 -1.0000000 )    f =(  0.5000000 )
                  ( -1.0000000  0.0000000  0.0000000 )       (  0.0000000 )
                  (  0.0000000  1.0000000  0.0000000 )       ( -0.5000000 )


      isym = 12     120 deg rotation - cart. axis [-1,-1,1]      

 cryst.   s(12) = (     0          1          0      )    f =(  0.0000000 )
                  (     0          0         -1      )       ( -0.5000000 )
                  (    -1          0          0      )       (  0.5000000 )

 cart.    s(12) = (  0.0000000  0.0000000 -1.0000000 )    f =(  0.0000000 )
                  (  1.0000000  0.0000000  0.0000000 )       ( -0.5000000 )
                  (  0.0000000 -1.0000000  0.0000000 )       (  0.5000000 )


   Cartesian axes

     site n.     atom                  positions (alat units)
         1           Cr  tau(   1) = (   0.8640000   0.3640000   0.1360000  )
         2           Cr  tau(   2) = (   0.3640000   0.1360000   0.8640000  )
         3           Cr  tau(   3) = (   0.1360000   0.8640000   0.3640000  )
         4           Cr  tau(   4) = (   0.6360000   0.6360000   0.6360000  )
         5           Si  tau(   5) = (   0.1540000   0.6540000   0.8460000  )
         6           Si  tau(   6) = (   0.6540000   0.8460000   0.1540000  )
         7           Si  tau(   7) = (   0.8460000   0.1540000   0.6540000  )
         8           Si  tau(   8) = (   0.3460000   0.3460000   0.3460000  )

   Crystallographic axes

     site n.     atom                  positions (cryst. coord.)
         1           Cr  tau(   1) = (  0.8640000  0.3640000  0.1360000  )
         2           Cr  tau(   2) = (  0.3640000  0.1360000  0.8640000  )
         3           Cr  tau(   3) = (  0.1360000  0.8640000  0.3640000  )
         4           Cr  tau(   4) = (  0.6360000  0.6360000  0.6360000  )
         5           Si  tau(   5) = (  0.1540000  0.6540000  0.8460000  )
         6           Si  tau(   6) = (  0.6540000  0.8460000  0.1540000  )
         7           Si  tau(   7) = (  0.8460000  0.1540000  0.6540000  )
         8           Si  tau(   8) = (  0.3460000  0.3460000  0.3460000  )

     number of k points=    45  Methfessel-Paxton smearing, width (Ry)=  0.0200
                       cart. coord. in units 2pi/alat
        k(    1) = (   0.0000000   0.0000000   0.0000000), wk =   0.0019531
        k(    2) = (   0.0000000   0.0000000   0.1250000), wk =   0.0117188
        k(    3) = (   0.0000000   0.0000000   0.2500000), wk =   0.0117188
        k(    4) = (   0.0000000   0.0000000   0.3750000), wk =   0.0117188
        k(    5) = (   0.0000000   0.0000000  -0.5000000), wk =   0.0058594
        k(    6) = (   0.0000000   0.1250000   0.1250000), wk =   0.0234375
        k(    7) = (   0.0000000   0.1250000   0.2500000), wk =   0.0234375
        k(    8) = (   0.0000000   0.1250000   0.3750000), wk =   0.0234375
        k(    9) = (   0.0000000   0.1250000  -0.5000000), wk =   0.0117188
        k(   10) = (   0.0000000   0.2500000   0.2500000), wk =   0.0234375
        k(   11) = (   0.0000000   0.2500000   0.3750000), wk =   0.0234375
        k(   12) = (   0.0000000   0.2500000  -0.5000000), wk =   0.0117188
        k(   13) = (   0.0000000   0.3750000   0.3750000), wk =   0.0234375
        k(   14) = (   0.0000000   0.3750000  -0.5000000), wk =   0.0117188
        k(   15) = (   0.0000000  -0.5000000  -0.5000000), wk =   0.0058594
        k(   16) = (   0.1250000   0.1250000   0.1250000), wk =   0.0156250
        k(   17) = (   0.1250000   0.1250000   0.2500000), wk =   0.0468750
        k(   18) = (   0.1250000   0.1250000   0.3750000), wk =   0.0468750
        k(   19) = (   0.1250000   0.1250000  -0.5000000), wk =   0.0234375
        k(   20) = (   0.1250000   0.2500000   0.2500000), wk =   0.0468750
        k(   21) = (   0.1250000   0.2500000   0.3750000), wk =   0.0468750
        k(   22) = (   0.1250000   0.2500000  -0.5000000), wk =   0.0234375
        k(   23) = (   0.1250000   0.3750000   0.3750000), wk =   0.0468750
        k(   24) = (   0.1250000   0.3750000  -0.5000000), wk =   0.0234375
        k(   25) = (   0.1250000  -0.5000000  -0.5000000), wk =   0.0117188
        k(   26) = (   0.2500000   0.2500000   0.2500000), wk =   0.0156250
        k(   27) = (   0.2500000   0.2500000   0.3750000), wk =   0.0468750
        k(   28) = (   0.2500000   0.2500000  -0.5000000), wk =   0.0234375
        k(   29) = (   0.2500000   0.3750000   0.3750000), wk =   0.0468750
        k(   30) = (   0.2500000   0.3750000  -0.5000000), wk =   0.0234375
        k(   31) = (   0.2500000  -0.5000000  -0.5000000), wk =   0.0117188
        k(   32) = (   0.3750000   0.3750000   0.3750000), wk =   0.0156250
        k(   33) = (   0.3750000   0.3750000  -0.5000000), wk =   0.0234375
        k(   34) = (   0.3750000  -0.5000000  -0.5000000), wk =   0.0117188
        k(   35) = (  -0.5000000  -0.5000000  -0.5000000), wk =   0.0019531
        k(   36) = (   0.0000000   0.2500000   0.1250000), wk =   0.0234375
        k(   37) = (   0.0000000   0.3750000   0.1250000), wk =   0.0234375
        k(   38) = (   0.0000000  -0.5000000   0.1250000), wk =   0.0117188
        k(   39) = (   0.0000000   0.3750000   0.2500000), wk =   0.0234375
        k(   40) = (   0.0000000  -0.5000000   0.2500000), wk =   0.0117188
        k(   41) = (   0.0000000  -0.5000000   0.3750000), wk =   0.0117188
        k(   42) = (  -0.1250000   0.3750000   0.2500000), wk =   0.0468750
        k(   43) = (  -0.1250000  -0.5000000   0.2500000), wk =   0.0234375
        k(   44) = (  -0.1250000  -0.5000000   0.3750000), wk =   0.0234375
        k(   45) = (  -0.2500000  -0.5000000   0.3750000), wk =   0.0234375

                       cryst. coord.
        k(    1) = (   0.0000000   0.0000000   0.0000000), wk =   0.0019531
        k(    2) = (   0.0000000   0.0000000   0.1250000), wk =   0.0117188
        k(    3) = (   0.0000000   0.0000000   0.2500000), wk =   0.0117188
        k(    4) = (   0.0000000   0.0000000   0.3750000), wk =   0.0117188
        k(    5) = (   0.0000000   0.0000000  -0.5000000), wk =   0.0058594
        k(    6) = (   0.0000000   0.1250000   0.1250000), wk =   0.0234375
        k(    7) = (   0.0000000   0.1250000   0.2500000), wk =   0.0234375
        k(    8) = (   0.0000000   0.1250000   0.3750000), wk =   0.0234375
        k(    9) = (   0.0000000   0.1250000  -0.5000000), wk =   0.0117188
        k(   10) = (   0.0000000   0.2500000   0.2500000), wk =   0.0234375
        k(   11) = (   0.0000000   0.2500000   0.3750000), wk =   0.0234375
        k(   12) = (   0.0000000   0.2500000  -0.5000000), wk =   0.0117188
        k(   13) = (   0.0000000   0.3750000   0.3750000), wk =   0.0234375
        k(   14) = (   0.0000000   0.3750000  -0.5000000), wk =   0.0117188
        k(   15) = (   0.0000000  -0.5000000  -0.5000000), wk =   0.0058594
        k(   16) = (   0.1250000   0.1250000   0.1250000), wk =   0.0156250
        k(   17) = (   0.1250000   0.1250000   0.2500000), wk =   0.0468750
        k(   18) = (   0.1250000   0.1250000   0.3750000), wk =   0.0468750
        k(   19) = (   0.1250000   0.1250000  -0.5000000), wk =   0.0234375
        k(   20) = (   0.1250000   0.2500000   0.2500000), wk =   0.0468750
        k(   21) = (   0.1250000   0.2500000   0.3750000), wk =   0.0468750
        k(   22) = (   0.1250000   0.2500000  -0.5000000), wk =   0.0234375
        k(   23) = (   0.1250000   0.3750000   0.3750000), wk =   0.0468750
        k(   24) = (   0.1250000   0.3750000  -0.5000000), wk =   0.0234375
        k(   25) = (   0.1250000  -0.5000000  -0.5000000), wk =   0.0117188
        k(   26) = (   0.2500000   0.2500000   0.2500000), wk =   0.0156250
        k(   27) = (   0.2500000   0.2500000   0.3750000), wk =   0.0468750
        k(   28) = (   0.2500000   0.2500000  -0.5000000), wk =   0.0234375
        k(   29) = (   0.2500000   0.3750000   0.3750000), wk =   0.0468750
        k(   30) = (   0.2500000   0.3750000  -0.5000000), wk =   0.0234375
        k(   31) = (   0.2500000  -0.5000000  -0.5000000), wk =   0.0117188
        k(   32) = (   0.3750000   0.3750000   0.3750000), wk =   0.0156250
        k(   33) = (   0.3750000   0.3750000  -0.5000000), wk =   0.0234375
        k(   34) = (   0.3750000  -0.5000000  -0.5000000), wk =   0.0117188
        k(   35) = (  -0.5000000  -0.5000000  -0.5000000), wk =   0.0019531
        k(   36) = (   0.0000000   0.2500000   0.1250000), wk =   0.0234375
        k(   37) = (   0.0000000   0.3750000   0.1250000), wk =   0.0234375
        k(   38) = (   0.0000000  -0.5000000   0.1250000), wk =   0.0117188
        k(   39) = (   0.0000000   0.3750000   0.2500000), wk =   0.0234375
        k(   40) = (   0.0000000  -0.5000000   0.2500000), wk =   0.0117188
        k(   41) = (   0.0000000  -0.5000000   0.3750000), wk =   0.0117188
        k(   42) = (  -0.1250000   0.3750000   0.2500000), wk =   0.0468750
        k(   43) = (  -0.1250000  -0.5000000   0.2500000), wk =   0.0234375
        k(   44) = (  -0.1250000  -0.5000000   0.3750000), wk =   0.0234375
        k(   45) = (  -0.2500000  -0.5000000   0.3750000), wk =   0.0234375

     Dense  grid:   166101 G-vectors     FFT dimensions: (  72,  72,  72)

     Smooth grid:    42115 G-vectors     FFT dimensions: (  48,  48,  48)

     Dynamical RAM for                 wfc:       0.57 MB

     Dynamical RAM for     wfc (w. buffer):      26.32 MB

     Dynamical RAM for           str. fact:       0.21 MB

     Dynamical RAM for           local pot:       0.00 MB

     Dynamical RAM for          nlocal pot:       0.90 MB

     Dynamical RAM for                qrad:      10.29 MB

     Dynamical RAM for          rho,v,vnew:       2.69 MB

     Dynamical RAM for               rhoin:       0.90 MB

     Dynamical RAM for            rho*nmix:       6.76 MB

     Dynamical RAM for           G-vectors:       0.41 MB

     Dynamical RAM for          h,s,v(r/c):       1.35 MB

     Dynamical RAM for          <psi|beta>:       0.71 MB

     Dynamical RAM for                 psi:       1.14 MB

     Dynamical RAM for                hpsi:       1.14 MB

     Dynamical RAM for                spsi:       1.14 MB

     Dynamical RAM for      wfcinit/wfcrot:       1.41 MB

     Dynamical RAM for           addusdens:      64.86 MB

     Estimated static dynamical RAM per process >      49.75 MB

     Estimated max dynamical RAM per process >     114.61 MB

     Estimated total dynamical RAM >       2.69 GB

     Check: negative core charge=   -0.000001

     Initial potential from superposition of free atoms

     starting charge   71.99469, renormalised to   72.00000
     Starting wfcs are  112 randomized atomic wfcs
     Checking if some PAW data can be deallocated... 
       PAW data deallocated on   12 nodes for type:  1
       PAW data deallocated on   12 nodes for type:  2

     total cpu time spent up to now is        7.1 secs

     Self-consistent Calculation

     iteration #  1     ecut=    60.00 Ry     beta= 0.70
     Davidson diagonalization with overlap
     ethr =  1.00E-02,  avg # of iterations =  2.0

     Threshold (ethr) on eigenvalues was too large:
     Diagonalizing with lowered threshold

     Davidson diagonalization with overlap
     ethr =  2.09E-04,  avg # of iterations =  4.3

     total cpu time spent up to now is       31.5 secs

     total energy              =   -1180.29289345 Ry
     estimated scf accuracy    <       0.18881158 Ry

     iteration #  2     ecut=    60.00 Ry     beta= 0.70
     Davidson diagonalization with overlap
     ethr =  2.62E-04,  avg # of iterations =  3.1

     total cpu time spent up to now is       44.3 secs

     total energy              =   -1180.29702768 Ry
     estimated scf accuracy    <       0.08326230 Ry

     iteration #  3     ecut=    60.00 Ry     beta= 0.70
     Davidson diagonalization with overlap
     ethr =  1.16E-04,  avg # of iterations =  5.0

     total cpu time spent up to now is       59.9 secs

     total energy              =   -1180.30903098 Ry
     estimated scf accuracy    <       0.16161225 Ry

     iteration #  4     ecut=    60.00 Ry     beta= 0.70
     Davidson diagonalization with overlap
     ethr =  1.16E-04,  avg # of iterations =  4.0

     total cpu time spent up to now is       72.4 secs

     total energy              =   -1180.33274326 Ry
     estimated scf accuracy    <       0.00025522 Ry

     iteration #  5     ecut=    60.00 Ry     beta= 0.70
     Davidson diagonalization with overlap
     ethr =  3.54E-07,  avg # of iterations =  8.7

     total cpu time spent up to now is       93.3 secs

     total energy              =   -1180.33338175 Ry
     estimated scf accuracy    <       0.00045388 Ry

     iteration #  6     ecut=    60.00 Ry     beta= 0.70
     Davidson diagonalization with overlap
     ethr =  3.54E-07,  avg # of iterations =  4.0

     total cpu time spent up to now is      105.8 secs

     total energy              =   -1180.33345974 Ry
     estimated scf accuracy    <       0.00000324 Ry

     iteration #  7     ecut=    60.00 Ry     beta= 0.70
     Davidson diagonalization with overlap
     ethr =  4.50E-09,  avg # of iterations =  5.7

     total cpu time spent up to now is      120.8 secs

     total energy              =   -1180.33346025 Ry
     estimated scf accuracy    <       0.00000705 Ry

     iteration #  8     ecut=    60.00 Ry     beta= 0.70
     Davidson diagonalization with overlap
     ethr =  4.50E-09,  avg # of iterations =  4.0

     total cpu time spent up to now is      134.1 secs

     End of self-consistent calculation

          k = 0.0000 0.0000 0.0000 (  5257 PWs)   bands (ev):

   -56.5101 -56.5101 -56.4754 -56.4754 -56.4754 -56.4754 -56.4754 -56.4754
   -28.5797 -28.5797 -28.5722 -28.5722 -28.5722 -28.5722 -28.4830 -28.4830
   -27.6150 -27.6150 -27.6150 -27.6150 -27.5384 -27.5384 -27.5384 -27.5384
   -27.5335 -27.5335 -27.4511 -27.4511 -27.4510 -27.4510 -27.4510 -27.4510
     2.6991   2.6991   7.4572   7.4572   7.4572   7.4572   7.4663   7.4663
    10.5375  10.5375  10.5453  10.5453  10.5453  10.5453  11.9116  11.9116
    11.9116  11.9116  11.9228  11.9228  12.6027  12.6027  12.7725  12.7725
    12.7725  12.7725  13.1443  13.1443  13.1443  13.1443  13.1455  13.1455
    13.6727  13.6727  13.6727  13.6727  13.6766  13.6766  15.5533  15.5533
    15.5846  15.5846  15.5846  15.5846  15.7681  15.7681  15.7681  15.7681
    16.6673  16.6673  16.6976  16.6976  16.6976  16.6976

     occupation numbers 
     1.0000   1.0000   1.0000   1.0000   1.0000   1.0000   1.0000   1.0000
     1.0000   1.0000   1.0000   1.0000   1.0000   1.0000   1.0000   1.0000
     1.0000   1.0000   1.0000   1.0000   1.0000   1.0000   1.0000   1.0000
     1.0000   1.0000   1.0000   1.0000   1.0000   1.0000   1.0000   1.0000
     1.0000   1.0000   1.0000   1.0000   1.0000   1.0000   1.0000   1.0000
     1.0000   1.0000   1.0000   1.0000   1.0000   1.0000   1.0000   1.0000
     1.0000   1.0000   1.0000   1.0000   1.0000   1.0000   1.0000   1.0000
     1.0000   1.0000   1.0000   1.0000   1.0000   1.0000   1.0000   1.0000
     1.0000   1.0000   1.0000   1.0000   1.0000   1.0000  -0.0040  -0.0040
    -0.0026  -0.0026  -0.0026  -0.0026  -0.0001  -0.0001  -0.0001  -0.0001
    -0.0000  -0.0000  -0.0000  -0.0000  -0.0000  -0.0000

          k = 0.0000 0.0000 0.1250 (  5269 PWs)   bands (ev):

   -56.5091 -56.5091 -56.4794 -56.4794 -56.4751 -56.4751 -56.4727 -56.4727
   -28.5859 -28.5789 -28.5758 -28.5753 -28.5654 -28.5623 -28.4859 -28.4859
   -27.6283 -27.6217 -27.6057 -27.5992 -27.5476 -27.5441 -27.5406 -27.5330
   -27.5312 -27.5211 -27.4590 -27.4571 -27.4548 -27.4497 -27.4489 -27.4448
     2.8074   2.8074   6.7956   6.7989   7.5183   7.5198   7.9730   7.9817
    10.0756  10.0807  10.6138  10.6154  11.0395  11.0414  11.3204  11.3205
    11.6505  11.6544  12.5297  12.5363  12.5614  12.5796  12.7798  12.7870
    12.9235  12.9247  13.1147  13.1167  13.1792  13.1795  13.2099  13.2103
    13.5228  13.5305  13.6542  13.6557  13.9007  13.9009  15.3994  15.4176
    15.4465  15.4561  15.7248  15.7281  15.7412  15.7557  15.7677  15.7731
    16.4757  16.4927  16.6356  16.6404  16.8977  16.9182

     occupation numbers 
     1.0000   1.0000   1.0000   1.0000   1.0000   1.0000   1.0000   1.0000
     1.0000   1.0000   1.0000   1.0000   1.0000   1.0000   1.0000   1.0000
     1.0000   1.0000   1.0000   1.0000   1.0000   1.0000   1.0000   1.0000
     1.0000   1.0000   1.0000   1.0000   1.0000   1.0000   1.0000   1.0000
     1.0000   1.0000   1.0000   1.0000   1.0000   1.0000   1.0000   1.0000
     1.0000   1.0000   1.0000   1.0000   1.0000   1.0000   1.0000   1.0000
     1.0000   1.0000   1.0000   1.0000   1.0000   1.0000   1.0000   1.0000
     1.0000   1.0000   1.0000   1.0000   1.0000   1.0000   1.0000   1.0000
     1.0000   1.0000   1.0000   1.0000   1.0000   1.0000  -0.0216  -0.0186
    -0.0143  -0.0130  -0.0002  -0.0002  -0.0002  -0.0001  -0.0001  -0.0001
    -0.0000  -0.0000  -0.0000  -0.0000  -0.0000  -0.0000

          k = 0.0000 0.0000 0.2500 (  5222 PWs)   bands (ev):

   -56.5062 -56.5062 -56.4845 -56.4845 -56.4742 -56.4742 -56.4713 -56.4713
   -28.5892 -28.5823 -28.5790 -28.5765 -28.5527 -28.5497 -28.4940 -28.4938
   -27.6366 -27.6275 -27.5928 -27.5854 -27.5572 -27.5456 -27.5377 -27.5331
   -27.5276 -27.5067 -27.4691 -27.4628 -27.4606 -27.4504 -27.4482 -27.4416
     3.1276   3.1276   5.9923   5.9937   7.6899   7.6928   8.3705   8.3805
     9.7444   9.7457  10.7565  10.7616  10.8662  10.8748  11.1955  11.2028
    11.5687  11.5694  12.2659  12.2806  12.8666  12.8732  12.9129  12.9347
    13.1215  13.1254  13.1299  13.1350  13.2518  13.2525  13.2827  13.2867
    13.5447  13.5481  13.6986  13.7062  14.0473  14.0479  15.0743  15.1029
    15.3819  15.3825  15.6193  15.6345  15.7417  15.7659  15.8532  15.8771
    16.2872  16.3019  16.4953  16.5068  17.1888  17.2093

     occupation numbers 
     1.0000   1.0000   1.0000   1.0000   1.0000   1.0000   1.0000   1.0000
     1.0000   1.0000   1.0000   1.0000   1.0000   1.0000   1.0000   1.0000
     1.0000   1.0000   1.0000   1.0000   1.0000   1.0000   1.0000   1.0000
     1.0000   1.0000   1.0000   1.0000   1.0000   1.0000   1.0000   1.0000
     1.0000   1.0000   1.0000   1.0000   1.0000   1.0000   1.0000   1.0000
     1.0000   1.0000   1.0000   1.0000   1.0000   1.0000   1.0000   1.0000
     1.0000   1.0000   1.0000   1.0000   1.0000   1.0000   1.0000   1.0000
     1.0000   1.0000   1.0000   1.0000   1.0000   1.0000   1.0000   1.0000
     1.0000   1.0000   1.0000   1.0000   1.0000   1.0000   0.1671   0.1082
    -0.0246  -0.0245  -0.0015  -0.0012  -0.0002  -0.0001  -0.0000  -0.0000
    -0.0000  -0.0000  -0.0000  -0.0000  -0.0000  -0.0000

          k = 0.0000 0.0000 0.3750 (  5242 PWs)   bands (ev):

   -56.5017 -56.5017 -56.4903 -56.4903 -56.4730 -56.4730 -56.4711 -56.4711
   -28.5897 -28.5835 -28.5831 -28.5791 -28.5376 -28.5353 -28.5065 -28.5058
   -27.6398 -27.6335 -27.5797 -27.5747 -27.5659 -27.5425 -27.5421 -27.5294
   -27.5238 -27.4924 -27.4851 -27.4689 -27.4622 -27.4535 -27.4470 -27.4419
     3.6442   3.6442   5.1361   5.1366   7.9595   7.9640   8.5105   8.5193
     9.6772   9.6799  10.5124  10.5130  10.7729  10.7858  11.0303  11.0320
    12.0055  12.0077  12.1212  12.1358  12.7690  12.7843  12.9440  12.9568
    13.0801  13.0876  13.1865  13.1906  13.2462  13.2494  13.3259  13.3294
    13.5407  13.5412  13.9324  13.9368  14.2205  14.2340  14.8134  14.8483
    15.3589  15.3706  15.4990  15.5180  15.7559  15.7853  15.8481  15.8733
    16.1667  16.1826  16.3099  16.3238  17.3523  17.3631

     occupation numbers 
     1.0000   1.0000   1.0000   1.0000   1.0000   1.0000   1.0000   1.0000
     1.0000   1.0000   1.0000   1.0000   1.0000   1.0000   1.0000   1.0000
     1.0000   1.0000   1.0000   1.0000   1.0000   1.0000   1.0000   1.0000
     1.0000   1.0000   1.0000   1.0000   1.0000   1.0000   1.0000   1.0000
     1.0000   1.0000   1.0000   1.0000   1.0000   1.0000   1.0000   1.0000
     1.0000   1.0000   1.0000   1.0000   1.0000   1.0000   1.0000   1.0000
     1.0000   1.0000   1.0000   1.0000   1.0000   1.0000   1.0000   1.0000
     1.0000   1.0000   1.0000   1.0000   1.0000   1.0000   1.0000   1.0000
     1.0000   1.0000   1.0000   1.0000   1.0004   1.0006   0.8823   0.8067
    -0.0284  -0.0265  -0.0081  -0.0064  -0.0001  -0.0001  -0.0000  -0.0000
    -0.0000  -0.0000  -0.0000  -0.0000  -0.0000  -0.0000

          k = 0.0000 0.0000-0.5000 (  5294 PWs)   bands (ev):

   -56.4963 -56.4963 -56.4963 -56.4963 -56.4718 -56.4718 -56.4718 -56.4718
   -28.5876 -28.5876 -28.5819 -28.5819 -28.5218 -28.5218 -28.5203 -28.5203
   -27.6384 -27.6384 -27.5732 -27.5732 -27.5583 -27.5583 -27.5355 -27.5355
   -27.5045 -27.5045 -27.4798 -27.4798 -27.4582 -27.4582 -27.4446 -27.4446
     4.3290   4.3290   4.3292   4.3292   8.2828   8.2828   8.2892   8.2892
    10.0171  10.0171  10.0211  10.0211  10.8986  10.8986  10.9097  10.9097
    12.2476  12.2476  12.2541  12.2541  12.6861  12.6861  12.6984  12.6984
    13.1425  13.1425  13.1429  13.1429  13.2378  13.2378  13.2415  13.2415
    13.7832  13.7832  13.7864  13.7864  14.5660  14.5660  14.5945  14.5945
    15.4030  15.4030  15.4208  15.4208  15.8078  15.8078  15.8375  15.8375
    16.1675  16.1675  16.1812  16.1812  17.5451  17.5461

     occupation numbers 
     1.0000   1.0000   1.0000   1.0000   1.0000   1.0000   1.0000   1.0000
     1.0000   1.0000   1.0000   1.0000   1.0000   1.0000   1.0000   1.0000
     1.0000   1.0000   1.0000   1.0000   1.0000   1.0000   1.0000   1.0000
     1.0000   1.0000   1.0000   1.0000   1.0000   1.0000   1.0000   1.0000
     1.0000   1.0000   1.0000   1.0000   1.0000   1.0000   1.0000   1.0000
     1.0000   1.0000   1.0000   1.0000   1.0000   1.0000   1.0000   1.0000
     1.0000   1.0000   1.0000   1.0000   1.0000   1.0000   1.0000   1.0000
     1.0000   1.0000   1.0000   1.0000   1.0000   1.0000   1.0000   1.0000
     1.0000   1.0000   1.0000   1.0000   1.0306   1.0306   1.0341   1.0341
    -0.0210  -0.0210  -0.0181  -0.0181  -0.0000  -0.0000  -0.0000  -0.0000
    -0.0000  -0.0000  -0.0000  -0.0000  -0.0000  -0.0000

          k = 0.0000 0.1250 0.1250 (  5267 PWs)   bands (ev):

   -56.5081 -56.5081 -56.4809 -56.4809 -56.4754 -56.4754 -56.4718 -56.4718
   -28.5878 -28.5817 -28.5745 -28.5739 -28.5626 -28.5587 -28.4887 -28.4887
   -27.6300 -27.6262 -27.5987 -27.5946 -27.5501 -27.5458 -27.5429 -27.5372
   -27.5247 -27.5146 -27.4638 -27.4625 -27.4563 -27.4506 -27.4460 -27.4423
     2.9150   2.9150   6.6457   6.6505   7.3156   7.3195   8.2197   8.2254
     9.9480   9.9529  10.6672  10.6732  10.8543  10.8589  11.2393  11.2424
    11.8048  11.8060  12.4440  12.4550  12.5945  12.6023  12.9029  12.9091
    13.0105  13.0198  13.1613  13.1623  13.1664  13.1712  13.2680  13.2699
    13.4653  13.4716  13.6788  13.6902  13.9956  14.0009  15.3467  15.3590
    15.3944  15.4037  15.6264  15.6358  15.7263  15.7426  15.7953  15.8166
    16.3755  16.3937  16.6481  16.6555  16.9399  16.9692

     occupation numbers 
     1.0000   1.0000   1.0000   1.0000   1.0000   1.0000   1.0000   1.0000
     1.0000   1.0000   1.0000   1.0000   1.0000   1.0000   1.0000   1.0000
     1.0000   1.0000   1.0000   1.0000   1.0000   1.0000   1.0000   1.0000
     1.0000   1.0000   1.0000   1.0000   1.0000   1.0000   1.0000   1.0000
     1.0000   1.0000   1.0000   1.0000   1.0000   1.0000   1.0000   1.0000
     1.0000   1.0000   1.0000   1.0000   1.0000   1.0000   1.0000   1.0000
     1.0000   1.0000   1.0000   1.0000   1.0000   1.0000   1.0000   1.0000
     1.0000   1.0000   1.0000   1.0000   1.0000   1.0000   1.0000   1.0000
     1.0000   1.0000   1.0000   1.0000   1.0000   1.0000  -0.0303  -0.0284
    -0.0225  -0.0209  -0.0014  -0.0012  -0.0002  -0.0002  -0.0001  -0.0000
    -0.0000  -0.0000  -0.0000  -0.0000  -0.0000  -0.0000

          k = 0.0000 0.1250 0.2500 (  5245 PWs)   bands (ev):

   -56.5053 -56.5053 -56.4849 -56.4849 -56.4748 -56.4748 -56.4711 -56.4711
   -28.5896 -28.5837 -28.5764 -28.5750 -28.5523 -28.5491 -28.4965 -28.4964
   -27.6353 -27.6287 -27.5891 -27.5838 -27.5567 -27.5479 -27.5417 -27.5371
   -27.5222 -27.5023 -27.4756 -27.4673 -27.4607 -27.4529 -27.4435 -27.4389
     3.2328   3.2329   6.0270   6.0294   7.3765   7.3791   8.4798   8.4849
     9.7448   9.7463  10.4125  10.4162  10.8576  10.8584  11.4949  11.5001
    11.5884  11.5900  12.3112  12.3210  12.6388  12.6415  13.0353  13.0428
    13.0743  13.0856  13.2040  13.2100  13.2817  13.2830  13.3814  13.3856
    13.5211  13.5275  13.8055  13.8208  14.1015  14.1086  15.0902  15.1171
    15.2996  15.3146  15.5098  15.5244  15.6918  15.7138  15.8408  15.8663
    16.2255  16.2406  16.5291  16.5414  17.1536  17.1871

     occupation numbers 
     1.0000   1.0000   1.0000   1.0000   1.0000   1.0000   1.0000   1.0000
     1.0000   1.0000   1.0000   1.0000   1.0000   1.0000   1.0000   1.0000
     1.0000   1.0000   1.0000   1.0000   1.0000   1.0000   1.0000   1.0000
     1.0000   1.0000   1.0000   1.0000   1.0000   1.0000   1.0000   1.0000
     1.0000   1.0000   1.0000   1.0000   1.0000   1.0000   1.0000   1.0000
     1.0000   1.0000   1.0000   1.0000   1.0000   1.0000   1.0000   1.0000
     1.0000   1.0000   1.0000   1.0000   1.0000   1.0000   1.0000   1.0000
     1.0000   1.0000   1.0000   1.0000   1.0000   1.0000   1.0000   1.0000
     1.0000   1.0000   1.0000   1.0000   1.0000   1.0000   0.1330   0.0829
    -0.0352  -0.0343  -0.0071  -0.0059  -0.0004  -0.0003  -0.0000  -0.0000
    -0.0000  -0.0000  -0.0000  -0.0000  -0.0000  -0.0000

          k = 0.0000 0.1250 0.3750 (  5243 PWs)   bands (ev):

   -56.5010 -56.5010 -56.4902 -56.4902 -56.4736 -56.4736 -56.4713 -56.4713
   -28.5889 -28.5839 -28.5804 -28.5776 -28.5383 -28.5361 -28.5086 -28.5080
   -27.6375 -27.6321 -27.5793 -27.5732 -27.5652 -27.5474 -27.5416 -27.5295
   -27.5246 -27.4927 -27.4879 -27.4704 -27.4640 -27.4571 -27.4415 -27.4381
     3.7450   3.7452   5.2140   5.2151   7.6681   7.6700   8.4245   8.4282
     9.7363   9.7395  10.2163  10.2203  11.0150  11.0209  11.1802  11.1940
    11.8669  11.8722  12.1819  12.1915  12.6395  12.6461  12.8675  12.8774
    13.0662  13.0725  13.2720  13.2767  13.3355  13.3375  13.4481  13.4510
    13.6026  13.6095  13.9686  13.9755  14.2912  14.3083  14.8257  14.8593
    15.2813  15.2972  15.3819  15.3943  15.6957  15.7218  15.8278  15.8572
    16.1490  16.1576  16.3607  16.3742  17.3058  17.3293

     occupation numbers 
     1.0000   1.0000   1.0000   1.0000   1.0000   1.0000   1.0000   1.0000
     1.0000   1.0000   1.0000   1.0000   1.0000   1.0000   1.0000   1.0000
     1.0000   1.0000   1.0000   1.0000   1.0000   1.0000   1.0000   1.0000
     1.0000   1.0000   1.0000   1.0000   1.0000   1.0000   1.0000   1.0000
     1.0000   1.0000   1.0000   1.0000   1.0000   1.0000   1.0000   1.0000
     1.0000   1.0000   1.0000   1.0000   1.0000   1.0000   1.0000   1.0000
     1.0000   1.0000   1.0000   1.0000   1.0000   1.0000   1.0000   1.0000
     1.0000   1.0000   1.0000   1.0000   1.0000   1.0000   1.0000   1.0000
     1.0000   1.0000   1.0000   1.0000   1.0015   1.0020   0.8575   0.7798
    -0.0353  -0.0353  -0.0246  -0.0225  -0.0004  -0.0003  -0.0000  -0.0000
    -0.0000  -0.0000  -0.0000  -0.0000  -0.0000  -0.0000

          k = 0.0000 0.1250-0.5000 (  5268 PWs)   bands (ev):

   -56.4958 -56.4958 -56.4958 -56.4958 -56.4723 -56.4723 -56.4723 -56.4723
   -28.5862 -28.5862 -28.5805 -28.5805 -28.5237 -28.5237 -28.5215 -28.5215
   -27.6359 -27.6359 -27.5728 -27.5728 -27.5589 -27.5589 -27.5351 -27.5351
   -27.5095 -27.5095 -27.4780 -27.4780 -27.4616 -27.4616 -27.4395 -27.4395
     4.4223   4.4223   4.4228   4.4228   8.0589   8.0589   8.0657   8.0657
     9.9963   9.9963  10.0005  10.0005  11.0370  11.0370  11.0510  11.0510
    12.1476  12.1476  12.1530  12.1530  12.5985  12.5985  12.6148  12.6148
    13.2277  13.2277  13.2303  13.2303  13.3333  13.3333  13.3346  13.3346
    13.8300  13.8300  13.8337  13.8337  14.5994  14.5994  14.6298  14.6298
    15.3044  15.3044  15.3202  15.3202  15.7589  15.7589  15.7886  15.7886
    16.2069  16.2069  16.2179  16.2179  17.5227  17.5306

     occupation numbers 
     1.0000   1.0000   1.0000   1.0000   1.0000   1.0000   1.0000   1.0000
     1.0000   1.0000   1.0000   1.0000   1.0000   1.0000   1.0000   1.0000
     1.0000   1.0000   1.0000   1.0000   1.0000   1.0000   1.0000   1.0000
     1.0000   1.0000   1.0000   1.0000   1.0000   1.0000   1.0000   1.0000
     1.0000   1.0000   1.0000   1.0000   1.0000   1.0000   1.0000   1.0000
     1.0000   1.0000   1.0000   1.0000   1.0000   1.0000   1.0000   1.0000
     1.0000   1.0000   1.0000   1.0000   1.0000   1.0000   1.0000   1.0000
     1.0000   1.0000   1.0000   1.0000   1.0000   1.0000   1.0000   1.0000
     1.0000   1.0000   1.0000   1.0000   1.0345   1.0345   1.0353   1.0353
    -0.0350  -0.0350  -0.0337  -0.0337  -0.0001  -0.0001  -0.0001  -0.0001
    -0.0000  -0.0000  -0.0000  -0.0000  -0.0000  -0.0000

          k = 0.0000 0.2500 0.2500 (  5255 PWs)   bands (ev):

   -56.5028 -56.5028 -56.4867 -56.4867 -56.4754 -56.4754 -56.4713 -56.4713
   -28.5890 -28.5839 -28.5742 -28.5734 -28.5488 -28.5455 -28.5038 -28.5034
   -27.6328 -27.6296 -27.5820 -27.5799 -27.5563 -27.5531 -27.5436 -27.5388
   -27.5188 -27.4966 -27.4856 -27.4753 -27.4662 -27.4492 -27.4395 -27.4354
     3.5431   3.5432   5.9656   5.9688   6.9415   6.9455   8.4366   8.4417
     9.7519   9.7551  10.1867  10.1918  10.9265  10.9290  11.3509  11.3520
    11.8603  11.8639  12.2867  12.2900  12.5062  12.5154  12.9047  12.9122
    13.1487  13.1580  13.2710  13.2804  13.4426  13.4441  13.5206  13.5299
    13.5713  13.5819  13.9853  13.9976  14.2205  14.2261  15.0473  15.0677
    15.1413  15.1660  15.2963  15.3078  15.6178  15.6429  15.7647  15.7935
    16.1614  16.1723  16.5139  16.5247  17.1871  17.2300

     occupation numbers 
     1.0000   1.0000   1.0000   1.0000   1.0000   1.0000   1.0000   1.0000
     1.0000   1.0000   1.0000   1.0000   1.0000   1.0000   1.0000   1.0000
     1.0000   1.0000   1.0000   1.0000   1.0000   1.0000   1.0000   1.0000
     1.0000   1.0000   1.0000   1.0000   1.0000   1.0000   1.0000   1.0000
     1.0000   1.0000   1.0000   1.0000   1.0000   1.0000   1.0000   1.0000
     1.0000   1.0000   1.0000   1.0000   1.0000   1.0000   1.0000   1.0000
     1.0000   1.0000   1.0000   1.0000   1.0000   1.0000   1.0000   1.0000
     1.0000   1.0000   1.0000   1.0000   1.0000   1.0000   1.0000   1.0000
     1.0000   1.0000   1.0000   1.0000   1.0004   1.0005   0.2319   0.1820
     0.0464   0.0172  -0.0353  -0.0348  -0.0016  -0.0010  -0.0001  -0.0001
    -0.0000  -0.0000  -0.0000  -0.0000  -0.0000  -0.0000

          k = 0.0000 0.2500 0.3750 (  5259 PWs)   bands (ev):

   -56.4991 -56.4991 -56.4902 -56.4902 -56.4748 -56.4748 -56.4721 -56.4721
   -28.5864 -28.5822 -28.5764 -28.5745 -28.5396 -28.5375 -28.5144 -28.5140
   -27.6310 -27.6282 -27.5808 -27.5737 -27.5615 -27.5511 -27.5411 -27.5328
   -27.5232 -27.5008 -27.4928 -27.4823 -27.4623 -27.4497 -27.4366 -27.4339
     4.0412   4.0416   5.4176   5.4194   7.0451   7.0483   8.0212   8.0246
     9.9172   9.9205  10.1874  10.1907  11.0288  11.0326  11.3809  11.3884
    11.8898  11.8917  12.0253  12.0295  12.4334  12.4445  12.6530  12.6629
    13.2357  13.2452  13.3305  13.3358  13.4399  13.4438  13.6544  13.6573
    13.7902  13.7936  14.0671  14.0766  14.4544  14.4798  14.8312  14.8581
    15.0732  15.0945  15.1494  15.1548  15.5788  15.6033  15.6816  15.7136
    16.2023  16.2092  16.4559  16.4663  17.1929  17.2218

     occupation numbers 
     1.0000   1.0000   1.0000   1.0000   1.0000   1.0000   1.0000   1.0000
     1.0000   1.0000   1.0000   1.0000   1.0000   1.0000   1.0000   1.0000
     1.0000   1.0000   1.0000   1.0000   1.0000   1.0000   1.0000   1.0000
     1.0000   1.0000   1.0000   1.0000   1.0000   1.0000   1.0000   1.0000
     1.0000   1.0000   1.0000   1.0000   1.0000   1.0000   1.0000   1.0000
     1.0000   1.0000   1.0000   1.0000   1.0000   1.0000   1.0000   1.0000
     1.0000   1.0000   1.0000   1.0000   1.0000   1.0000   1.0000   1.0000
     1.0000   1.0000   1.0000   1.0000   1.0000   1.0000   1.0000   1.0000
     1.0000   1.0000   1.0000   1.0000   1.0129   1.0165   0.8456   0.7827
     0.1694   0.1242   0.0359   0.0295  -0.0028  -0.0019  -0.0005  -0.0003
    -0.0000  -0.0000  -0.0000  -0.0000  -0.0000  -0.0000

          k = 0.0000 0.2500-0.5000 (  5242 PWs)   bands (ev):

   -56.4946 -56.4946 -56.4946 -56.4946 -56.4735 -56.4735 -56.4735 -56.4735
   -28.5824 -28.5824 -28.5773 -28.5773 -28.5281 -28.5281 -28.5250 -28.5250
   -27.6288 -27.6288 -27.5773 -27.5773 -27.5560 -27.5560 -27.5337 -27.5337
   -27.5168 -27.5168 -27.4884 -27.4884 -27.4547 -27.4547 -27.4344 -27.4344
     4.6920   4.6920   4.6930   4.6930   7.4839   7.4839   7.4901   7.4901
    10.1298  10.1298  10.1328  10.1328  11.2005  11.2005  11.2121  11.2121
    11.9556  11.9556  11.9575  11.9575  12.4190  12.4190  12.4315  12.4315
    13.3481  13.3481  13.3545  13.3545  13.5166  13.5166  13.5226  13.5226
    13.9877  13.9877  13.9933  13.9933  14.6550  14.6550  14.6855  14.6855
    15.0867  15.0867  15.0983  15.0983  15.6053  15.6053  15.6340  15.6340
    16.3346  16.3346  16.3456  16.3456  17.3615  17.3646

     occupation numbers 
     1.0000   1.0000   1.0000   1.0000   1.0000   1.0000   1.0000   1.0000
     1.0000   1.0000   1.0000   1.0000   1.0000   1.0000   1.0000   1.0000
     1.0000   1.0000   1.0000   1.0000   1.0000   1.0000   1.0000   1.0000
     1.0000   1.0000   1.0000   1.0000   1.0000   1.0000   1.0000   1.0000
     1.0000   1.0000   1.0000   1.0000   1.0000   1.0000   1.0000   1.0000
     1.0000   1.0000   1.0000   1.0000   1.0000   1.0000   1.0000   1.0000
     1.0000   1.0000   1.0000   1.0000   1.0000   1.0000   1.0000   1.0000
     1.0000   1.0000   1.0000   1.0000   1.0000   1.0000   1.0000   1.0000
     1.0000   1.0000   1.0000   1.0000   1.0329   1.0329   1.0244   1.0244
     0.1402   0.1402   0.1168   0.1168  -0.0019  -0.0019  -0.0012  -0.0012
    -0.0000  -0.0000  -0.0000  -0.0000  -0.0000  -0.0000

          k = 0.0000 0.3750 0.3750 (  5266 PWs)   bands (ev):

   -56.4962 -56.4962 -56.4910 -56.4910 -56.4754 -56.4754 -56.4735 -56.4735
   -28.5821 -28.5789 -28.5740 -28.5732 -28.5382 -28.5365 -28.5230 -28.5221
   -27.6227 -27.6222 -27.5864 -27.5822 -27.5534 -27.5478 -27.5364 -27.5340
   -27.5246 -27.5071 -27.5051 -27.4953 -27.4527 -27.4432 -27.4352 -27.4323
     4.5102   4.5107   5.5236   5.5252   6.5732   6.5753   7.4029   7.4059
    10.2467  10.2480  10.4521  10.4532  10.9119  10.9127  11.2400  11.2430
    11.7871  11.7899  12.0562  12.0601  12.2638  12.2663  12.4688  12.4765
    13.2342  13.2418  13.3904  13.3919  13.6737  13.6742  13.8206  13.8256
    14.0558  14.0680  14.1504  14.1614  14.5575  14.5776  14.7417  14.7536
    14.8541  14.8732  14.9567  14.9799  15.4794  15.4989  15.5193  15.5464
    16.3236  16.3340  16.5123  16.5178  17.0923  17.1145

     occupation numbers 
     1.0000   1.0000   1.0000   1.0000   1.0000   1.0000   1.0000   1.0000
     1.0000   1.0000   1.0000   1.0000   1.0000   1.0000   1.0000   1.0000
     1.0000   1.0000   1.0000   1.0000   1.0000   1.0000   1.0000   1.0000
     1.0000   1.0000   1.0000   1.0000   1.0000   1.0000   1.0000   1.0000
     1.0000   1.0000   1.0000   1.0000   1.0000   1.0000   1.0000   1.0000
     1.0000   1.0000   1.0000   1.0000   1.0000   1.0000   1.0000   1.0000
     1.0000   1.0000   1.0000   1.0000   1.0000   1.0000   1.0000   1.0000
     1.0000   1.0000   1.0000   1.0000   1.0000   1.0000   1.0000   1.0000
     1.0000   1.0000   1.0001   1.0001   1.0293   1.0322   0.9864   0.9739
     0.7928   0.7439   0.4965   0.4248  -0.0101  -0.0081  -0.0063  -0.0044
    -0.0000  -0.0000  -0.0000  -0.0000  -0.0000  -0.0000

          k = 0.0000 0.3750-0.5000 (  5258 PWs)   bands (ev):

   -56.4932 -56.4932 -56.4932 -56.4932 -56.4748 -56.4748 -56.4748 -56.4748
   -28.5777 -28.5777 -28.5742 -28.5742 -28.5326 -28.5326 -28.5301 -28.5301
   -27.6179 -27.6179 -27.5896 -27.5896 -27.5468 -27.5468 -27.5325 -27.5325
   -27.5210 -27.5210 -27.5039 -27.5039 -27.4447 -27.4447 -27.4335 -27.4335
     5.0902   5.0902   5.0916   5.0916   6.8119   6.8119   6.8160   6.8160
    10.4502  10.4502  10.4515  10.4515  11.2421  11.2421  11.2501  11.2501
    11.6411  11.6411  11.6489  11.6489  12.3100  12.3100  12.3151  12.3151
    13.3660  13.3660  13.3717  13.3717  13.7694  13.7694  13.7784  13.7784
    14.2726  14.2726  14.2754  14.2754  14.5450  14.5450  14.5558  14.5558
    14.8859  14.8859  14.9048  14.9048  15.4601  15.4601  15.4798  15.4798
    16.4939  16.4939  16.5039  16.5039  17.1164  17.1177

     occupation numbers 
     1.0000   1.0000   1.0000   1.0000   1.0000   1.0000   1.0000   1.0000
     1.0000   1.0000   1.0000   1.0000   1.0000   1.0000   1.0000   1.0000
     1.0000   1.0000   1.0000   1.0000   1.0000   1.0000   1.0000   1.0000
     1.0000   1.0000   1.0000   1.0000   1.0000   1.0000   1.0000   1.0000
     1.0000   1.0000   1.0000   1.0000   1.0000   1.0000   1.0000   1.0000
     1.0000   1.0000   1.0000   1.0000   1.0000   1.0000   1.0000   1.0000
     1.0000   1.0000   1.0000   1.0000   1.0000   1.0000   1.0000   1.0000
     1.0000   1.0000   1.0000   1.0000   1.0000   1.0000   1.0000   1.0000
     1.0011   1.0011   1.0012   1.0012   1.0272   1.0272   1.0290   1.0290
     0.7091   0.7091   0.6549   0.6549  -0.0124  -0.0124  -0.0101  -0.0101
    -0.0000  -0.0000  -0.0000  -0.0000  -0.0000  -0.0000

          k = 0.0000-0.5000-0.5000 (  5248 PWs)   bands (ev):

   -56.4926 -56.4926 -56.4926 -56.4926 -56.4754 -56.4754 -56.4754 -56.4754
   -28.5740 -28.5740 -28.5740 -28.5740 -28.5334 -28.5334 -28.5334 -28.5334
   -27.6041 -27.6041 -27.6041 -27.6041 -27.5369 -27.5369 -27.5369 -27.5369
   -27.5166 -27.5166 -27.5166 -27.5166 -27.4370 -27.4370 -27.4370 -27.4370
     5.3718   5.3718   5.3718   5.3718   6.4282   6.4282   6.4282   6.4282
    10.7060  10.7060  10.7060  10.7060  11.2429  11.2429  11.2429  11.2429
    11.3856  11.3856  11.3856  11.3856  12.2846  12.2846  12.2846  12.2846
    13.3626  13.3626  13.3626  13.3626  14.0077  14.0077  14.0077  14.0077
    14.2946  14.2946  14.2946  14.2946  14.5259  14.5259  14.5259  14.5259
    14.7584  14.7584  14.7584  14.7584  15.4186  15.4186  15.4186  15.4186
    16.5890  16.5890  16.5890  16.5890  16.9862  16.9862

     occupation numbers 
     1.0000   1.0000   1.0000   1.0000   1.0000   1.0000   1.0000   1.0000
     1.0000   1.0000   1.0000   1.0000   1.0000   1.0000   1.0000   1.0000
     1.0000   1.0000   1.0000   1.0000   1.0000   1.0000   1.0000   1.0000
     1.0000   1.0000   1.0000   1.0000   1.0000   1.0000   1.0000   1.0000
     1.0000   1.0000   1.0000   1.0000   1.0000   1.0000   1.0000   1.0000
     1.0000   1.0000   1.0000   1.0000   1.0000   1.0000   1.0000   1.0000
     1.0000   1.0000   1.0000   1.0000   1.0000   1.0000   1.0000   1.0000
     1.0000   1.0000   1.0000   1.0000   1.0000   1.0000   1.0000   1.0000
     1.0016   1.0016   1.0016   1.0016   1.0240   1.0240   1.0240   1.0240
     0.9683   0.9683   0.9683   0.9683  -0.0185  -0.0185  -0.0185  -0.0185
    -0.0000  -0.0000  -0.0000  -0.0000  -0.0000  -0.0000

          k = 0.1250 0.1250 0.1250 (  5236 PWs)   bands (ev):

   -56.5072 -56.5072 -56.4819 -56.4819 -56.4757 -56.4757 -56.4714 -56.4714
   -28.5887 -28.5829 -28.5733 -28.5727 -28.5605 -28.5563 -28.4913 -28.4912
   -27.6302 -27.6286 -27.5952 -27.5897 -27.5516 -27.5453 -27.5445 -27.5416
   -27.5204 -27.5094 -27.4711 -27.4625 -27.4554 -27.4552 -27.4425 -27.4406
     3.0218   3.0219   6.5639   6.5705   7.1841   7.1913   8.2858   8.2899
     9.9228   9.9275  10.6118  10.6121  10.6514  10.6515  11.2996  11.3050
    11.9444  11.9455  12.3501  12.3614  12.7364  12.7383  12.8162  12.8252
    13.0621  13.0657  13.1648  13.1653  13.2430  13.2488  13.3423  13.3511
    13.4563  13.4643  13.7044  13.7089  14.0644  14.0718  15.3219  15.3262
    15.3569  15.3582  15.5764  15.5775  15.6399  15.6543  15.8143  15.8262
    16.3151  16.3347  16.6494  16.6579  16.9628  16.9980

     occupation numbers 
     1.0000   1.0000   1.0000   1.0000   1.0000   1.0000   1.0000   1.0000
     1.0000   1.0000   1.0000   1.0000   1.0000   1.0000   1.0000   1.0000
     1.0000   1.0000   1.0000   1.0000   1.0000   1.0000   1.0000   1.0000
     1.0000   1.0000   1.0000   1.0000   1.0000   1.0000   1.0000   1.0000
     1.0000   1.0000   1.0000   1.0000   1.0000   1.0000   1.0000   1.0000
     1.0000   1.0000   1.0000   1.0000   1.0000   1.0000   1.0000   1.0000
     1.0000   1.0000   1.0000   1.0000   1.0000   1.0000   1.0000   1.0000
     1.0000   1.0000   1.0000   1.0000   1.0000   1.0000   1.0000   1.0000
     1.0000   1.0000   1.0000   1.0000   1.0000   1.0000  -0.0335  -0.0331
    -0.0288  -0.0286  -0.0029  -0.0029  -0.0011  -0.0009  -0.0000  -0.0000
    -0.0000  -0.0000  -0.0000  -0.0000  -0.0000  -0.0000

          k = 0.1250 0.1250 0.2500 (  5248 PWs)   bands (ev):

   -56.5045 -56.5045 -56.4852 -56.4852 -56.4754 -56.4754 -56.4711 -56.4711
   -28.5895 -28.5840 -28.5745 -28.5736 -28.5521 -28.5487 -28.4991 -28.4987
   -27.6341 -27.6290 -27.5877 -27.5805 -27.5558 -27.5488 -27.5442 -27.5416
   -27.5181 -27.5000 -27.4807 -27.4670 -27.4623 -27.4558 -27.4398 -27.4378
     3.3372   3.3373   6.0629   6.0660   7.2205   7.2249   8.4046   8.4086
     9.6718   9.6738  10.4343  10.4382  10.6898  10.6936  11.4166  11.4206
    11.8417  11.8466  12.2996  12.3030  12.7372  12.7424  13.0071  13.0121
    13.0827  13.0895  13.1148  13.1225  13.2815  13.2861  13.4391  13.4485
    13.6250  13.6335  13.8390  13.8477  14.1523  14.1584  15.0826  15.1078
    15.2845  15.2997  15.4470  15.4606  15.5906  15.6078  15.8119  15.8309
    16.2028  16.2185  16.5443  16.5581  17.1184  17.1542

     occupation numbers 
     1.0000   1.0000   1.0000   1.0000   1.0000   1.0000   1.0000   1.0000
     1.0000   1.0000   1.0000   1.0000   1.0000   1.0000   1.0000   1.0000
     1.0000   1.0000   1.0000   1.0000   1.0000   1.0000   1.0000   1.0000
     1.0000   1.0000   1.0000   1.0000   1.0000   1.0000   1.0000   1.0000
     1.0000   1.0000   1.0000   1.0000   1.0000   1.0000   1.0000   1.0000
     1.0000   1.0000   1.0000   1.0000   1.0000   1.0000   1.0000   1.0000
     1.0000   1.0000   1.0000   1.0000   1.0000   1.0000   1.0000   1.0000
     1.0000   1.0000   1.0000   1.0000   1.0000   1.0000   1.0000   1.0000
     1.0000   1.0000   1.0000   1.0000   1.0001   1.0001   0.1488   0.0992
    -0.0354  -0.0352  -0.0142  -0.0124  -0.0024  -0.0018  -0.0000  -0.0000
    -0.0000  -0.0000  -0.0000  -0.0000  -0.0000  -0.0000

          k = 0.1250 0.1250 0.3750 (  5242 PWs)   bands (ev):

   -56.5003 -56.5003 -56.4900 -56.4900 -56.4742 -56.4742 -56.4716 -56.4716
   -28.5880 -28.5835 -28.5785 -28.5762 -28.5393 -28.5369 -28.5107 -28.5099
   -27.6353 -27.6307 -27.5784 -27.5724 -27.5641 -27.5503 -27.5424 -27.5329
   -27.5219 -27.4999 -27.4826 -27.4701 -27.4665 -27.4594 -27.4381 -27.4365
     3.8449   3.8451   5.2907   5.2918   7.5136   7.5159   8.3092   8.3136
     9.5585   9.5595  10.2044  10.2077  10.9213  10.9256  11.4071  11.4130
    11.7854  11.7888  12.2122  12.2159  12.7425  12.7482  12.9496  12.9572
    13.0589  13.0671  13.2282  13.2353  13.3263  13.3298  13.4312  13.4377
    13.6951  13.6980  13.9779  13.9853  14.3501  14.3700  14.8309  14.8636
    15.2467  15.2630  15.3192  15.3325  15.6114  15.6313  15.7692  15.7924
    16.1553  16.1647  16.3788  16.3932  17.3112  17.3347

     occupation numbers 
     1.0000   1.0000   1.0000   1.0000   1.0000   1.0000   1.0000   1.0000
     1.0000   1.0000   1.0000   1.0000   1.0000   1.0000   1.0000   1.0000
     1.0000   1.0000   1.0000   1.0000   1.0000   1.0000   1.0000   1.0000
     1.0000   1.0000   1.0000   1.0000   1.0000   1.0000   1.0000   1.0000
     1.0000   1.0000   1.0000   1.0000   1.0000   1.0000   1.0000   1.0000
     1.0000   1.0000   1.0000   1.0000   1.0000   1.0000   1.0000   1.0000
     1.0000   1.0000   1.0000   1.0000   1.0000   1.0000   1.0000   1.0000
     1.0000   1.0000   1.0000   1.0000   1.0000   1.0000   1.0000   1.0000
     1.0000   1.0000   1.0000   1.0000   1.0036   1.0047   0.8464   0.7689
    -0.0309  -0.0339  -0.0338  -0.0323  -0.0017  -0.0012  -0.0001  -0.0001
    -0.0000  -0.0000  -0.0000  -0.0000  -0.0000  -0.0000

          k = 0.1250 0.1250-0.5000 (  5254 PWs)   bands (ev):

   -56.4953 -56.4953 -56.4953 -56.4953 -56.4728 -56.4728 -56.4728 -56.4728
   -28.5848 -28.5848 -28.5793 -28.5793 -28.5255 -28.5255 -28.5226 -28.5226
   -27.6336 -27.6336 -27.5716 -27.5716 -27.5609 -27.5609 -27.5344 -27.5344
   -27.5138 -27.5138 -27.4754 -27.4754 -27.4642 -27.4642 -27.4370 -27.4370
     4.5144   4.5144   4.5150   4.5150   7.9205   7.9205   7.9267   7.9267
     9.8407   9.8407   9.8420   9.8420  11.1813  11.1813  11.1909  11.1909
    12.0271  12.0271  12.0308  12.0308  12.7787  12.7787  12.7915  12.7915
    13.1765  13.1765  13.1846  13.1846  13.3662  13.3662  13.3692  13.3692
    13.8490  13.8490  13.8551  13.8551  14.6289  14.6289  14.6610  14.6610
    15.2478  15.2478  15.2670  15.2670  15.6859  15.6859  15.7119  15.7119
    16.2254  16.2254  16.2356  16.2356  17.6159  17.6170

     occupation numbers 
     1.0000   1.0000   1.0000   1.0000   1.0000   1.0000   1.0000   1.0000
     1.0000   1.0000   1.0000   1.0000   1.0000   1.0000   1.0000   1.0000
     1.0000   1.0000   1.0000   1.0000   1.0000   1.0000   1.0000   1.0000
     1.0000   1.0000   1.0000   1.0000   1.0000   1.0000   1.0000   1.0000
     1.0000   1.0000   1.0000   1.0000   1.0000   1.0000   1.0000   1.0000
     1.0000   1.0000   1.0000   1.0000   1.0000   1.0000   1.0000   1.0000
     1.0000   1.0000   1.0000   1.0000   1.0000   1.0000   1.0000   1.0000
     1.0000   1.0000   1.0000   1.0000   1.0000   1.0000   1.0000   1.0000
     1.0000   1.0000   1.0000   1.0000   1.0354   1.0354   1.0317   1.0317
    -0.0312  -0.0312  -0.0343  -0.0343  -0.0005  -0.0005  -0.0003  -0.0003
    -0.0000  -0.0000  -0.0000  -0.0000  -0.0000  -0.0000

          k = 0.1250 0.2500 0.2500 (  5249 PWs)   bands (ev):

   -56.5020 -56.5020 -56.4867 -56.4867 -56.4760 -56.4760 -56.4715 -56.4715
   -28.5883 -28.5835 -28.5726 -28.5719 -28.5492 -28.5459 -28.5062 -28.5056
   -27.6316 -27.6283 -27.5839 -27.5753 -27.5563 -27.5521 -27.5456 -27.5437
   -27.5146 -27.5019 -27.4833 -27.4707 -27.4693 -27.4533 -27.4373 -27.4348
     3.6450   3.6451   6.0137   6.0181   6.9147   6.9210   8.2974   8.3011
     9.4087   9.4115  10.4288  10.4305  10.6907  10.6932  11.4597  11.4645
    11.9043  11.9068  12.3026  12.3044  12.6215  12.6279  12.9569  12.9633
    13.1180  13.1230  13.1943  13.2048  13.2835  13.2890  13.5802  13.5870
    13.7506  13.7582  13.9716  13.9807  14.2872  14.2942  15.0262  15.0434
    15.1605  15.1811  15.2869  15.2995  15.5011  15.5130  15.7224  15.7429
    16.1706  16.1815  16.5189  16.5314  17.1482  17.1888

     occupation numbers 
     1.0000   1.0000   1.0000   1.0000   1.0000   1.0000   1.0000   1.0000
     1.0000   1.0000   1.0000   1.0000   1.0000   1.0000   1.0000   1.0000
     1.0000   1.0000   1.0000   1.0000   1.0000   1.0000   1.0000   1.0000
     1.0000   1.0000   1.0000   1.0000   1.0000   1.0000   1.0000   1.0000
     1.0000   1.0000   1.0000   1.0000   1.0000   1.0000   1.0000   1.0000
     1.0000   1.0000   1.0000   1.0000   1.0000   1.0000   1.0000   1.0000
     1.0000   1.0000   1.0000   1.0000   1.0000   1.0000   1.0000   1.0000
     1.0000   1.0000   1.0000   1.0000   1.0000   1.0000   1.0000   1.0000
     1.0000   1.0000   1.0000   1.0000   1.0014   1.0016   0.2886   0.2421
     0.0230   0.0030  -0.0354  -0.0352  -0.0079  -0.0068  -0.0002  -0.0002
    -0.0000  -0.0000  -0.0000  -0.0000  -0.0000  -0.0000

          k = 0.1250 0.2500 0.3750 (  5246 PWs)   bands (ev):

   -56.4984 -56.4984 -56.4898 -56.4898 -56.4754 -56.4754 -56.4725 -56.4725
   -28.5853 -28.5813 -28.5748 -28.5731 -28.5407 -28.5385 -28.5165 -28.5157
   -27.6293 -27.6263 -27.5802 -27.5722 -27.5632 -27.5532 -27.5411 -27.5362
   -27.5195 -27.5092 -27.4851 -27.4783 -27.4648 -27.4531 -27.4356 -27.4333
     4.1384   4.1388   5.4911   5.4932   7.0394   7.0433   7.9717   7.9749
     9.4106   9.4130  10.1459  10.1483  11.0645  11.0677  11.5743  11.5801
    11.8044  11.8118  12.0658  12.0675  12.5159  12.5259  12.7887  12.7964
    13.2095  13.2148  13.2911  13.3035  13.3536  13.3592  13.6001  13.6094
    13.8638  13.8753  14.0974  14.1088  14.5030  14.5311  14.8383  14.8651
    15.0721  15.0818  15.1486  15.1621  15.5102  15.5229  15.6351  15.6578
    16.2043  16.2111  16.4455  16.4564  17.1789  17.2055

     occupation numbers 
     1.0000   1.0000   1.0000   1.0000   1.0000   1.0000   1.0000   1.0000
     1.0000   1.0000   1.0000   1.0000   1.0000   1.0000   1.0000   1.0000
     1.0000   1.0000   1.0000   1.0000   1.0000   1.0000   1.0000   1.0000
     1.0000   1.0000   1.0000   1.0000   1.0000   1.0000   1.0000   1.0000
     1.0000   1.0000   1.0000   1.0000   1.0000   1.0000   1.0000   1.0000
     1.0000   1.0000   1.0000   1.0000   1.0000   1.0000   1.0000   1.0000
     1.0000   1.0000   1.0000   1.0000   1.0000   1.0000   1.0000   1.0000
     1.0000   1.0000   1.0000   1.0000   1.0000   1.0000   1.0000   1.0000
     1.0000   1.0000   1.0000   1.0000   1.0202   1.0249   0.8300   0.7651
     0.1719   0.1504   0.0369   0.0212  -0.0071  -0.0060  -0.0012  -0.0008
    -0.0000  -0.0000  -0.0000  -0.0000  -0.0000  -0.0000

          k = 0.1250 0.2500-0.5000 (  5236 PWs)   bands (ev):

   -56.4941 -56.4941 -56.4941 -56.4941 -56.4740 -56.4740 -56.4740 -56.4740
   -28.5811 -28.5811 -28.5760 -28.5760 -28.5298 -28.5298 -28.5265 -28.5265
   -27.6267 -27.6267 -27.5760 -27.5760 -27.5595 -27.5595 -27.5325 -27.5325
   -27.5201 -27.5201 -27.4835 -27.4835 -27.4575 -27.4575 -27.4339 -27.4339
     4.7809   4.7809   4.7820   4.7820   7.4690   7.4690   7.4752   7.4752
     9.7445   9.7445   9.7470   9.7470  11.5283  11.5283  11.5358  11.5358
    11.7444  11.7444  11.7481  11.7481  12.6006  12.6006  12.6120  12.6120
    13.2934  13.2934  13.2996  13.2996  13.4711  13.4711  13.4827  13.4827
    14.0246  14.0246  14.0327  14.0327  14.6941  14.6941  14.7266  14.7266
    15.0684  15.0684  15.0848  15.0848  15.5582  15.5582  15.5817  15.5817
    16.3216  16.3216  16.3306  16.3306  17.3803  17.3829

     occupation numbers 
     1.0000   1.0000   1.0000   1.0000   1.0000   1.0000   1.0000   1.0000
     1.0000   1.0000   1.0000   1.0000   1.0000   1.0000   1.0000   1.0000
     1.0000   1.0000   1.0000   1.0000   1.0000   1.0000   1.0000   1.0000
     1.0000   1.0000   1.0000   1.0000   1.0000   1.0000   1.0000   1.0000
     1.0000   1.0000   1.0000   1.0000   1.0000   1.0000   1.0000   1.0000
     1.0000   1.0000   1.0000   1.0000   1.0000   1.0000   1.0000   1.0000
     1.0000   1.0000   1.0000   1.0000   1.0000   1.0000   1.0000   1.0000
     1.0000   1.0000   1.0000   1.0000   1.0000   1.0000   1.0000   1.0000
     1.0000   1.0000   1.0000   1.0000   1.0206   1.0206   1.0000   1.0000
     0.1803   0.1803   0.1440   0.1440  -0.0038  -0.0038  -0.0027  -0.0027
    -0.0000  -0.0000  -0.0000  -0.0000  -0.0000  -0.0000

          k = 0.1250 0.3750 0.3750 (  5251 PWs)   bands (ev):

   -56.4956 -56.4956 -56.4905 -56.4905 -56.4761 -56.4761 -56.4740 -56.4740
   -28.5809 -28.5777 -28.5725 -28.5717 -28.5396 -28.5378 -28.5249 -28.5238
   -27.6215 -27.6198 -27.5853 -27.5808 -27.5585 -27.5509 -27.5395 -27.5320
   -27.5232 -27.5144 -27.4945 -27.4893 -27.4551 -27.4466 -27.4355 -27.4325
     4.6022   4.6027   5.5963   5.5985   6.6181   6.6216   7.4193   7.4224
     9.5847   9.5872  10.2025  10.2058  10.9496  10.9516  11.5408  11.5432
    11.7643  11.7688  12.1101  12.1120  12.3543  12.3588  12.6185  12.6251
    13.1928  13.1984  13.3142  13.3193  13.5615  13.5702  13.7653  13.7814
    14.0199  14.0334  14.3003  14.3094  14.5631  14.5817  14.7924  14.8070
    14.8781  14.8831  14.9928  15.0226  15.4349  15.4356  15.5054  15.5172
    16.3040  16.3134  16.4792  16.4856  17.0668  17.0881

     occupation numbers 
     1.0000   1.0000   1.0000   1.0000   1.0000   1.0000   1.0000   1.0000
     1.0000   1.0000   1.0000   1.0000   1.0000   1.0000   1.0000   1.0000
     1.0000   1.0000   1.0000   1.0000   1.0000   1.0000   1.0000   1.0000
     1.0000   1.0000   1.0000   1.0000   1.0000   1.0000   1.0000   1.0000
     1.0000   1.0000   1.0000   1.0000   1.0000   1.0000   1.0000   1.0000
     1.0000   1.0000   1.0000   1.0000   1.0000   1.0000   1.0000   1.0000
     1.0000   1.0000   1.0000   1.0000   1.0000   1.0000   1.0000   1.0000
     1.0000   1.0000   1.0000   1.0000   1.0000   1.0000   1.0000   1.0000
     1.0000   1.0000   1.0017   1.0020   1.0301   1.0327   0.9199   0.8945
     0.7307   0.7169   0.3855   0.2985  -0.0160  -0.0159  -0.0075  -0.0065
    -0.0000  -0.0000  -0.0000  -0.0000  -0.0000  -0.0000

          k = 0.1250 0.3750-0.5000 (  5250 PWs)   bands (ev):

   -56.4926 -56.4926 -56.4926 -56.4926 -56.4754 -56.4754 -56.4754 -56.4754
   -28.5763 -28.5763 -28.5728 -28.5728 -28.5343 -28.5343 -28.5316 -28.5316
   -27.6163 -27.6163 -27.5881 -27.5881 -27.5529 -27.5529 -27.5330 -27.5330
   -27.5210 -27.5210 -27.4965 -27.4965 -27.4475 -27.4475 -27.4342 -27.4342
     5.1734   5.1734   5.1749   5.1749   6.8554   6.8554   6.8598   6.8598
     9.9264   9.9264   9.9295   9.9295  11.2684  11.2684  11.2704  11.2704
    11.8659  11.8659  11.8734  11.8734  12.4206  12.4206  12.4284  12.4284
    13.2931  13.2931  13.2969  13.2969  13.6819  13.6819  13.6960  13.6960
    14.2874  14.2874  14.2941  14.2941  14.6345  14.6345  14.6470  14.6470
    14.9028  14.9028  14.9217  14.9217  15.4325  15.4325  15.4482  15.4482
    16.4478  16.4478  16.4555  16.4555  17.0974  17.1020

     occupation numbers 
     1.0000   1.0000   1.0000   1.0000   1.0000   1.0000   1.0000   1.0000
     1.0000   1.0000   1.0000   1.0000   1.0000   1.0000   1.0000   1.0000
     1.0000   1.0000   1.0000   1.0000   1.0000   1.0000   1.0000   1.0000
     1.0000   1.0000   1.0000   1.0000   1.0000   1.0000   1.0000   1.0000
     1.0000   1.0000   1.0000   1.0000   1.0000   1.0000   1.0000   1.0000
     1.0000   1.0000   1.0000   1.0000   1.0000   1.0000   1.0000   1.0000
     1.0000   1.0000   1.0000   1.0000   1.0000   1.0000   1.0000   1.0000
     1.0000   1.0000   1.0000   1.0000   1.0000   1.0000   1.0000   1.0000
     1.0014   1.0014   1.0016   1.0016   1.0351   1.0351   1.0340   1.0340
     0.6610   0.6610   0.6045   0.6045  -0.0163  -0.0163  -0.0140  -0.0140
    -0.0000  -0.0000  -0.0000  -0.0000  -0.0000  -0.0000

          k = 0.1250-0.5000-0.5000 (  5276 PWs)   bands (ev):

   -56.4920 -56.4920 -56.4920 -56.4920 -56.4761 -56.4761 -56.4761 -56.4761
   -28.5728 -28.5728 -28.5727 -28.5727 -28.5353 -28.5353 -28.5351 -28.5351
   -27.6054 -27.6054 -27.6000 -27.6000 -27.5486 -27.5486 -27.5355 -27.5355
   -27.5178 -27.5178 -27.5042 -27.5042 -27.4414 -27.4414 -27.4368 -27.4368
     5.4490   5.4490   5.4500   5.4500   6.4889   6.4889   6.4908   6.4908
    10.0932  10.0932  10.0967  10.0967  11.0436  11.0436  11.0452  11.0452
    11.9600  11.9600  11.9623  11.9623  12.3355  12.3355  12.3380  12.3380
    13.2752  13.2752  13.2760  13.2760  13.8470  13.8470  13.8603  13.8603
    14.3466  14.3466  14.3521  14.3521  14.6316  14.6316  14.6481  14.6481
    14.8018  14.8018  14.8038  14.8038  15.3867  15.3867  15.3869  15.3869
    16.5221  16.5221  16.5236  16.5236  16.9725  16.9756

     occupation numbers 
     1.0000   1.0000   1.0000   1.0000   1.0000   1.0000   1.0000   1.0000
     1.0000   1.0000   1.0000   1.0000   1.0000   1.0000   1.0000   1.0000
     1.0000   1.0000   1.0000   1.0000   1.0000   1.0000   1.0000   1.0000
     1.0000   1.0000   1.0000   1.0000   1.0000   1.0000   1.0000   1.0000
     1.0000   1.0000   1.0000   1.0000   1.0000   1.0000   1.0000   1.0000
     1.0000   1.0000   1.0000   1.0000   1.0000   1.0000   1.0000   1.0000
     1.0000   1.0000   1.0000   1.0000   1.0000   1.0000   1.0000   1.0000
     1.0000   1.0000   1.0000   1.0000   1.0000   1.0000   1.0000   1.0000
     1.0034   1.0034   1.0037   1.0037   1.0353   1.0353   1.0339   1.0339
     0.9039   0.9039   0.9003   0.9003  -0.0238  -0.0238  -0.0238  -0.0238
    -0.0000  -0.0000  -0.0000  -0.0000  -0.0000  -0.0000

          k = 0.2500 0.2500 0.2500 (  5271 PWs)   bands (ev):

   -56.4998 -56.4998 -56.4871 -56.4871 -56.4770 -56.4770 -56.4723 -56.4723
   -28.5862 -28.5818 -28.5700 -28.5697 -28.5486 -28.5456 -28.5128 -28.5119
   -27.6285 -27.6248 -27.5830 -27.5710 -27.5589 -27.5559 -27.5464 -27.5438
   -27.5129 -27.5092 -27.4778 -27.4756 -27.4647 -27.4599 -27.4359 -27.4334
     3.9448   3.9449   6.0545   6.0612   6.7953   6.8054   8.0516   8.0525
     9.0668   9.0695  10.0629  10.0665  11.1547  11.1589  11.1989  11.1993
    11.9204  11.9218  12.3560  12.3576  12.8103  12.8169  12.8823  12.8831
    13.1337  13.1412  13.1424  13.1539  13.1856  13.1905  13.7588  13.7675
    13.7749  13.7871  14.0645  14.0719  14.4493  14.4665  14.9871  15.0032
    15.1308  15.1340  15.2673  15.2679  15.3071  15.3127  15.6158  15.6349
    16.1840  16.1922  16.4832  16.4945  17.1272  17.1570

     occupation numbers 
     1.0000   1.0000   1.0000   1.0000   1.0000   1.0000   1.0000   1.0000
     1.0000   1.0000   1.0000   1.0000   1.0000   1.0000   1.0000   1.0000
     1.0000   1.0000   1.0000   1.0000   1.0000   1.0000   1.0000   1.0000
     1.0000   1.0000   1.0000   1.0000   1.0000   1.0000   1.0000   1.0000
     1.0000   1.0000   1.0000   1.0000   1.0000   1.0000   1.0000   1.0000
     1.0000   1.0000   1.0000   1.0000   1.0000   1.0000   1.0000   1.0000
     1.0000   1.0000   1.0000   1.0000   1.0000   1.0000   1.0000   1.0000
     1.0000   1.0000   1.0000   1.0000   1.0000   1.0000   1.0000   1.0000
     1.0000   1.0000   1.0000   1.0000   1.0122   1.0145   0.4028   0.3545
     0.0613   0.0566  -0.0344  -0.0344  -0.0348  -0.0344  -0.0016  -0.0012
    -0.0000  -0.0000  -0.0000  -0.0000  -0.0000  -0.0000

          k = 0.2500 0.2500 0.3750 (  5265 PWs)   bands (ev):

   -56.4965 -56.4965 -56.4892 -56.4892 -56.4768 -56.4768 -56.4737 -56.4737
   -28.5822 -28.5786 -28.5712 -28.5699 -28.5431 -28.5409 -28.5223 -28.5211
   -27.6243 -27.6211 -27.5795 -27.5711 -27.5658 -27.5610 -27.5429 -27.5334
   -27.5236 -27.5103 -27.4817 -27.4717 -27.4668 -27.4580 -27.4357 -27.4329
     4.4230   4.4233   5.6842   5.6871   6.9127   6.9186   7.7718   7.7745
     8.9812   8.9850   9.7551   9.7590  11.0337  11.0367  11.5971  11.5998
    11.6777  11.6809  12.2581  12.2628  12.7419  12.7515  12.8775  12.8847
    13.1103  13.1223  13.2132  13.2244  13.2940  13.2981  13.6225  13.6303
    13.9386  13.9486  14.2623  14.2736  14.6155  14.6479  14.8455  14.8648
    15.0216  15.0319  15.1825  15.2087  15.3281  15.3430  15.5274  15.5442
    16.2236  16.2304  16.4138  16.4219  17.1218  17.1369

     occupation numbers 
     1.0000   1.0000   1.0000   1.0000   1.0000   1.0000   1.0000   1.0000
     1.0000   1.0000   1.0000   1.0000   1.0000   1.0000   1.0000   1.0000
     1.0000   1.0000   1.0000   1.0000   1.0000   1.0000   1.0000   1.0000
     1.0000   1.0000   1.0000   1.0000   1.0000   1.0000   1.0000   1.0000
     1.0000   1.0000   1.0000   1.0000   1.0000   1.0000   1.0000   1.0000
     1.0000   1.0000   1.0000   1.0000   1.0000   1.0000   1.0000   1.0000
     1.0000   1.0000   1.0000   1.0000   1.0000   1.0000   1.0000   1.0000
     1.0000   1.0000   1.0000   1.0000   1.0000   1.0000   1.0000   1.0000
     1.0000   1.0000   1.0009   1.0011   1.0354   1.0339   0.8134   0.7657
     0.3013   0.2727   0.0018  -0.0163  -0.0328  -0.0309  -0.0057  -0.0046
    -0.0000  -0.0000  -0.0000  -0.0000  -0.0000  -0.0000

          k = 0.2500 0.2500-0.5000 (  5244 PWs)   bands (ev):

   -56.4926 -56.4926 -56.4926 -56.4926 -56.4754 -56.4754 -56.4754 -56.4754
   -28.5775 -28.5775 -28.5727 -28.5727 -28.5343 -28.5343 -28.5305 -28.5305
   -27.6208 -27.6208 -27.5749 -27.5749 -27.5660 -27.5660 -27.5349 -27.5349
   -27.5196 -27.5196 -27.4786 -27.4786 -27.4601 -27.4601 -27.4343 -27.4343
     5.0372   5.0372   5.0384   5.0384   7.3198   7.3198   7.3258   7.3258
     9.3116   9.3116   9.3158   9.3158  11.2771  11.2771  11.2795  11.2795
    11.9768  11.9768  11.9850  11.9850  12.8039  12.8039  12.8141  12.8141
    13.1743  13.1743  13.1869  13.1869  13.4394  13.4394  13.4465  13.4465
    14.1688  14.1688  14.1784  14.1784  14.7509  14.7509  14.7782  14.7782
    15.0569  15.0569  15.0758  15.0758  15.4338  15.4338  15.4500  15.4500
    16.3130  16.3130  16.3226  16.3226  17.2586  17.2625

     occupation numbers 
     1.0000   1.0000   1.0000   1.0000   1.0000   1.0000   1.0000   1.0000
     1.0000   1.0000   1.0000   1.0000   1.0000   1.0000   1.0000   1.0000
     1.0000   1.0000   1.0000   1.0000   1.0000   1.0000   1.0000   1.0000
     1.0000   1.0000   1.0000   1.0000   1.0000   1.0000   1.0000   1.0000
     1.0000   1.0000   1.0000   1.0000   1.0000   1.0000   1.0000   1.0000
     1.0000   1.0000   1.0000   1.0000   1.0000   1.0000   1.0000   1.0000
     1.0000   1.0000   1.0000   1.0000   1.0000   1.0000   1.0000   1.0000
     1.0000   1.0000   1.0000   1.0000   1.0000   1.0000   1.0000   1.0000
     1.0002   1.0002   1.0002   1.0002   0.9768   0.9768   0.9419   0.9419
     0.2079   0.2079   0.1636   0.1636  -0.0161  -0.0161  -0.0138  -0.0138
    -0.0000  -0.0000  -0.0000  -0.0000  -0.0000  -0.0000

          k = 0.2500 0.3750 0.3750 (  5244 PWs)   bands (ev):

   -56.4937 -56.4937 -56.4892 -56.4892 -56.4777 -56.4777 -56.4754 -56.4754
   -28.5774 -28.5744 -28.5687 -28.5679 -28.5433 -28.5415 -28.5301 -28.5287
   -27.6170 -27.6142 -27.5826 -27.5776 -27.5668 -27.5623 -27.5443 -27.5330
   -27.5234 -27.5074 -27.4860 -27.4764 -27.4601 -27.4548 -27.4374 -27.4343
     4.8702   4.8708   5.7971   5.8010   6.6827   6.6895   7.3950   7.3982
     8.9595   8.9639   9.5736   9.5790  10.6890  10.6928  11.2076  11.2093
    12.0022  12.0050  12.4208  12.4249  12.6324  12.6379  12.8204  12.8262
    13.1291  13.1373  13.1828  13.1913  13.3832  13.3927  13.5845  13.5964
    14.1432  14.1518  14.4976  14.5147  14.6852  14.7087  14.8389  14.8578
    14.9347  14.9388  15.1322  15.1646  15.2765  15.2883  15.4327  15.4461
    16.2792  16.2867  16.4063  16.4107  16.9758  16.9860

     occupation numbers 
     1.0000   1.0000   1.0000   1.0000   1.0000   1.0000   1.0000   1.0000
     1.0000   1.0000   1.0000   1.0000   1.0000   1.0000   1.0000   1.0000
     1.0000   1.0000   1.0000   1.0000   1.0000   1.0000   1.0000   1.0000
     1.0000   1.0000   1.0000   1.0000   1.0000   1.0000   1.0000   1.0000
     1.0000   1.0000   1.0000   1.0000   1.0000   1.0000   1.0000   1.0000
     1.0000   1.0000   1.0000   1.0000   1.0000   1.0000   1.0000   1.0000
     1.0000   1.0000   1.0000   1.0000   1.0000   1.0000   1.0000   1.0000
     1.0000   1.0000   1.0000   1.0000   1.0000   1.0000   1.0000   1.0000
     1.0001   1.0001   1.0193   1.0221   1.0245   1.0126   0.8287   0.7834
     0.5648   0.5522   0.0592   0.0186  -0.0351  -0.0355  -0.0163  -0.0143
    -0.0000  -0.0000  -0.0000  -0.0000  -0.0000  -0.0000

          k = 0.2500 0.3750-0.5000 (  5254 PWs)   bands (ev):

   -56.4909 -56.4909 -56.4909 -56.4909 -56.4771 -56.4771 -56.4771 -56.4771
   -28.5725 -28.5725 -28.5691 -28.5691 -28.5389 -28.5389 -28.5360 -28.5360
   -27.6115 -27.6115 -27.5846 -27.5846 -27.5639 -27.5639 -27.5404 -27.5404
   -27.5129 -27.5129 -27.4841 -27.4841 -27.4540 -27.4540 -27.4372 -27.4372
     5.4126   5.4126   5.4144   5.4144   6.9222   6.9222   6.9275   6.9275
     9.2732   9.2732   9.2783   9.2783  10.7888  10.7888  10.7914  10.7914
    12.2812  12.2812  12.2898  12.2898  12.6866  12.6866  12.6940  12.6940
    13.1727  13.1727  13.1805  13.1805  13.4767  13.4767  13.4897  13.4897
    14.4074  14.4074  14.4162  14.4162  14.7934  14.7934  14.8109  14.8109
    14.9898  14.9898  15.0118  15.0118  15.3501  15.3501  15.3605  15.3605
    16.3679  16.3679  16.3750  16.3750  16.9877  16.9881

     occupation numbers 
     1.0000   1.0000   1.0000   1.0000   1.0000   1.0000   1.0000   1.0000
     1.0000   1.0000   1.0000   1.0000   1.0000   1.0000   1.0000   1.0000
     1.0000   1.0000   1.0000   1.0000   1.0000   1.0000   1.0000   1.0000
     1.0000   1.0000   1.0000   1.0000   1.0000   1.0000   1.0000   1.0000
     1.0000   1.0000   1.0000   1.0000   1.0000   1.0000   1.0000   1.0000
     1.0000   1.0000   1.0000   1.0000   1.0000   1.0000   1.0000   1.0000
     1.0000   1.0000   1.0000   1.0000   1.0000   1.0000   1.0000   1.0000
     1.0000   1.0000   1.0000   1.0000   1.0000   1.0000   1.0000   1.0000
     1.0076   1.0076   1.0085   1.0085   0.9183   0.9183   0.8871   0.8871
     0.3946   0.3946   0.3295   0.3295  -0.0298  -0.0298  -0.0282  -0.0282
    -0.0000  -0.0000  -0.0000  -0.0000  -0.0000  -0.0000

          k = 0.2500-0.5000-0.5000 (  5244 PWs)   bands (ev):

   -56.4901 -56.4901 -56.4901 -56.4901 -56.4780 -56.4780 -56.4780 -56.4780
   -28.5687 -28.5687 -28.5685 -28.5685 -28.5401 -28.5401 -28.5398 -28.5398
   -27.6027 -27.6027 -27.5941 -27.5941 -27.5618 -27.5618 -27.5431 -27.5431
   -27.5082 -27.5082 -27.4892 -27.4892 -27.4484 -27.4484 -27.4406 -27.4406
     5.6737   5.6737   5.6759   5.6759   6.6214   6.6214   6.6255   6.6255
     9.3823   9.3823   9.3877   9.3877  10.5099  10.5099  10.5131  10.5131
    12.4779  12.4779  12.4811  12.4811  12.5643  12.5643  12.5664  12.5664
    13.1161  13.1161  13.1164  13.1164  13.5554  13.5554  13.5683  13.5683
    14.5106  14.5106  14.5193  14.5193  14.8369  14.8369  14.8516  14.8516
    14.9384  14.9384  14.9394  14.9394  15.3121  15.3121  15.3150  15.3150
    16.4167  16.4167  16.4174  16.4174  16.8650  16.8656

     occupation numbers 
     1.0000   1.0000   1.0000   1.0000   1.0000   1.0000   1.0000   1.0000
     1.0000   1.0000   1.0000   1.0000   1.0000   1.0000   1.0000   1.0000
     1.0000   1.0000   1.0000   1.0000   1.0000   1.0000   1.0000   1.0000
     1.0000   1.0000   1.0000   1.0000   1.0000   1.0000   1.0000   1.0000
     1.0000   1.0000   1.0000   1.0000   1.0000   1.0000   1.0000   1.0000
     1.0000   1.0000   1.0000   1.0000   1.0000   1.0000   1.0000   1.0000
     1.0000   1.0000   1.0000   1.0000   1.0000   1.0000   1.0000   1.0000
     1.0000   1.0000   1.0000   1.0000   1.0000   1.0000   1.0000   1.0000
     1.0214   1.0214   1.0229   1.0229   0.8332   0.8332   0.7989   0.7989
     0.5535   0.5535   0.5503   0.5503  -0.0345  -0.0345  -0.0342  -0.0342
    -0.0000  -0.0000  -0.0000  -0.0000  -0.0000  -0.0000

          k = 0.3750 0.3750 0.3750 (  5256 PWs)   bands (ev):

   -56.4911 -56.4911 -56.4880 -56.4880 -56.4795 -56.4795 -56.4775 -56.4775
   -28.5722 -28.5696 -28.5645 -28.5643 -28.5465 -28.5450 -28.5373 -28.5357
   -27.6098 -27.6070 -27.5817 -27.5755 -27.5748 -27.5726 -27.5476 -27.5415
   -27.5130 -27.5014 -27.4805 -27.4662 -27.4637 -27.4614 -27.4412 -27.4388
     5.2851   5.2860   6.0004   6.0066   6.6318   6.6416   7.1894   7.1928
     8.7566   8.7623   9.2632   9.2705  10.1962  10.2012  10.6470  10.6493
    12.3235  12.3266  12.5918  12.5961  12.7695  12.7729  12.8680  12.8698
    13.1098  13.1201  13.1698  13.1750  13.2716  13.2720  13.3959  13.4006
    14.3629  14.3656  14.7240  14.7446  14.7853  14.7934  14.9242  14.9589
    15.0682  15.0747  15.0991  15.1045  15.2550  15.2854  15.3097  15.3312
    16.2870  16.2946  16.3606  16.3624  16.8127  16.8170

     occupation numbers 
     1.0000   1.0000   1.0000   1.0000   1.0000   1.0000   1.0000   1.0000
     1.0000   1.0000   1.0000   1.0000   1.0000   1.0000   1.0000   1.0000
     1.0000   1.0000   1.0000   1.0000   1.0000   1.0000   1.0000   1.0000
     1.0000   1.0000   1.0000   1.0000   1.0000   1.0000   1.0000   1.0000
[...]
   -28.5889 -28.5841 -28.5803 -28.5777 -28.5384 -28.5360 -28.5087 -28.5078
   -27.6376 -27.6322 -27.5778 -27.5749 -27.5643 -27.5474 -27.5421 -27.5302
   -27.5238 -27.4944 -27.4856 -27.4720 -27.4630 -27.4571 -27.4413 -27.4384
     3.7450   3.7451   5.2139   5.2144   7.6685   7.6709   8.4239   8.4308
     9.7498   9.7526  10.2957  10.3017  10.9495  10.9565  10.9943  10.9974
    11.9118  11.9155  12.2304  12.2352  12.8386  12.8467  13.0355  13.0384
    13.0612  13.0633  13.1353  13.1405  13.2988  13.3032  13.3912  13.3968
    13.5804  13.5805  13.9431  13.9500  14.2823  14.2987  14.8153  14.8493
    15.3100  15.3259  15.3860  15.4046  15.6850  15.7129  15.8039  15.8285
    16.1494  16.1627  16.3445  16.3593  17.3399  17.3591

     occupation numbers 
     1.0000   1.0000   1.0000   1.0000   1.0000   1.0000   1.0000   1.0000
     1.0000   1.0000   1.0000   1.0000   1.0000   1.0000   1.0000   1.0000
     1.0000   1.0000   1.0000   1.0000   1.0000   1.0000   1.0000   1.0000
     1.0000   1.0000   1.0000   1.0000   1.0000   1.0000   1.0000   1.0000
     1.0000   1.0000   1.0000   1.0000   1.0000   1.0000   1.0000   1.0000
     1.0000   1.0000   1.0000   1.0000   1.0000   1.0000   1.0000   1.0000
     1.0000   1.0000   1.0000   1.0000   1.0000   1.0000   1.0000   1.0000
     1.0000   1.0000   1.0000   1.0000   1.0000   1.0000   1.0000   1.0000
     1.0000   1.0000   1.0000   1.0000   1.0013   1.0017   0.8786   0.8043
    -0.0346  -0.0331  -0.0239  -0.0208  -0.0005  -0.0003  -0.0000  -0.0000
    -0.0000  -0.0000  -0.0000  -0.0000  -0.0000  -0.0000

          k = 0.0000-0.5000 0.1250 (  5268 PWs)   bands (ev):

   -56.4958 -56.4958 -56.4958 -56.4958 -56.4723 -56.4723 -56.4723 -56.4723
   -28.5862 -28.5862 -28.5806 -28.5806 -28.5237 -28.5237 -28.5214 -28.5214
   -27.6360 -27.6360 -27.5722 -27.5722 -27.5594 -27.5594 -27.5352 -27.5352
   -27.5096 -27.5096 -27.4781 -27.4781 -27.4614 -27.4614 -27.4396 -27.4396
     4.4221   4.4221   4.4225   4.4225   8.0598   8.0598   8.0652   8.0652
    10.0566  10.0566  10.0614  10.0614  10.8864  10.8864  10.8950  10.8950
    12.1690  12.1690  12.1739  12.1739  12.8621  12.8621  12.8693  12.8693
    13.1018  13.1018  13.1074  13.1074  13.3094  13.3094  13.3167  13.3167
    13.7936  13.7936  13.7981  13.7981  14.5912  14.5912  14.6212  14.6212
    15.3213  15.3213  15.3421  15.3421  15.7338  15.7338  15.7628  15.7628
    16.1930  16.1930  16.2052  16.2052  17.6050  17.6056

     occupation numbers 
     1.0000   1.0000   1.0000   1.0000   1.0000   1.0000   1.0000   1.0000
     1.0000   1.0000   1.0000   1.0000   1.0000   1.0000   1.0000   1.0000
     1.0000   1.0000   1.0000   1.0000   1.0000   1.0000   1.0000   1.0000
     1.0000   1.0000   1.0000   1.0000   1.0000   1.0000   1.0000   1.0000
     1.0000   1.0000   1.0000   1.0000   1.0000   1.0000   1.0000   1.0000
     1.0000   1.0000   1.0000   1.0000   1.0000   1.0000   1.0000   1.0000
     1.0000   1.0000   1.0000   1.0000   1.0000   1.0000   1.0000   1.0000
     1.0000   1.0000   1.0000   1.0000   1.0000   1.0000   1.0000   1.0000
     1.0000   1.0000   1.0000   1.0000   1.0337   1.0337   1.0355   1.0355
    -0.0336  -0.0336  -0.0310  -0.0310  -0.0002  -0.0002  -0.0001  -0.0001
    -0.0000  -0.0000  -0.0000  -0.0000  -0.0000  -0.0000

          k = 0.0000 0.3750 0.2500 (  5259 PWs)   bands (ev):

   -56.4991 -56.4991 -56.4902 -56.4902 -56.4748 -56.4748 -56.4721 -56.4721
   -28.5863 -28.5823 -28.5762 -28.5747 -28.5399 -28.5373 -28.5147 -28.5137
   -27.6312 -27.6284 -27.5791 -27.5751 -27.5603 -27.5519 -27.5417 -27.5332
   -27.5224 -27.5025 -27.4907 -27.4830 -27.4622 -27.4494 -27.4366 -27.4340
     4.0411   4.0414   5.4171   5.4178   7.0485   7.0494   8.0214   8.0260
     9.9598   9.9631  10.2699  10.2752  10.9117  10.9155  11.0728  11.0748
    11.9257  11.9301  12.2416  12.2453  12.5549  12.5590  12.7990  12.8040
    13.1009  13.1074  13.3337  13.3386  13.5328  13.5378  13.6287  13.6350
    13.7287  13.7398  13.9991  14.0104  14.4342  14.4583  14.8084  14.8396
    15.1064  15.1249  15.1505  15.1683  15.5625  15.5893  15.6556  15.6838
    16.1895  16.1991  16.4156  16.4267  17.2863  17.3172

     occupation numbers 
     1.0000   1.0000   1.0000   1.0000   1.0000   1.0000   1.0000   1.0000
     1.0000   1.0000   1.0000   1.0000   1.0000   1.0000   1.0000   1.0000
     1.0000   1.0000   1.0000   1.0000   1.0000   1.0000   1.0000   1.0000
     1.0000   1.0000   1.0000   1.0000   1.0000   1.0000   1.0000   1.0000
     1.0000   1.0000   1.0000   1.0000   1.0000   1.0000   1.0000   1.0000
     1.0000   1.0000   1.0000   1.0000   1.0000   1.0000   1.0000   1.0000
     1.0000   1.0000   1.0000   1.0000   1.0000   1.0000   1.0000   1.0000
     1.0000   1.0000   1.0000   1.0000   1.0000   1.0000   1.0000   1.0000
     1.0000   1.0000   1.0000   1.0000   1.0104   1.0134   0.8917   0.8270
     0.1017   0.0703   0.0347   0.0148  -0.0035  -0.0024  -0.0008  -0.0005
    -0.0000  -0.0000  -0.0000  -0.0000  -0.0000  -0.0000

          k = 0.0000-0.5000 0.2500 (  5242 PWs)   bands (ev):

   -56.4946 -56.4946 -56.4946 -56.4946 -56.4735 -56.4735 -56.4735 -56.4735
   -28.5825 -28.5825 -28.5773 -28.5773 -28.5282 -28.5282 -28.5249 -28.5249
   -27.6291 -27.6291 -27.5762 -27.5762 -27.5569 -27.5569 -27.5336 -27.5336
   -27.5173 -27.5173 -27.4881 -27.4881 -27.4545 -27.4545 -27.4345 -27.4345
     4.6915   4.6915   4.6922   4.6922   7.4874   7.4874   7.4908   7.4908
    10.2662  10.2662  10.2708  10.2708  10.8451  10.8451  10.8495  10.8495
    12.0956  12.0956  12.1012  12.1012  12.6613  12.6613  12.6718  12.6718
    13.1888  13.1888  13.1960  13.1960  13.6633  13.6633  13.6729  13.6729
    13.8556  13.8556  13.8628  13.8628  14.6387  14.6387  14.6719  14.6719
    15.0922  15.0922  15.1188  15.1188  15.5715  15.5715  15.5985  15.5985
    16.2866  16.2866  16.2978  16.2978  17.4788  17.4798

     occupation numbers 
     1.0000   1.0000   1.0000   1.0000   1.0000   1.0000   1.0000   1.0000
     1.0000   1.0000   1.0000   1.0000   1.0000   1.0000   1.0000   1.0000
     1.0000   1.0000   1.0000   1.0000   1.0000   1.0000   1.0000   1.0000
     1.0000   1.0000   1.0000   1.0000   1.0000   1.0000   1.0000   1.0000
     1.0000   1.0000   1.0000   1.0000   1.0000   1.0000   1.0000   1.0000
     1.0000   1.0000   1.0000   1.0000   1.0000   1.0000   1.0000   1.0000
     1.0000   1.0000   1.0000   1.0000   1.0000   1.0000   1.0000   1.0000
     1.0000   1.0000   1.0000   1.0000   1.0000   1.0000   1.0000   1.0000
     1.0000   1.0000   1.0000   1.0000   1.0349   1.0349   1.0290   1.0290
     0.1289   0.1289   0.0802   0.0802  -0.0031  -0.0031  -0.0021  -0.0021
    -0.0000  -0.0000  -0.0000  -0.0000  -0.0000  -0.0000

          k = 0.0000-0.5000 0.3750 (  5258 PWs)   bands (ev):

   -56.4932 -56.4932 -56.4932 -56.4932 -56.4748 -56.4748 -56.4748 -56.4748
   -28.5777 -28.5777 -28.5742 -28.5742 -28.5327 -28.5327 -28.5299 -28.5299
   -27.6182 -27.6182 -27.5891 -27.5891 -27.5473 -27.5473 -27.5316 -27.5316
   -27.5221 -27.5221 -27.5035 -27.5035 -27.4445 -27.4445 -27.4336 -27.4336
     5.0899   5.0899   5.0907   5.0907   6.8143   6.8143   6.8164   6.8164
    10.6244  10.6244  10.6267  10.6267  10.8531  10.8531  10.8566  10.8566
    11.8735  11.8735  11.8768  11.8768  12.3354  12.3354  12.3432  12.3432
    13.3026  13.3026  13.3081  13.3081  13.9499  13.9499  13.9565  13.9565
    14.0794  14.0794  14.0874  14.0874  14.6225  14.6225  14.6544  14.6544
    14.8231  14.8231  14.8633  14.8633  15.4482  15.4482  15.4673  15.4673
    16.4458  16.4458  16.4580  16.4580  17.1909  17.1977

     occupation numbers 
     1.0000   1.0000   1.0000   1.0000   1.0000   1.0000   1.0000   1.0000
     1.0000   1.0000   1.0000   1.0000   1.0000   1.0000   1.0000   1.0000
     1.0000   1.0000   1.0000   1.0000   1.0000   1.0000   1.0000   1.0000
     1.0000   1.0000   1.0000   1.0000   1.0000   1.0000   1.0000   1.0000
     1.0000   1.0000   1.0000   1.0000   1.0000   1.0000   1.0000   1.0000
     1.0000   1.0000   1.0000   1.0000   1.0000   1.0000   1.0000   1.0000
     1.0000   1.0000   1.0000   1.0000   1.0000   1.0000   1.0000   1.0000
     1.0000   1.0000   1.0000   1.0000   1.0000   1.0000   1.0000   1.0000
     1.0000   1.0000   1.0000   1.0000   1.0355   1.0355   1.0330   1.0330
     0.8629   0.8629   0.7696   0.7696  -0.0140  -0.0140  -0.0115  -0.0115
    -0.0000  -0.0000  -0.0000  -0.0000  -0.0000  -0.0000

          k =-0.1250 0.3750 0.2500 (  5246 PWs)   bands (ev):

   -56.4984 -56.4984 -56.4898 -56.4898 -56.4754 -56.4754 -56.4725 -56.4725
   -28.5853 -28.5813 -28.5747 -28.5731 -28.5408 -28.5384 -28.5167 -28.5156
   -27.6293 -27.6264 -27.5791 -27.5733 -27.5619 -27.5542 -27.5412 -27.5362
   -27.5190 -27.5098 -27.4846 -27.4784 -27.4649 -27.4529 -27.4356 -27.4334
     4.1383   4.1386   5.4907   5.4922   7.0415   7.0442   7.9717   7.9760
     9.4177   9.4203  10.2019  10.2033  10.9150  10.9165  11.5452  11.5488
    11.7470  11.7491  12.1895  12.1932  12.6588  12.6633  12.8610  12.8665
    13.0840  13.0886  13.2591  13.2709  13.4140  13.4171  13.6462  13.6575
    13.7961  13.8050  14.0780  14.0870  14.4885  14.5154  14.8201  14.8480
    15.0863  15.1055  15.1655  15.1831  15.4861  15.4981  15.6256  15.6440
    16.1973  16.2056  16.4182  16.4297  17.2562  17.2858

     occupation numbers 
     1.0000   1.0000   1.0000   1.0000   1.0000   1.0000   1.0000   1.0000
     1.0000   1.0000   1.0000   1.0000   1.0000   1.0000   1.0000   1.0000
     1.0000   1.0000   1.0000   1.0000   1.0000   1.0000   1.0000   1.0000
     1.0000   1.0000   1.0000   1.0000   1.0000   1.0000   1.0000   1.0000
     1.0000   1.0000   1.0000   1.0000   1.0000   1.0000   1.0000   1.0000
     1.0000   1.0000   1.0000   1.0000   1.0000   1.0000   1.0000   1.0000
     1.0000   1.0000   1.0000   1.0000   1.0000   1.0000   1.0000   1.0000
     1.0000   1.0000   1.0000   1.0000   1.0000   1.0000   1.0000   1.0000
     1.0000   1.0000   1.0000   1.0000   1.0178   1.0222   0.8691   0.8075
     0.1410   0.1033   0.0177   0.0013  -0.0094  -0.0082  -0.0014  -0.0010
    -0.0000  -0.0000  -0.0000  -0.0000  -0.0000  -0.0000

          k =-0.1250-0.5000 0.2500 (  5236 PWs)   bands (ev):

   -56.4941 -56.4941 -56.4941 -56.4941 -56.4740 -56.4740 -56.4740 -56.4740
   -28.5811 -28.5811 -28.5760 -28.5760 -28.5299 -28.5299 -28.5264 -28.5264
   -27.6269 -27.6269 -27.5751 -27.5751 -27.5603 -27.5603 -27.5323 -27.5323
   -27.5204 -27.5204 -27.4834 -27.4834 -27.4574 -27.4574 -27.4339 -27.4339
     4.7806   4.7806   4.7815   4.7815   7.4713   7.4713   7.4758   7.4758
     9.7735   9.7735   9.7746   9.7746  11.2723  11.2723  11.2773  11.2773
    11.9374  11.9374  11.9424  11.9424  12.7545  12.7545  12.7645  12.7645
    13.1589  13.1589  13.1676  13.1676  13.5601  13.5601  13.5684  13.5684
    13.9636  13.9636  13.9730  13.9730  14.6800  14.6800  14.7134  14.7134
    15.0803  15.0803  15.1053  15.1053  15.5333  15.5333  15.5552  15.5552
    16.2907  16.2907  16.3013  16.3013  17.4704  17.4705

     occupation numbers 
     1.0000   1.0000   1.0000   1.0000   1.0000   1.0000   1.0000   1.0000
     1.0000   1.0000   1.0000   1.0000   1.0000   1.0000   1.0000   1.0000
     1.0000   1.0000   1.0000   1.0000   1.0000   1.0000   1.0000   1.0000
     1.0000   1.0000   1.0000   1.0000   1.0000   1.0000   1.0000   1.0000
     1.0000   1.0000   1.0000   1.0000   1.0000   1.0000   1.0000   1.0000
     1.0000   1.0000   1.0000   1.0000   1.0000   1.0000   1.0000   1.0000
     1.0000   1.0000   1.0000   1.0000   1.0000   1.0000   1.0000   1.0000
     1.0000   1.0000   1.0000   1.0000   1.0000   1.0000   1.0000   1.0000
     1.0000   1.0000   1.0000   1.0000   1.0264   1.0264   1.0096   1.0096
     0.1538   0.1538   0.1037   0.1037  -0.0053  -0.0053  -0.0039  -0.0039
    -0.0000  -0.0000  -0.0000  -0.0000  -0.0000  -0.0000

          k =-0.1250-0.5000 0.3750 (  5250 PWs)   bands (ev):

   -56.4926 -56.4926 -56.4926 -56.4926 -56.4754 -56.4754 -56.4754 -56.4754
   -28.5763 -28.5763 -28.5728 -28.5728 -28.5344 -28.5344 -28.5315 -28.5315
   -27.6165 -27.6165 -27.5876 -27.5876 -27.5533 -27.5533 -27.5326 -27.5326
   -27.5216 -27.5216 -27.4962 -27.4962 -27.4474 -27.4474 -27.4342 -27.4342
     5.1731   5.1731   5.1742   5.1742   6.8573   6.8573   6.8601   6.8601
     9.9478   9.9478   9.9504   9.9504  11.1551  11.1551  11.1583  11.1583
    11.9553  11.9553  11.9607  11.9607  12.4575  12.4575  12.4667  12.4667
    13.2329  13.2329  13.2388  13.2388  13.7803  13.7803  13.7933  13.7933
    14.1922  14.1922  14.2007  14.2007  14.6783  14.6783  14.7052  14.7052
    14.8680  14.8680  14.9067  14.9067  15.4189  15.4189  15.4352  15.4352
    16.4144  16.4144  16.4257  16.4257  17.1514  17.1595

     occupation numbers 
     1.0000   1.0000   1.0000   1.0000   1.0000   1.0000   1.0000   1.0000
     1.0000   1.0000   1.0000   1.0000   1.0000   1.0000   1.0000   1.0000
     1.0000   1.0000   1.0000   1.0000   1.0000   1.0000   1.0000   1.0000
     1.0000   1.0000   1.0000   1.0000   1.0000   1.0000   1.0000   1.0000
     1.0000   1.0000   1.0000   1.0000   1.0000   1.0000   1.0000   1.0000
     1.0000   1.0000   1.0000   1.0000   1.0000   1.0000   1.0000   1.0000
     1.0000   1.0000   1.0000   1.0000   1.0000   1.0000   1.0000   1.0000
     1.0000   1.0000   1.0000   1.0000   1.0000   1.0000   1.0000   1.0000
     1.0003   1.0003   1.0003   1.0003   1.0270   1.0270   1.0148   1.0148
     0.7575   0.7575   0.6494   0.6494  -0.0184  -0.0184  -0.0159  -0.0159
    -0.0000  -0.0000  -0.0000  -0.0000  -0.0000  -0.0000

          k =-0.2500-0.5000 0.3750 (  5254 PWs)   bands (ev):

   -56.4909 -56.4909 -56.4909 -56.4909 -56.4771 -56.4771 -56.4771 -56.4771
   -28.5725 -28.5725 -28.5691 -28.5691 -28.5390 -28.5390 -28.5360 -28.5360
   -27.6115 -27.6115 -27.5844 -27.5844 -27.5641 -27.5641 -27.5404 -27.5404
   -27.5130 -27.5130 -27.4841 -27.4841 -27.4540 -27.4540 -27.4372 -27.4372
     5.4125   5.4125   5.4141   5.4141   6.9230   6.9230   6.9276   6.9276
     9.2757   9.2757   9.2804   9.2804  10.7790  10.7790  10.7816  10.7816
    12.2803  12.2803  12.2885  12.2885  12.7226  12.7226  12.7326  12.7326
    13.1103  13.1103  13.1193  13.1193  13.5283  13.5283  13.5400  13.5400
    14.3821  14.3821  14.3893  14.3893  14.7993  14.7993  14.8176  14.8176
    14.9961  14.9961  15.0277  15.0277  15.3359  15.3359  15.3500  15.3500
    16.3570  16.3570  16.3668  16.3669  17.0047  17.0062

     occupation numbers 
     1.0000   1.0000   1.0000   1.0000   1.0000   1.0000   1.0000   1.0000
     1.0000   1.0000   1.0000   1.0000   1.0000   1.0000   1.0000   1.0000
     1.0000   1.0000   1.0000   1.0000   1.0000   1.0000   1.0000   1.0000
     1.0000   1.0000   1.0000   1.0000   1.0000   1.0000   1.0000   1.0000
     1.0000   1.0000   1.0000   1.0000   1.0000   1.0000   1.0000   1.0000
     1.0000   1.0000   1.0000   1.0000   1.0000   1.0000   1.0000   1.0000
     1.0000   1.0000   1.0000   1.0000   1.0000   1.0000   1.0000   1.0000
     1.0000   1.0000   1.0000   1.0000   1.0000   1.0000   1.0000   1.0000
     1.0056   1.0056   1.0061   1.0061   0.9082   0.9082   0.8740   0.8740
     0.3756   0.3756   0.2844   0.2844  -0.0319  -0.0319  -0.0298  -0.0298
    -0.0000  -0.0000  -0.0000  -0.0000  -0.0000  -0.0000

     the Fermi energy is    14.9556 ev

!    total energy              =   -1180.33346141 Ry

     total all-electron energy =    -10727.794298 Ry
     estimated scf accuracy    <       0.00000025 Ry
     smearing contrib. (-TS)   =      -0.00080810 Ry
     internal energy E=F+TS    =   -1180.33265331 Ry

     The total energy is F=E-TS. E is the sum of the following terms:
     one-electron contribution =    -336.78836400 Ry
     hartree contribution      =     207.03451192 Ry
     xc contribution           =    -114.35425633 Ry
     ewald contribution        =    -496.51183961 Ry
     one-center paw contrib.   =    -439.71270529 Ry
      -> PAW hartree energy AE =     126.52097054 Ry
      -> PAW hartree energy PS =    -125.55657978 Ry
      -> PAW xc energy AE      =     -96.21495230 Ry
      -> PAW xc energy PS      =      20.91259280 Ry
      -> total E_H with PAW    =     207.99890268 Ry
      -> total E_XC with PAW   =    -189.65661583 Ry

     convergence has been achieved in   8 iterations

     Writing output data file /zfs_data/vergnior/martin/Scratch/OAL/CrSi/convergence/cutoff/8x8x8/60/tmp/CrSi.save/
 
     init_run     :      4.41s CPU      4.60s WALL (       1 calls)
     electrons    :    123.44s CPU    127.05s WALL (       1 calls)

     Called by init_run:
     wfcinit      :      3.67s CPU      3.80s WALL (       1 calls)
     wfcinit:atom :      0.03s CPU      0.03s WALL (      45 calls)
     wfcinit:wfcr :      3.51s CPU      3.64s WALL (      45 calls)
     potinit      :      0.15s CPU      0.16s WALL (       1 calls)
     hinit0       :      0.14s CPU      0.14s WALL (       1 calls)

     Called by electrons:
     c_bands      :    102.96s CPU    105.46s WALL (       9 calls)
     sum_band     :     16.60s CPU     17.37s WALL (       9 calls)
     v_of_rho     :      0.09s CPU      0.09s WALL (       9 calls)
     v_h          :      0.01s CPU      0.01s WALL (       9 calls)
     v_xc         :      0.08s CPU      0.09s WALL (       9 calls)
     newd         :      3.02s CPU      3.33s WALL (       9 calls)
     PAW_pot      :      1.11s CPU      1.14s WALL (       9 calls)
     mix_rho      :      0.06s CPU      0.07s WALL (       9 calls)

     Called by c_bands:
     init_us_2    :      0.41s CPU      0.44s WALL (     855 calls)
     cegterg      :     94.54s CPU     96.97s WALL (     405 calls)

     Called by sum_band:
     sum_band:wei :      0.06s CPU      0.06s WALL (       9 calls)
     sum_band:loo :     14.84s CPU     15.22s WALL (       9 calls)
     sum_band:buf :      0.15s CPU      0.17s WALL (     405 calls)
     sum_band:ini :      0.19s CPU      0.21s WALL (     405 calls)
     sum_band:cal :      1.33s CPU      1.34s WALL (     405 calls)
     sum_band:bec :      5.16s CPU      5.17s WALL (     405 calls)
     addusdens    :      1.62s CPU      2.00s WALL (       9 calls)
     addusd:skk   :      0.00s CPU      0.00s WALL (      18 calls)
     addusd:dgemm :      0.63s CPU      1.01s WALL (      18 calls)
     addusd:qvan2 :      0.95s CPU      0.96s WALL (      18 calls)

     Called by *egterg:
     cdiaghg      :     15.44s CPU     15.54s WALL (    2199 calls)
     cegterg:over :      4.40s CPU      4.43s WALL (    1839 calls)
     cegterg:upda :      2.30s CPU      2.31s WALL (    1839 calls)
     cegterg:last :      4.18s CPU      4.20s WALL (    1112 calls)
     h_psi        :     56.43s CPU     58.76s WALL (    2289 calls)
     s_psi        :     12.78s CPU     12.84s WALL (    2289 calls)
     g_psi        :      0.16s CPU      0.17s WALL (    1839 calls)

     Called by h_psi:
     h_psi:calbec :      4.59s CPU      4.67s WALL (    2289 calls)
     vloc_psi     :     39.76s CPU     41.94s WALL (    2289 calls)
     add_vuspsi   :     11.80s CPU     11.87s WALL (    2289 calls)

     General routines
     calbec       :      5.91s CPU      6.00s WALL (    2694 calls)
     fft          :      0.07s CPU      0.08s WALL (     188 calls)
     ffts         :      0.01s CPU      0.01s WALL (      72 calls)
     fftw         :     36.88s CPU     38.84s WALL (  542144 calls)
     interpolate  :      0.02s CPU      0.02s WALL (      36 calls)
 
     Parallel routines
     fft_scatt_xy :      4.32s CPU      4.56s WALL (  542404 calls)
     fft_scatt_yz :     20.88s CPU     21.95s WALL (  542404 calls)

     PAW routines
     PAW_pot      :      1.11s CPU      1.14s WALL (       9 calls)
     PAW_symme    :      0.02s CPU      0.02s WALL (      18 calls)
 
     PWSCF        :   2m10.89s CPU   2m15.86s WALL

 
   This run was terminated on:  18:59:51  30Jul2021            

=------------------------------------------------------------------------------=
   JOB DONE.
=------------------------------------------------------------------------------=
