MPI startup(): Warning: I_MPI_PMI_LIBRARY will be ignored since the hydra process manager was found
MPI startup(): Warning: I_MPI_PMI_LIBRARY will be ignored since the hydra process manager was found
MPI startup(): Warning: I_MPI_PMI_LIBRARY will be ignored since the hydra process manager was found
MPI startup(): Warning: I_MPI_PMI_LIBRARY will be ignored since the hydra process manager was found
MPI startup(): Warning: I_MPI_PMI_LIBRARY will be ignored since the hydra process manager was found
MPI startup(): Warning: I_MPI_PMI_LIBRARY will be ignored since the hydra process manager was found
MPI startup(): Warning: I_MPI_PMI_LIBRARY will be ignored since the hydra process manager was found
MPI startup(): Warning: I_MPI_PMI_LIBRARY will be ignored since the hydra process manager was found
MPI startup(): Warning: I_MPI_PMI_LIBRARY will be ignored since the hydra process manager was found
MPI startup(): Warning: I_MPI_PMI_LIBRARY will be ignored since the hydra process manager was found
MPI startup(): Warning: I_MPI_PMI_LIBRARY will be ignored since the hydra process manager was found
MPI startup(): Warning: I_MPI_PMI_LIBRARY will be ignored since the hydra process manager was found
MPI startup(): Warning: I_MPI_PMI_LIBRARY will be ignored since the hydra process manager was found
MPI startup(): Warning: I_MPI_PMI_LIBRARY will be ignored since the hydra process manager was found
MPI startup(): Warning: I_MPI_PMI_LIBRARY will be ignored since the hydra process manager was found
MPI startup(): Warning: I_MPI_PMI_LIBRARY will be ignored since the hydra process manager was found
MPI startup(): Warning: I_MPI_PMI_LIBRARY will be ignored since the hydra process manager was found
MPI startup(): Warning: I_MPI_PMI_LIBRARY will be ignored since the hydra process manager was found
MPI startup(): Warning: I_MPI_PMI_LIBRARY will be ignored since the hydra process manager was found
MPI startup(): Warning: I_MPI_PMI_LIBRARY will be ignored since the hydra process manager was found
MPI startup(): Warning: I_MPI_PMI_LIBRARY will be ignored since the hydra process manager was found
MPI startup(): Warning: I_MPI_PMI_LIBRARY will be ignored since the hydra process manager was found
MPI startup(): Warning: I_MPI_PMI_LIBRARY will be ignored since the hydra process manager was found
MPI startup(): Warning: I_MPI_PMI_LIBRARY will be ignored since the hydra process manager was found

     Program PWSCF v.6.7MaX starts on  1Aug2021 at 12:35:54 

     This program is part of the open-source Quantum ESPRESSO suite
     for quantum simulation of materials; please cite
         "P. Giannozzi et al., J. Phys.:Condens. Matter 21 395502 (2009);
         "P. Giannozzi et al., J. Phys.:Condens. Matter 29 465901 (2017);
          URL http://www.quantum-espresso.org", 
     in publications or presentations arising from this work. More details at
     http://www.quantum-espresso.org/quote

     Parallel version (MPI), running on    24 processors

     MPI processes distributed on     1 nodes
     R & G space division:  proc/nbgrp/npool/nimage =      24
     Waiting for input...
     Reading input from standard input

     Current dimensions of program PWSCF are:
     Max number of different atomic species (ntypx) = 10
     Max number of k-points (npk) =  40000
     Max angular momentum in pseudopotentials (lmaxx) =  3
     file Cr.rel-pbe-spn-kjpaw_psl.1.0.0.UPF: wavefunction(s)  3S 3P 3P 3D 3D renormalized
     file Si.rel-pbe-n-kjpaw_psl.1.0.0.UPF: wavefunction(s)  3S 3P 3P renormalized

     Subspace diagonalization in iterative solution of the eigenvalue problem:
     a serial algorithm will be used

     Message from routine setup:
     using ibrav=0 with symmetry is DISCOURAGED, use correct ibrav instead
 
     Parallelization info
     --------------------
     sticks:   dense  smooth     PW     G-vecs:    dense   smooth      PW
     Min         228      91     25                12702     3210     487
     Max         229      93     26                12704     3214     492
     Sum        5473    2201    621               304867    77053   11753
 


     bravais-lattice index     =            0
     lattice parameter (alat)  =       8.7475  a.u.
     unit-cell volume          =     669.3575 (a.u.)^3
     number of atoms/cell      =            8
     number of atomic types    =            2
     number of electrons       =        72.00
     number of Kohn-Sham states=           86
     kinetic-energy cutoff     =      90.0000  Ry
     charge density cutoff     =     900.0000  Ry
     scf convergence threshold =      1.0E-06
     mixing beta               =       0.7000
     number of iterations used =            8  plain     mixing
     Exchange-correlation= SLA  PW   PBX  PBC
                           (   1   4   3   4   0   0   0)
     Non magnetic calculation with spin-orbit


     celldm(1)=   8.747542  celldm(2)=   0.000000  celldm(3)=   0.000000
     celldm(4)=   0.000000  celldm(5)=   0.000000  celldm(6)=   0.000000

     crystal axes: (cart. coord. in units of alat)
               a(1) = (   1.000000   0.000000   0.000000 )  
               a(2) = (   0.000000   1.000000   0.000000 )  
               a(3) = (   0.000000   0.000000   1.000000 )  

     reciprocal axes: (cart. coord. in units 2 pi/alat)
               b(1) = (  1.000000  0.000000  0.000000 )  
               b(2) = (  0.000000  1.000000  0.000000 )  
               b(3) = (  0.000000  0.000000  1.000000 )  


     PseudoPot. # 1 for Cr read from file:
     ../../../../pseudo/Cr.rel-pbe-spn-kjpaw_psl.1.0.0.UPF
     MD5 check sum: 1e24e2b5251376a8b945118fca0c7981
     Pseudo is Projector augmented-wave + core cor, Zval = 14.0
     Generated using &quot;atomic&quot; code by A. Dal Corso  v.6.3
     Shape of augmentation charge: PSQ
     Using radial grid of 1183 points, 10 beta functions with: 
                l(1) =   0
                l(2) =   0
                l(3) =   1
                l(4) =   1
                l(5) =   1
                l(6) =   1
                l(7) =   2
                l(8) =   2
                l(9) =   2
               l(10) =   2
     Q(r) pseudized with 0 coefficients 


     PseudoPot. # 2 for Si read from file:
     ../../../../pseudo/Si.rel-pbe-n-kjpaw_psl.1.0.0.UPF
     MD5 check sum: d74f6caf6830ea4c2076867160cab1b0
     Pseudo is Projector augmented-wave + core cor, Zval =  4.0
     Generated using &quot;atomic&quot; code by A. Dal Corso  v.6.3
     Shape of augmentation charge: PSQ
     Using radial grid of 1141 points, 10 beta functions with: 
                l(1) =   0
                l(2) =   0
                l(3) =   1
                l(4) =   1
                l(5) =   1
                l(6) =   1
                l(7) =   2
                l(8) =   2
                l(9) =   2
               l(10) =   2
     Q(r) pseudized with 0 coefficients 


     atomic species   valence    mass     pseudopotential
        Cr            14.00    51.99600     Cr( 1.00)
        Si             4.00    28.08500     Si( 1.00)

     12 Sym. Ops. (no inversion) found ( 9 have fractional translation)


                                    s                        frac. trans.

      isym =  1     identity                                     

 cryst.   s( 1) = (     1          0          0      )
                  (     0          1          0      )
                  (     0          0          1      )

 cart.    s( 1) = (  1.0000000  0.0000000  0.0000000 )
                  (  0.0000000  1.0000000  0.0000000 )
                  (  0.0000000  0.0000000  1.0000000 )


      isym =  2     180 deg rotation - cart. axis [0,0,1]        

 cryst.   s( 2) = (    -1          0          0      )    f =(  0.5000000 )
                  (     0         -1          0      )       (  0.0000000 )
                  (     0          0          1      )       ( -0.5000000 )

 cart.    s( 2) = ( -1.0000000  0.0000000  0.0000000 )    f =(  0.5000000 )
                  (  0.0000000 -1.0000000  0.0000000 )       (  0.0000000 )
                  (  0.0000000  0.0000000  1.0000000 )       ( -0.5000000 )


      isym =  3     180 deg rotation - cart. axis [0,1,0]        

 cryst.   s( 3) = (    -1          0          0      )    f =(  0.0000000 )
                  (     0          1          0      )       ( -0.5000000 )
                  (     0          0         -1      )       (  0.5000000 )

 cart.    s( 3) = ( -1.0000000  0.0000000  0.0000000 )    f =(  0.0000000 )
                  (  0.0000000  1.0000000  0.0000000 )       ( -0.5000000 )
                  (  0.0000000  0.0000000 -1.0000000 )       (  0.5000000 )


      isym =  4     180 deg rotation - cart. axis [1,0,0]        

 cryst.   s( 4) = (     1          0          0      )    f =(  0.5000000 )
                  (     0         -1          0      )       (  0.5000000 )
                  (     0          0         -1      )       (  0.0000000 )

 cart.    s( 4) = (  1.0000000  0.0000000  0.0000000 )    f =(  0.5000000 )
                  (  0.0000000 -1.0000000  0.0000000 )       (  0.5000000 )
                  (  0.0000000  0.0000000 -1.0000000 )       (  0.0000000 )


      isym =  5     120 deg rotation - cart. axis [-1,-1,-1]     

 cryst.   s( 5) = (     0          0          1      )
                  (     1          0          0      )
                  (     0          1          0      )

 cart.    s( 5) = (  0.0000000  1.0000000  0.0000000 )
                  (  0.0000000  0.0000000  1.0000000 )
                  (  1.0000000  0.0000000  0.0000000 )


      isym =  6     120 deg rotation - cart. axis [-1,1,1]       

 cryst.   s( 6) = (     0          0         -1      )    f =(  0.0000000 )
                  (    -1          0          0      )       ( -0.5000000 )
                  (     0          1          0      )       (  0.5000000 )

 cart.    s( 6) = (  0.0000000 -1.0000000  0.0000000 )    f =(  0.0000000 )
                  (  0.0000000  0.0000000  1.0000000 )       ( -0.5000000 )
                  ( -1.0000000  0.0000000  0.0000000 )       (  0.5000000 )


      isym =  7     120 deg rotation - cart. axis [1,1,-1]       

 cryst.   s( 7) = (     0          0         -1      )    f =(  0.5000000 )
                  (     1          0          0      )       (  0.5000000 )
                  (     0         -1          0      )       (  0.0000000 )

 cart.    s( 7) = (  0.0000000  1.0000000  0.0000000 )    f =(  0.5000000 )
                  (  0.0000000  0.0000000 -1.0000000 )       (  0.5000000 )
                  ( -1.0000000  0.0000000  0.0000000 )       (  0.0000000 )


      isym =  8     120 deg rotation - cart. axis [1,-1,1]       

 cryst.   s( 8) = (     0          0          1      )    f =(  0.5000000 )
                  (    -1          0          0      )       (  0.0000000 )
                  (     0         -1          0      )       ( -0.5000000 )

 cart.    s( 8) = (  0.0000000 -1.0000000  0.0000000 )    f =(  0.5000000 )
                  (  0.0000000  0.0000000 -1.0000000 )       (  0.0000000 )
                  (  1.0000000  0.0000000  0.0000000 )       ( -0.5000000 )


      isym =  9     120 deg rotation - cart. axis [1,1,1]        

 cryst.   s( 9) = (     0          1          0      )
                  (     0          0          1      )
                  (     1          0          0      )

 cart.    s( 9) = (  0.0000000  0.0000000  1.0000000 )
                  (  1.0000000  0.0000000  0.0000000 )
                  (  0.0000000  1.0000000  0.0000000 )


      isym = 10     120 deg rotation - cart. axis [-1,1,-1]      

 cryst.   s(10) = (     0         -1          0      )    f =(  0.5000000 )
                  (     0          0         -1      )       (  0.5000000 )
                  (     1          0          0      )       (  0.0000000 )

 cart.    s(10) = (  0.0000000  0.0000000  1.0000000 )    f =(  0.5000000 )
                  ( -1.0000000  0.0000000  0.0000000 )       (  0.5000000 )
                  (  0.0000000 -1.0000000  0.0000000 )       (  0.0000000 )


      isym = 11     120 deg rotation - cart. axis [1,-1,-1]      

 cryst.   s(11) = (     0         -1          0      )    f =(  0.5000000 )
                  (     0          0          1      )       (  0.0000000 )
                  (    -1          0          0      )       ( -0.5000000 )

 cart.    s(11) = (  0.0000000  0.0000000 -1.0000000 )    f =(  0.5000000 )
                  ( -1.0000000  0.0000000  0.0000000 )       (  0.0000000 )
                  (  0.0000000  1.0000000  0.0000000 )       ( -0.5000000 )


      isym = 12     120 deg rotation - cart. axis [-1,-1,1]      

 cryst.   s(12) = (     0          1          0      )    f =(  0.0000000 )
                  (     0          0         -1      )       ( -0.5000000 )
                  (    -1          0          0      )       (  0.5000000 )

 cart.    s(12) = (  0.0000000  0.0000000 -1.0000000 )    f =(  0.0000000 )
                  (  1.0000000  0.0000000  0.0000000 )       ( -0.5000000 )
                  (  0.0000000 -1.0000000  0.0000000 )       (  0.5000000 )


   Cartesian axes

     site n.     atom                  positions (alat units)
         1           Cr  tau(   1) = (   0.8640000   0.3640000   0.1360000  )
         2           Cr  tau(   2) = (   0.3640000   0.1360000   0.8640000  )
         3           Cr  tau(   3) = (   0.1360000   0.8640000   0.3640000  )
         4           Cr  tau(   4) = (   0.6360000   0.6360000   0.6360000  )
         5           Si  tau(   5) = (   0.1540000   0.6540000   0.8460000  )
         6           Si  tau(   6) = (   0.6540000   0.8460000   0.1540000  )
         7           Si  tau(   7) = (   0.8460000   0.1540000   0.6540000  )
         8           Si  tau(   8) = (   0.3460000   0.3460000   0.3460000  )

   Crystallographic axes

     site n.     atom                  positions (cryst. coord.)
         1           Cr  tau(   1) = (  0.8640000  0.3640000  0.1360000  )
         2           Cr  tau(   2) = (  0.3640000  0.1360000  0.8640000  )
         3           Cr  tau(   3) = (  0.1360000  0.8640000  0.3640000  )
         4           Cr  tau(   4) = (  0.6360000  0.6360000  0.6360000  )
         5           Si  tau(   5) = (  0.1540000  0.6540000  0.8460000  )
         6           Si  tau(   6) = (  0.6540000  0.8460000  0.1540000  )
         7           Si  tau(   7) = (  0.8460000  0.1540000  0.6540000  )
         8           Si  tau(   8) = (  0.3460000  0.3460000  0.3460000  )

     number of k points=   119  Methfessel-Paxton smearing, width (Ry)=  0.0040
                       cart. coord. in units 2pi/alat
        k(    1) = (   0.0000000   0.0000000   0.0000000), wk =   0.0005787
        k(    2) = (   0.0000000   0.0000000   0.0833333), wk =   0.0034722
        k(    3) = (   0.0000000   0.0000000   0.1666667), wk =   0.0034722
        k(    4) = (   0.0000000   0.0000000   0.2500000), wk =   0.0034722
        k(    5) = (   0.0000000   0.0000000   0.3333333), wk =   0.0034722
        k(    6) = (   0.0000000   0.0000000   0.4166667), wk =   0.0034722
        k(    7) = (   0.0000000   0.0000000  -0.5000000), wk =   0.0017361
        k(    8) = (   0.0000000   0.0833333   0.0833333), wk =   0.0069444
        k(    9) = (   0.0000000   0.0833333   0.1666667), wk =   0.0069444
        k(   10) = (   0.0000000   0.0833333   0.2500000), wk =   0.0069444
        k(   11) = (   0.0000000   0.0833333   0.3333333), wk =   0.0069444
        k(   12) = (   0.0000000   0.0833333   0.4166667), wk =   0.0069444
        k(   13) = (   0.0000000   0.0833333  -0.5000000), wk =   0.0034722
        k(   14) = (   0.0000000   0.1666667   0.1666667), wk =   0.0069444
        k(   15) = (   0.0000000   0.1666667   0.2500000), wk =   0.0069444
        k(   16) = (   0.0000000   0.1666667   0.3333333), wk =   0.0069444
        k(   17) = (   0.0000000   0.1666667   0.4166667), wk =   0.0069444
        k(   18) = (   0.0000000   0.1666667  -0.5000000), wk =   0.0034722
        k(   19) = (   0.0000000   0.2500000   0.2500000), wk =   0.0069444
        k(   20) = (   0.0000000   0.2500000   0.3333333), wk =   0.0069444
        k(   21) = (   0.0000000   0.2500000   0.4166667), wk =   0.0069444
        k(   22) = (   0.0000000   0.2500000  -0.5000000), wk =   0.0034722
        k(   23) = (   0.0000000   0.3333333   0.3333333), wk =   0.0069444
        k(   24) = (   0.0000000   0.3333333   0.4166667), wk =   0.0069444
        k(   25) = (   0.0000000   0.3333333  -0.5000000), wk =   0.0034722
        k(   26) = (   0.0000000   0.4166667   0.4166667), wk =   0.0069444
        k(   27) = (   0.0000000   0.4166667  -0.5000000), wk =   0.0034722
        k(   28) = (   0.0000000  -0.5000000  -0.5000000), wk =   0.0017361
        k(   29) = (   0.0833333   0.0833333   0.0833333), wk =   0.0046296
        k(   30) = (   0.0833333   0.0833333   0.1666667), wk =   0.0138889
        k(   31) = (   0.0833333   0.0833333   0.2500000), wk =   0.0138889
        k(   32) = (   0.0833333   0.0833333   0.3333333), wk =   0.0138889
        k(   33) = (   0.0833333   0.0833333   0.4166667), wk =   0.0138889
        k(   34) = (   0.0833333   0.0833333  -0.5000000), wk =   0.0069444
        k(   35) = (   0.0833333   0.1666667   0.1666667), wk =   0.0138889
        k(   36) = (   0.0833333   0.1666667   0.2500000), wk =   0.0138889
        k(   37) = (   0.0833333   0.1666667   0.3333333), wk =   0.0138889
        k(   38) = (   0.0833333   0.1666667   0.4166667), wk =   0.0138889
        k(   39) = (   0.0833333   0.1666667  -0.5000000), wk =   0.0069444
        k(   40) = (   0.0833333   0.2500000   0.2500000), wk =   0.0138889
        k(   41) = (   0.0833333   0.2500000   0.3333333), wk =   0.0138889
        k(   42) = (   0.0833333   0.2500000   0.4166667), wk =   0.0138889
        k(   43) = (   0.0833333   0.2500000  -0.5000000), wk =   0.0069444
        k(   44) = (   0.0833333   0.3333333   0.3333333), wk =   0.0138889
        k(   45) = (   0.0833333   0.3333333   0.4166667), wk =   0.0138889
        k(   46) = (   0.0833333   0.3333333  -0.5000000), wk =   0.0069444
        k(   47) = (   0.0833333   0.4166667   0.4166667), wk =   0.0138889
        k(   48) = (   0.0833333   0.4166667  -0.5000000), wk =   0.0069444
        k(   49) = (   0.0833333  -0.5000000  -0.5000000), wk =   0.0034722
        k(   50) = (   0.1666667   0.1666667   0.1666667), wk =   0.0046296
        k(   51) = (   0.1666667   0.1666667   0.2500000), wk =   0.0138889
        k(   52) = (   0.1666667   0.1666667   0.3333333), wk =   0.0138889
        k(   53) = (   0.1666667   0.1666667   0.4166667), wk =   0.0138889
        k(   54) = (   0.1666667   0.1666667  -0.5000000), wk =   0.0069444
        k(   55) = (   0.1666667   0.2500000   0.2500000), wk =   0.0138889
        k(   56) = (   0.1666667   0.2500000   0.3333333), wk =   0.0138889
        k(   57) = (   0.1666667   0.2500000   0.4166667), wk =   0.0138889
        k(   58) = (   0.1666667   0.2500000  -0.5000000), wk =   0.0069444
        k(   59) = (   0.1666667   0.3333333   0.3333333), wk =   0.0138889
        k(   60) = (   0.1666667   0.3333333   0.4166667), wk =   0.0138889
        k(   61) = (   0.1666667   0.3333333  -0.5000000), wk =   0.0069444
        k(   62) = (   0.1666667   0.4166667   0.4166667), wk =   0.0138889
        k(   63) = (   0.1666667   0.4166667  -0.5000000), wk =   0.0069444
        k(   64) = (   0.1666667  -0.5000000  -0.5000000), wk =   0.0034722
        k(   65) = (   0.2500000   0.2500000   0.2500000), wk =   0.0046296
        k(   66) = (   0.2500000   0.2500000   0.3333333), wk =   0.0138889
        k(   67) = (   0.2500000   0.2500000   0.4166667), wk =   0.0138889
        k(   68) = (   0.2500000   0.2500000  -0.5000000), wk =   0.0069444
        k(   69) = (   0.2500000   0.3333333   0.3333333), wk =   0.0138889
        k(   70) = (   0.2500000   0.3333333   0.4166667), wk =   0.0138889
        k(   71) = (   0.2500000   0.3333333  -0.5000000), wk =   0.0069444
        k(   72) = (   0.2500000   0.4166667   0.4166667), wk =   0.0138889
        k(   73) = (   0.2500000   0.4166667  -0.5000000), wk =   0.0069444
        k(   74) = (   0.2500000  -0.5000000  -0.5000000), wk =   0.0034722
        k(   75) = (   0.3333333   0.3333333   0.3333333), wk =   0.0046296
        k(   76) = (   0.3333333   0.3333333   0.4166667), wk =   0.0138889
        k(   77) = (   0.3333333   0.3333333  -0.5000000), wk =   0.0069444
        k(   78) = (   0.3333333   0.4166667   0.4166667), wk =   0.0138889
        k(   79) = (   0.3333333   0.4166667  -0.5000000), wk =   0.0069444
        k(   80) = (   0.3333333  -0.5000000  -0.5000000), wk =   0.0034722
        k(   81) = (   0.4166667   0.4166667   0.4166667), wk =   0.0046296
        k(   82) = (   0.4166667   0.4166667  -0.5000000), wk =   0.0069444
        k(   83) = (   0.4166667  -0.5000000  -0.5000000), wk =   0.0034722
        k(   84) = (  -0.5000000  -0.5000000  -0.5000000), wk =   0.0005787
        k(   85) = (   0.0000000   0.1666667   0.0833333), wk =   0.0069444
        k(   86) = (   0.0000000   0.2500000   0.0833333), wk =   0.0069444
        k(   87) = (   0.0000000   0.3333333   0.0833333), wk =   0.0069444
        k(   88) = (   0.0000000   0.4166667   0.0833333), wk =   0.0069444
        k(   89) = (   0.0000000  -0.5000000   0.0833333), wk =   0.0034722
        k(   90) = (   0.0000000   0.2500000   0.1666667), wk =   0.0069444
        k(   91) = (   0.0000000   0.3333333   0.1666667), wk =   0.0069444
        k(   92) = (   0.0000000   0.4166667   0.1666667), wk =   0.0069444
        k(   93) = (   0.0000000  -0.5000000   0.1666667), wk =   0.0034722
        k(   94) = (   0.0000000   0.3333333   0.2500000), wk =   0.0069444
        k(   95) = (   0.0000000   0.4166667   0.2500000), wk =   0.0069444
        k(   96) = (   0.0000000  -0.5000000   0.2500000), wk =   0.0034722
        k(   97) = (   0.0000000   0.4166667   0.3333333), wk =   0.0069444
        k(   98) = (   0.0000000  -0.5000000   0.3333333), wk =   0.0034722
        k(   99) = (   0.0000000  -0.5000000   0.4166667), wk =   0.0034722
        k(  100) = (  -0.0833333   0.2500000   0.1666667), wk =   0.0138889
        k(  101) = (  -0.0833333   0.3333333   0.1666667), wk =   0.0138889
        k(  102) = (  -0.0833333   0.4166667   0.1666667), wk =   0.0138889
        k(  103) = (  -0.0833333  -0.5000000   0.1666667), wk =   0.0069444
        k(  104) = (  -0.0833333   0.3333333   0.2500000), wk =   0.0138889
        k(  105) = (  -0.0833333   0.4166667   0.2500000), wk =   0.0138889
        k(  106) = (  -0.0833333  -0.5000000   0.2500000), wk =   0.0069444
        k(  107) = (  -0.0833333   0.4166667   0.3333333), wk =   0.0138889
        k(  108) = (  -0.0833333  -0.5000000   0.3333333), wk =   0.0069444
        k(  109) = (  -0.0833333  -0.5000000   0.4166667), wk =   0.0069444
        k(  110) = (  -0.1666667   0.3333333   0.2500000), wk =   0.0138889
        k(  111) = (  -0.1666667   0.4166667   0.2500000), wk =   0.0138889
        k(  112) = (  -0.1666667  -0.5000000   0.2500000), wk =   0.0069444
        k(  113) = (  -0.1666667   0.4166667   0.3333333), wk =   0.0138889
        k(  114) = (  -0.1666667  -0.5000000   0.3333333), wk =   0.0069444
        k(  115) = (  -0.1666667  -0.5000000   0.4166667), wk =   0.0069444
        k(  116) = (  -0.2500000   0.4166667   0.3333333), wk =   0.0138889
        k(  117) = (  -0.2500000  -0.5000000   0.3333333), wk =   0.0069444
        k(  118) = (  -0.2500000  -0.5000000   0.4166667), wk =   0.0069444
        k(  119) = (  -0.3333333  -0.5000000   0.4166667), wk =   0.0069444

                       cryst. coord.
        k(    1) = (   0.0000000   0.0000000   0.0000000), wk =   0.0005787
        k(    2) = (   0.0000000   0.0000000   0.0833333), wk =   0.0034722
        k(    3) = (   0.0000000   0.0000000   0.1666667), wk =   0.0034722
        k(    4) = (   0.0000000   0.0000000   0.2500000), wk =   0.0034722
        k(    5) = (   0.0000000   0.0000000   0.3333333), wk =   0.0034722
        k(    6) = (   0.0000000   0.0000000   0.4166667), wk =   0.0034722
        k(    7) = (   0.0000000   0.0000000  -0.5000000), wk =   0.0017361
        k(    8) = (   0.0000000   0.0833333   0.0833333), wk =   0.0069444
        k(    9) = (   0.0000000   0.0833333   0.1666667), wk =   0.0069444
        k(   10) = (   0.0000000   0.0833333   0.2500000), wk =   0.0069444
        k(   11) = (   0.0000000   0.0833333   0.3333333), wk =   0.0069444
        k(   12) = (   0.0000000   0.0833333   0.4166667), wk =   0.0069444
        k(   13) = (   0.0000000   0.0833333  -0.5000000), wk =   0.0034722
        k(   14) = (   0.0000000   0.1666667   0.1666667), wk =   0.0069444
        k(   15) = (   0.0000000   0.1666667   0.2500000), wk =   0.0069444
        k(   16) = (   0.0000000   0.1666667   0.3333333), wk =   0.0069444
        k(   17) = (   0.0000000   0.1666667   0.4166667), wk =   0.0069444
        k(   18) = (   0.0000000   0.1666667  -0.5000000), wk =   0.0034722
        k(   19) = (   0.0000000   0.2500000   0.2500000), wk =   0.0069444
        k(   20) = (   0.0000000   0.2500000   0.3333333), wk =   0.0069444
        k(   21) = (   0.0000000   0.2500000   0.4166667), wk =   0.0069444
        k(   22) = (   0.0000000   0.2500000  -0.5000000), wk =   0.0034722
        k(   23) = (   0.0000000   0.3333333   0.3333333), wk =   0.0069444
        k(   24) = (   0.0000000   0.3333333   0.4166667), wk =   0.0069444
        k(   25) = (   0.0000000   0.3333333  -0.5000000), wk =   0.0034722
        k(   26) = (   0.0000000   0.4166667   0.4166667), wk =   0.0069444
        k(   27) = (   0.0000000   0.4166667  -0.5000000), wk =   0.0034722
        k(   28) = (   0.0000000  -0.5000000  -0.5000000), wk =   0.0017361
        k(   29) = (   0.0833333   0.0833333   0.0833333), wk =   0.0046296
        k(   30) = (   0.0833333   0.0833333   0.1666667), wk =   0.0138889
        k(   31) = (   0.0833333   0.0833333   0.2500000), wk =   0.0138889
        k(   32) = (   0.0833333   0.0833333   0.3333333), wk =   0.0138889
        k(   33) = (   0.0833333   0.0833333   0.4166667), wk =   0.0138889
        k(   34) = (   0.0833333   0.0833333  -0.5000000), wk =   0.0069444
        k(   35) = (   0.0833333   0.1666667   0.1666667), wk =   0.0138889
        k(   36) = (   0.0833333   0.1666667   0.2500000), wk =   0.0138889
        k(   37) = (   0.0833333   0.1666667   0.3333333), wk =   0.0138889
        k(   38) = (   0.0833333   0.1666667   0.4166667), wk =   0.0138889
        k(   39) = (   0.0833333   0.1666667  -0.5000000), wk =   0.0069444
        k(   40) = (   0.0833333   0.2500000   0.2500000), wk =   0.0138889
        k(   41) = (   0.0833333   0.2500000   0.3333333), wk =   0.0138889
        k(   42) = (   0.0833333   0.2500000   0.4166667), wk =   0.0138889
        k(   43) = (   0.0833333   0.2500000  -0.5000000), wk =   0.0069444
        k(   44) = (   0.0833333   0.3333333   0.3333333), wk =   0.0138889
        k(   45) = (   0.0833333   0.3333333   0.4166667), wk =   0.0138889
        k(   46) = (   0.0833333   0.3333333  -0.5000000), wk =   0.0069444
        k(   47) = (   0.0833333   0.4166667   0.4166667), wk =   0.0138889
        k(   48) = (   0.0833333   0.4166667  -0.5000000), wk =   0.0069444
        k(   49) = (   0.0833333  -0.5000000  -0.5000000), wk =   0.0034722
        k(   50) = (   0.1666667   0.1666667   0.1666667), wk =   0.0046296
        k(   51) = (   0.1666667   0.1666667   0.2500000), wk =   0.0138889
        k(   52) = (   0.1666667   0.1666667   0.3333333), wk =   0.0138889
        k(   53) = (   0.1666667   0.1666667   0.4166667), wk =   0.0138889
        k(   54) = (   0.1666667   0.1666667  -0.5000000), wk =   0.0069444
        k(   55) = (   0.1666667   0.2500000   0.2500000), wk =   0.0138889
        k(   56) = (   0.1666667   0.2500000   0.3333333), wk =   0.0138889
        k(   57) = (   0.1666667   0.2500000   0.4166667), wk =   0.0138889
        k(   58) = (   0.1666667   0.2500000  -0.5000000), wk =   0.0069444
        k(   59) = (   0.1666667   0.3333333   0.3333333), wk =   0.0138889
        k(   60) = (   0.1666667   0.3333333   0.4166667), wk =   0.0138889
        k(   61) = (   0.1666667   0.3333333  -0.5000000), wk =   0.0069444
        k(   62) = (   0.1666667   0.4166667   0.4166667), wk =   0.0138889
        k(   63) = (   0.1666667   0.4166667  -0.5000000), wk =   0.0069444
        k(   64) = (   0.1666667  -0.5000000  -0.5000000), wk =   0.0034722
        k(   65) = (   0.2500000   0.2500000   0.2500000), wk =   0.0046296
        k(   66) = (   0.2500000   0.2500000   0.3333333), wk =   0.0138889
        k(   67) = (   0.2500000   0.2500000   0.4166667), wk =   0.0138889
        k(   68) = (   0.2500000   0.2500000  -0.5000000), wk =   0.0069444
        k(   69) = (   0.2500000   0.3333333   0.3333333), wk =   0.0138889
        k(   70) = (   0.2500000   0.3333333   0.4166667), wk =   0.0138889
        k(   71) = (   0.2500000   0.3333333  -0.5000000), wk =   0.0069444
        k(   72) = (   0.2500000   0.4166667   0.4166667), wk =   0.0138889
        k(   73) = (   0.2500000   0.4166667  -0.5000000), wk =   0.0069444
        k(   74) = (   0.2500000  -0.5000000  -0.5000000), wk =   0.0034722
        k(   75) = (   0.3333333   0.3333333   0.3333333), wk =   0.0046296
        k(   76) = (   0.3333333   0.3333333   0.4166667), wk =   0.0138889
        k(   77) = (   0.3333333   0.3333333  -0.5000000), wk =   0.0069444
        k(   78) = (   0.3333333   0.4166667   0.4166667), wk =   0.0138889
        k(   79) = (   0.3333333   0.4166667  -0.5000000), wk =   0.0069444
        k(   80) = (   0.3333333  -0.5000000  -0.5000000), wk =   0.0034722
        k(   81) = (   0.4166667   0.4166667   0.4166667), wk =   0.0046296
        k(   82) = (   0.4166667   0.4166667  -0.5000000), wk =   0.0069444
        k(   83) = (   0.4166667  -0.5000000  -0.5000000), wk =   0.0034722
        k(   84) = (  -0.5000000  -0.5000000  -0.5000000), wk =   0.0005787
        k(   85) = (   0.0000000   0.1666667   0.0833333), wk =   0.0069444
        k(   86) = (   0.0000000   0.2500000   0.0833333), wk =   0.0069444
        k(   87) = (   0.0000000   0.3333333   0.0833333), wk =   0.0069444
        k(   88) = (   0.0000000   0.4166667   0.0833333), wk =   0.0069444
        k(   89) = (   0.0000000  -0.5000000   0.0833333), wk =   0.0034722
        k(   90) = (   0.0000000   0.2500000   0.1666667), wk =   0.0069444
        k(   91) = (   0.0000000   0.3333333   0.1666667), wk =   0.0069444
        k(   92) = (   0.0000000   0.4166667   0.1666667), wk =   0.0069444
        k(   93) = (   0.0000000  -0.5000000   0.1666667), wk =   0.0034722
        k(   94) = (   0.0000000   0.3333333   0.2500000), wk =   0.0069444
        k(   95) = (   0.0000000   0.4166667   0.2500000), wk =   0.0069444
        k(   96) = (   0.0000000  -0.5000000   0.2500000), wk =   0.0034722
        k(   97) = (   0.0000000   0.4166667   0.3333333), wk =   0.0069444
        k(   98) = (   0.0000000  -0.5000000   0.3333333), wk =   0.0034722
        k(   99) = (   0.0000000  -0.5000000   0.4166667), wk =   0.0034722
        k(  100) = (  -0.0833333   0.2500000   0.1666667), wk =   0.0138889
        k(  101) = (  -0.0833333   0.3333333   0.1666667), wk =   0.0138889
        k(  102) = (  -0.0833333   0.4166667   0.1666667), wk =   0.0138889
        k(  103) = (  -0.0833333  -0.5000000   0.1666667), wk =   0.0069444
        k(  104) = (  -0.0833333   0.3333333   0.2500000), wk =   0.0138889
        k(  105) = (  -0.0833333   0.4166667   0.2500000), wk =   0.0138889
        k(  106) = (  -0.0833333  -0.5000000   0.2500000), wk =   0.0069444
        k(  107) = (  -0.0833333   0.4166667   0.3333333), wk =   0.0138889
        k(  108) = (  -0.0833333  -0.5000000   0.3333333), wk =   0.0069444
        k(  109) = (  -0.0833333  -0.5000000   0.4166667), wk =   0.0069444
        k(  110) = (  -0.1666667   0.3333333   0.2500000), wk =   0.0138889
        k(  111) = (  -0.1666667   0.4166667   0.2500000), wk =   0.0138889
        k(  112) = (  -0.1666667  -0.5000000   0.2500000), wk =   0.0069444
        k(  113) = (  -0.1666667   0.4166667   0.3333333), wk =   0.0138889
        k(  114) = (  -0.1666667  -0.5000000   0.3333333), wk =   0.0069444
        k(  115) = (  -0.1666667  -0.5000000   0.4166667), wk =   0.0069444
        k(  116) = (  -0.2500000   0.4166667   0.3333333), wk =   0.0138889
        k(  117) = (  -0.2500000  -0.5000000   0.3333333), wk =   0.0069444
        k(  118) = (  -0.2500000  -0.5000000   0.4166667), wk =   0.0069444
        k(  119) = (  -0.3333333  -0.5000000   0.4166667), wk =   0.0069444

     Dense  grid:   304867 G-vectors     FFT dimensions: (  90,  90,  90)

     Smooth grid:    77053 G-vectors     FFT dimensions: (  54,  54,  54)

     Dynamical RAM for                 wfc:       1.06 MB

     Dynamical RAM for     wfc (w. buffer):     126.61 MB

     Dynamical RAM for           str. fact:       0.39 MB

     Dynamical RAM for           local pot:       0.00 MB

     Dynamical RAM for          nlocal pot:       1.67 MB

     Dynamical RAM for                qrad:      12.61 MB

     Dynamical RAM for          rho,v,vnew:       5.29 MB

     Dynamical RAM for               rhoin:       1.76 MB

     Dynamical RAM for            rho*nmix:      12.41 MB

     Dynamical RAM for           G-vectors:       0.75 MB

     Dynamical RAM for          h,s,v(r/c):       1.35 MB

     Dynamical RAM for          <psi|beta>:       0.71 MB

     Dynamical RAM for                 psi:       2.11 MB

     Dynamical RAM for                hpsi:       2.11 MB

     Dynamical RAM for                spsi:       2.11 MB

     Dynamical RAM for      wfcinit/wfcrot:       2.35 MB

     Dynamical RAM for           addusdens:     119.02 MB

     Dynamical RAM for          addusforce:     120.34 MB

     Dynamical RAM for         addusstress:     121.74 MB

     Estimated static dynamical RAM per process >     164.04 MB

     Estimated max dynamical RAM per process >     285.78 MB

     Estimated total dynamical RAM >       6.70 GB

     Initial potential from superposition of free atoms

     starting charge   71.99469, renormalised to   72.00000
     Starting wfcs are  112 randomized atomic wfcs
     Checking if some PAW data can be deallocated... 
       PAW data deallocated on   12 nodes for type:  1
       PAW data deallocated on   12 nodes for type:  2

     total cpu time spent up to now is       27.3 secs

     Self-consistent Calculation

     iteration #  1     ecut=    90.00 Ry     beta= 0.70
     Davidson diagonalization with overlap
     ethr =  1.00E-02,  avg # of iterations =  2.0

     Threshold (ethr) on eigenvalues was too large:
     Diagonalizing with lowered threshold

     Davidson diagonalization with overlap
     ethr =  2.10E-04,  avg # of iterations =  4.4

     total cpu time spent up to now is      177.0 secs

     total energy              =   -1180.30937508 Ry
     estimated scf accuracy    <       0.18961104 Ry

     iteration #  2     ecut=    90.00 Ry     beta= 0.70
     Davidson diagonalization with overlap
     ethr =  2.63E-04,  avg # of iterations =  3.2

     total cpu time spent up to now is      252.5 secs

     total energy              =   -1180.31347852 Ry
     estimated scf accuracy    <       0.08358277 Ry

     iteration #  3     ecut=    90.00 Ry     beta= 0.70
     Davidson diagonalization with overlap
     ethr =  1.16E-04,  avg # of iterations =  5.0

     total cpu time spent up to now is      347.2 secs

     total energy              =   -1180.32571512 Ry
     estimated scf accuracy    <       0.16456458 Ry

     iteration #  4     ecut=    90.00 Ry     beta= 0.70
     Davidson diagonalization with overlap
     ethr =  1.16E-04,  avg # of iterations =  4.0

     total cpu time spent up to now is      422.5 secs

     total energy              =   -1180.34960933 Ry
     estimated scf accuracy    <       0.00023202 Ry

     iteration #  5     ecut=    90.00 Ry     beta= 0.70
     Davidson diagonalization with overlap
     ethr =  3.22E-07,  avg # of iterations =  8.6

     total cpu time spent up to now is      544.5 secs

     total energy              =   -1180.35026700 Ry
     estimated scf accuracy    <       0.00042769 Ry

     iteration #  6     ecut=    90.00 Ry     beta= 0.70
     Davidson diagonalization with overlap
     ethr =  3.22E-07,  avg # of iterations =  4.1

     total cpu time spent up to now is      619.6 secs

     total energy              =   -1180.35033802 Ry
     estimated scf accuracy    <       0.00000227 Ry

     iteration #  7     ecut=    90.00 Ry     beta= 0.70
     Davidson diagonalization with overlap
     ethr =  3.15E-09,  avg # of iterations =  5.8

     total cpu time spent up to now is      709.6 secs

     total energy              =   -1180.35033877 Ry
     estimated scf accuracy    <       0.00000568 Ry

     iteration #  8     ecut=    90.00 Ry     beta= 0.70
     Davidson diagonalization with overlap
     ethr =  3.15E-09,  avg # of iterations =  4.0

     total cpu time spent up to now is      791.4 secs

     End of self-consistent calculation

          k = 0.0000 0.0000 0.0000 (  9771 PWs)   bands (ev):

   -56.5158 -56.5158 -56.4811 -56.4811 -56.4811 -56.4811 -56.4811 -56.4811
   -28.5817 -28.5817 -28.5737 -28.5737 -28.5737 -28.5737 -28.4844 -28.4844
   -27.6172 -27.6172 -27.6172 -27.6172 -27.5400 -27.5400 -27.5400 -27.5400
   -27.5318 -27.5318 -27.4504 -27.4504 -27.4504 -27.4504 -27.4489 -27.4489
     2.6988   2.6988   7.4571   7.4571   7.4571   7.4571   7.4663   7.4663
    10.5369  10.5369  10.5449  10.5449  10.5449  10.5449  11.9121  11.9121
    11.9121  11.9121  11.9232  11.9232  12.6034  12.6034  12.7722  12.7722
    12.7722  12.7722  13.1426  13.1426  13.1426  13.1426  13.1438  13.1438
    13.6708  13.6708  13.6708  13.6708  13.6746  13.6746  15.5515  15.5515
    15.5828  15.5828  15.5828  15.5828  15.7640  15.7640  15.7640  15.7640
    16.6660  16.6660  16.6964  16.6964  16.6964  16.6964

     occupation numbers 
     1.0000   1.0000   1.0000   1.0000   1.0000   1.0000   1.0000   1.0000
     1.0000   1.0000   1.0000   1.0000   1.0000   1.0000   1.0000   1.0000
     1.0000   1.0000   1.0000   1.0000   1.0000   1.0000   1.0000   1.0000
     1.0000   1.0000   1.0000   1.0000   1.0000   1.0000   1.0000   1.0000
     1.0000   1.0000   1.0000   1.0000   1.0000   1.0000   1.0000   1.0000
     1.0000   1.0000   1.0000   1.0000   1.0000   1.0000   1.0000   1.0000
     1.0000   1.0000   1.0000   1.0000   1.0000   1.0000   1.0000   1.0000
     1.0000   1.0000   1.0000   1.0000   1.0000   1.0000   1.0000   1.0000
     1.0000   1.0000   1.0000   1.0000   1.0000   1.0000  -0.0000  -0.0000
    -0.0000  -0.0000  -0.0000  -0.0000  -0.0000  -0.0000  -0.0000  -0.0000
    -0.0000  -0.0000  -0.0000  -0.0000  -0.0000  -0.0000

          k = 0.0000 0.0000 0.0833 (  9699 PWs)   bands (ev):

   -56.5153 -56.5153 -56.4836 -56.4836 -56.4809 -56.4809 -56.4791 -56.4791
   -28.5860 -28.5786 -28.5782 -28.5758 -28.5701 -28.5675 -28.4857 -28.4857
   -27.6265 -27.6220 -27.6111 -27.6066 -27.5456 -27.5440 -27.5376 -27.5361
   -27.5351 -27.5239 -27.4548 -27.4540 -27.4521 -27.4488 -27.4483 -27.4448
     2.7471   2.7471   7.0341   7.0382   7.4859   7.4868   7.8142   7.8222
    10.2171  10.2228  10.5747  10.5757  10.8835  10.8870  11.4926  11.4946
    11.7825  11.7854  12.3545  12.3685  12.5858  12.5884  12.7666  12.7743
    12.8426  12.8429  13.1197  13.1212  13.1607  13.1612  13.1849  13.1855
    13.5498  13.5551  13.6643  13.6651  13.8248  13.8257  15.4674  15.4900
    15.4956  15.4991  15.6793  15.6984  15.7443  15.7532  15.7565  15.7678
    16.5419  16.5609  16.6634  16.6649  16.8154  16.8355

     occupation numbers 
     1.0000   1.0000   1.0000   1.0000   1.0000   1.0000   1.0000   1.0000
     1.0000   1.0000   1.0000   1.0000   1.0000   1.0000   1.0000   1.0000
     1.0000   1.0000   1.0000   1.0000   1.0000   1.0000   1.0000   1.0000
     1.0000   1.0000   1.0000   1.0000   1.0000   1.0000   1.0000   1.0000
     1.0000   1.0000   1.0000   1.0000   1.0000   1.0000   1.0000   1.0000
     1.0000   1.0000   1.0000   1.0000   1.0000   1.0000   1.0000   1.0000
     1.0000   1.0000   1.0000   1.0000   1.0000   1.0000   1.0000   1.0000
     1.0000   1.0000   1.0000   1.0000   1.0000   1.0000   1.0000   1.0000
     1.0000   1.0000   1.0000   1.0000   1.0000   1.0000  -0.0000  -0.0000
    -0.0000  -0.0000  -0.0000  -0.0000  -0.0000  -0.0000  -0.0000  -0.0000
    -0.0000  -0.0000  -0.0000  -0.0000  -0.0000  -0.0000

          k = 0.0000 0.0000 0.1667 (  9663 PWs)   bands (ev):

   -56.5140 -56.5140 -56.4867 -56.4867 -56.4805 -56.4805 -56.4778 -56.4778
   -28.5893 -28.5820 -28.5781 -28.5775 -28.5633 -28.5600 -28.4895 -28.4894
   -27.6339 -27.6261 -27.6036 -27.5961 -27.5518 -27.5467 -27.5397 -27.5339
   -27.5316 -27.5148 -27.4609 -27.4584 -27.4552 -27.4487 -27.4474 -27.4417
     2.8909   2.8909   6.5403   6.5428   7.5633   7.5652   8.1198   8.1292
     9.9479   9.9521  10.6626  10.6652  11.0723  11.0752  11.2875  11.2882
    11.5008  11.5056  12.4496  12.4599  12.7397  12.7620  12.8030  12.8096
    13.0116  13.0150  13.1067  13.1092  13.1958  13.1979  13.2268  13.2272
    13.5310  13.5411  13.6317  13.6343  13.9628  13.9632  15.2937  15.3146
    15.4167  15.4242  15.6909  15.7005  15.7460  15.7644  15.7920  15.8176
    16.4076  16.4231  16.5959  16.6034  16.9913  17.0118

     occupation numbers 
     1.0000   1.0000   1.0000   1.0000   1.0000   1.0000   1.0000   1.0000
     1.0000   1.0000   1.0000   1.0000   1.0000   1.0000   1.0000   1.0000
     1.0000   1.0000   1.0000   1.0000   1.0000   1.0000   1.0000   1.0000
     1.0000   1.0000   1.0000   1.0000   1.0000   1.0000   1.0000   1.0000
     1.0000   1.0000   1.0000   1.0000   1.0000   1.0000   1.0000   1.0000
     1.0000   1.0000   1.0000   1.0000   1.0000   1.0000   1.0000   1.0000
     1.0000   1.0000   1.0000   1.0000   1.0000   1.0000   1.0000   1.0000
     1.0000   1.0000   1.0000   1.0000   1.0000   1.0000   1.0000   1.0000
     1.0000   1.0000   1.0000   1.0000   1.0000   1.0000  -0.0000  -0.0000
    -0.0000  -0.0000  -0.0000  -0.0000  -0.0000  -0.0000  -0.0000  -0.0000
    -0.0000  -0.0000  -0.0000  -0.0000  -0.0000  -0.0000

          k = 0.0000 0.0000 0.2500 (  9618 PWs)   bands (ev):

   -56.5119 -56.5119 -56.4902 -56.4902 -56.4799 -56.4799 -56.4770 -56.4770
   -28.5913 -28.5840 -28.5809 -28.5784 -28.5545 -28.5514 -28.4955 -28.4953
   -27.6390 -27.6302 -27.5945 -27.5872 -27.5580 -27.5473 -27.5370 -27.5350
   -27.5300 -27.5051 -27.4690 -27.4613 -27.4593 -27.4496 -27.4469 -27.4401
     3.1273   3.1274   5.9921   5.9936   7.6898   7.6927   8.3703   8.3804
     9.7440   9.7453  10.7561  10.7613  10.8663  10.8751  11.1955  11.2029
    11.5683  11.5690  12.2656  12.2805  12.8665  12.8731  12.9123  12.9341
    13.1196  13.1237  13.1286  13.1339  13.2506  13.2512  13.2817  13.2856
    13.5436  13.5469  13.6976  13.7052  14.0461  14.0466  15.0731  15.1017
    15.3797  15.3803  15.6154  15.6306  15.7377  15.7620  15.8513  15.8753
    16.2858  16.3005  16.4940  16.5055  17.1877  17.2082

     occupation numbers 
     1.0000   1.0000   1.0000   1.0000   1.0000   1.0000   1.0000   1.0000
     1.0000   1.0000   1.0000   1.0000   1.0000   1.0000   1.0000   1.0000
     1.0000   1.0000   1.0000   1.0000   1.0000   1.0000   1.0000   1.0000
     1.0000   1.0000   1.0000   1.0000   1.0000   1.0000   1.0000   1.0000
     1.0000   1.0000   1.0000   1.0000   1.0000   1.0000   1.0000   1.0000
     1.0000   1.0000   1.0000   1.0000   1.0000   1.0000   1.0000   1.0000
     1.0000   1.0000   1.0000   1.0000   1.0000   1.0000   1.0000   1.0000
     1.0000   1.0000   1.0000   1.0000   1.0000   1.0000   1.0000   1.0000
     1.0000   1.0000   1.0000   1.0000   1.0000   1.0000  -0.0023  -0.0002
    -0.0000  -0.0000  -0.0000  -0.0000  -0.0000  -0.0000  -0.0000  -0.0000
    -0.0000  -0.0000  -0.0000  -0.0000  -0.0000  -0.0000

          k = 0.0000 0.0000 0.3333 (  9606 PWs)   bands (ev):

   -56.5091 -56.5091 -56.4940 -56.4940 -56.4791 -56.4791 -56.4768 -56.4768
   -28.5919 -28.5848 -28.5839 -28.5799 -28.5445 -28.5419 -28.5035 -28.5029
   -27.6418 -27.6341 -27.5848 -27.5802 -27.5638 -27.5456 -27.5402 -27.5306
   -27.5291 -27.4955 -27.4794 -27.4644 -27.4616 -27.4514 -27.4461 -27.4400
     3.4513   3.4514   5.4204   5.4212   7.8603   7.8644   8.5099   8.5196
     9.6516   9.6531  10.6594  10.6618  10.7719  10.7843  11.0446  11.0476
    11.8626  11.8645  12.1345  12.1502  12.8381  12.8542  12.9334  12.9428
    13.1132  13.1191  13.1685  13.1737  13.2580  13.2608  13.3936  13.3957
    13.4520  13.4542  13.9154  13.9192  14.1181  14.1248  14.8900  14.9241
    15.3571  15.3655  15.5340  15.5523  15.7423  15.7706  15.8541  15.8782
    16.1949  16.2107  16.3710  16.3846  17.3064  17.3225

     occupation numbers 
     1.0000   1.0000   1.0000   1.0000   1.0000   1.0000   1.0000   1.0000
     1.0000   1.0000   1.0000   1.0000   1.0000   1.0000   1.0000   1.0000
     1.0000   1.0000   1.0000   1.0000   1.0000   1.0000   1.0000   1.0000
     1.0000   1.0000   1.0000   1.0000   1.0000   1.0000   1.0000   1.0000
     1.0000   1.0000   1.0000   1.0000   1.0000   1.0000   1.0000   1.0000
     1.0000   1.0000   1.0000   1.0000   1.0000   1.0000   1.0000   1.0000
     1.0000   1.0000   1.0000   1.0000   1.0000   1.0000   1.0000   1.0000
     1.0000   1.0000   1.0000   1.0000   1.0000   1.0000   1.0000   1.0000
     1.0000   1.0000   1.0000   1.0000   1.0000   1.0000   1.0280   0.8126
    -0.0000  -0.0000  -0.0000  -0.0000  -0.0000  -0.0000  -0.0000  -0.0000
    -0.0000  -0.0000  -0.0000  -0.0000  -0.0000  -0.0000

          k = 0.0000 0.0000 0.4167 (  9666 PWs)   bands (ev):

   -56.5057 -56.5057 -56.4980 -56.4980 -56.4783 -56.4783 -56.4770 -56.4770
   -28.5912 -28.5869 -28.5845 -28.5817 -28.5339 -28.5318 -28.5128 -28.5119
   -27.6422 -27.6378 -27.5781 -27.5712 -27.5689 -27.5489 -27.5420 -27.5334
   -27.5176 -27.4914 -27.4863 -27.4707 -27.4598 -27.4539 -27.4447 -27.4410
     3.8554   3.8555   4.8572   4.8576   8.0651   8.0702   8.4635   8.4715
     9.7545   9.7581  10.3461  10.3485  10.7986  10.8119  11.0009  11.0067
    12.1357  12.1376  12.1479  12.1611  12.6963  12.7115  12.8881  12.8998
    13.0761  13.0805  13.1921  13.1945  13.2271  13.2310  13.2798  13.2832
    13.6257  13.6273  13.9008  13.9049  14.3438  14.3628  14.7377  14.7718
    15.3634  15.3777  15.4595  15.4787  15.7675  15.7976  15.8353  15.8622
    16.1485  16.1637  16.2504  16.2642  17.4016  17.4068

     occupation numbers 
     1.0000   1.0000   1.0000   1.0000   1.0000   1.0000   1.0000   1.0000
     1.0000   1.0000   1.0000   1.0000   1.0000   1.0000   1.0000   1.0000
     1.0000   1.0000   1.0000   1.0000   1.0000   1.0000   1.0000   1.0000
     1.0000   1.0000   1.0000   1.0000   1.0000   1.0000   1.0000   1.0000
     1.0000   1.0000   1.0000   1.0000   1.0000   1.0000   1.0000   1.0000
     1.0000   1.0000   1.0000   1.0000   1.0000   1.0000   1.0000   1.0000
     1.0000   1.0000   1.0000   1.0000   1.0000   1.0000   1.0000   1.0000
     1.0000   1.0000   1.0000   1.0000   1.0000   1.0000   1.0000   1.0000
     1.0000   1.0000   1.0000   1.0000   1.0000   1.0000   1.0000   1.0000
    -0.0000  -0.0000  -0.0000  -0.0000  -0.0000  -0.0000  -0.0000  -0.0000
    -0.0000  -0.0000  -0.0000  -0.0000  -0.0000  -0.0000

          k = 0.0000 0.0000-0.5000 (  9658 PWs)   bands (ev):

   -56.5019 -56.5019 -56.5019 -56.5019 -56.4775 -56.4775 -56.4775 -56.4775
   -28.5894 -28.5894 -28.5834 -28.5834 -28.5232 -28.5232 -28.5217 -28.5217
   -27.6407 -27.6407 -27.5737 -27.5737 -27.5596 -27.5596 -27.5376 -27.5376
   -27.5045 -27.5045 -27.4780 -27.4780 -27.4569 -27.4569 -27.4428 -27.4428
     4.3289   4.3289   4.3290   4.3290   8.2827   8.2827   8.2891   8.2891
    10.0173  10.0173  10.0213  10.0213  10.8982  10.8982  10.9094  10.9094
    12.2474  12.2474  12.2540  12.2540  12.6847  12.6847  12.6972  12.6972
    13.1417  13.1417  13.1421  13.1421  13.2363  13.2363  13.2400  13.2400
    13.7826  13.7826  13.7857  13.7857  14.5659  14.5659  14.5945  14.5945
    15.4000  15.4000  15.4178  15.4178  15.8051  15.8051  15.8348  15.8348
    16.1660  16.1660  16.1797  16.1797  17.5426  17.5436

     occupation numbers 
     1.0000   1.0000   1.0000   1.0000   1.0000   1.0000   1.0000   1.0000
     1.0000   1.0000   1.0000   1.0000   1.0000   1.0000   1.0000   1.0000
     1.0000   1.0000   1.0000   1.0000   1.0000   1.0000   1.0000   1.0000
     1.0000   1.0000   1.0000   1.0000   1.0000   1.0000   1.0000   1.0000
     1.0000   1.0000   1.0000   1.0000   1.0000   1.0000   1.0000   1.0000
     1.0000   1.0000   1.0000   1.0000   1.0000   1.0000   1.0000   1.0000
     1.0000   1.0000   1.0000   1.0000   1.0000   1.0000   1.0000   1.0000
     1.0000   1.0000   1.0000   1.0000   1.0000   1.0000   1.0000   1.0000
     1.0000   1.0000   1.0000   1.0000   1.0000   1.0000   1.0000   1.0000
    -0.0000  -0.0000  -0.0000  -0.0000  -0.0000  -0.0000  -0.0000  -0.0000
    -0.0000  -0.0000  -0.0000  -0.0000  -0.0000  -0.0000

          k = 0.0000 0.0833 0.0833 (  9665 PWs)   bands (ev):

   -56.5149 -56.5149 -56.4846 -56.4846 -56.4811 -56.4811 -56.4784 -56.4784
   -28.5876 -28.5808 -28.5772 -28.5752 -28.5686 -28.5649 -28.4870 -28.4870
   -27.6284 -27.6255 -27.6065 -27.6034 -27.5482 -27.5439 -27.5396 -27.5387
   -27.5307 -27.5199 -27.4572 -27.4569 -27.4532 -27.4489 -27.4467 -27.4432
     2.7952   2.7952   6.9088   6.9141   7.3951   7.3981   7.9863   7.9925
    10.1065  10.1121  10.6055  10.6086  10.9968  11.0020  11.2460  11.2475
    11.8535  11.8549  12.3858  12.4016  12.6051  12.6096  12.8120  12.8211
    12.8789  12.8839  13.1319  13.1344  13.1579  13.1613  13.2138  13.2160
    13.5042  13.5088  13.6655  13.6728  13.8921  13.8951  15.4187  15.4291
    15.4855  15.4873  15.6656  15.6789  15.7436  15.7515  15.7643  15.7755
    16.4769  16.4959  16.6701  16.6744  16.8513  16.8762

     occupation numbers 
     1.0000   1.0000   1.0000   1.0000   1.0000   1.0000   1.0000   1.0000
     1.0000   1.0000   1.0000   1.0000   1.0000   1.0000   1.0000   1.0000
     1.0000   1.0000   1.0000   1.0000   1.0000   1.0000   1.0000   1.0000
     1.0000   1.0000   1.0000   1.0000   1.0000   1.0000   1.0000   1.0000
     1.0000   1.0000   1.0000   1.0000   1.0000   1.0000   1.0000   1.0000
     1.0000   1.0000   1.0000   1.0000   1.0000   1.0000   1.0000   1.0000
     1.0000   1.0000   1.0000   1.0000   1.0000   1.0000   1.0000   1.0000
     1.0000   1.0000   1.0000   1.0000   1.0000   1.0000   1.0000   1.0000
     1.0000   1.0000   1.0000   1.0000   1.0000   1.0000  -0.0000  -0.0000
    -0.0000  -0.0000  -0.0000  -0.0000  -0.0000  -0.0000  -0.0000  -0.0000
    -0.0000  -0.0000  -0.0000  -0.0000  -0.0000  -0.0000

          k = 0.0000 0.0833 0.1667 (  9653 PWs)   bands (ev):

   -56.5136 -56.5136 -56.4871 -56.4871 -56.4808 -56.4808 -56.4774 -56.4774
   -28.5900 -28.5833 -28.5768 -28.5767 -28.5627 -28.5589 -28.4907 -28.4906
   -27.6340 -27.6281 -27.6005 -27.5948 -27.5523 -27.5472 -27.5411 -27.5377
   -27.5274 -27.5120 -27.4638 -27.4608 -27.4552 -27.4501 -27.4451 -27.4404
     2.9385   2.9386   6.5239   6.5275   7.4126   7.4150   8.2331   8.2397
     9.9138   9.9181  10.6960  10.6970  10.8384  10.8412  11.3145  11.3164
    11.6694  11.6735  12.4475  12.4528  12.6191  12.6255  12.9297  12.9372
    13.0462  13.0521  13.1324  13.1328  13.1822  13.1847  13.2617  13.2642
    13.4810  13.4860  13.6756  13.6863  13.9990  14.0043  15.2963  15.3174
    15.3784  15.3927  15.6419  15.6561  15.7226  15.7364  15.8073  15.8289
    16.3631  16.3809  16.6152  16.6249  16.9884  17.0153

     occupation numbers 
     1.0000   1.0000   1.0000   1.0000   1.0000   1.0000   1.0000   1.0000
     1.0000   1.0000   1.0000   1.0000   1.0000   1.0000   1.0000   1.0000
     1.0000   1.0000   1.0000   1.0000   1.0000   1.0000   1.0000   1.0000
     1.0000   1.0000   1.0000   1.0000   1.0000   1.0000   1.0000   1.0000
     1.0000   1.0000   1.0000   1.0000   1.0000   1.0000   1.0000   1.0000
     1.0000   1.0000   1.0000   1.0000   1.0000   1.0000   1.0000   1.0000
     1.0000   1.0000   1.0000   1.0000   1.0000   1.0000   1.0000   1.0000
     1.0000   1.0000   1.0000   1.0000   1.0000   1.0000   1.0000   1.0000
     1.0000   1.0000   1.0000   1.0000   1.0000   1.0000  -0.0000  -0.0000
    -0.0000  -0.0000  -0.0000  -0.0000  -0.0000  -0.0000  -0.0000  -0.0000
    -0.0000  -0.0000  -0.0000  -0.0000  -0.0000  -0.0000

          k = 0.0000 0.0833 0.2500 (  9646 PWs)   bands (ev):

   -56.5115 -56.5115 -56.4904 -56.4904 -56.4802 -56.4802 -56.4769 -56.4769
   -28.5915 -28.5849 -28.5794 -28.5775 -28.5543 -28.5511 -28.4966 -28.4964
   -27.6384 -27.6307 -27.5928 -27.5864 -27.5578 -27.5481 -27.5394 -27.5373
   -27.5265 -27.5029 -27.4722 -27.4638 -27.4582 -27.4521 -27.4439 -27.4387
     3.1742   3.1743   6.0098   6.0118   7.5333   7.5350   8.4347   8.4416
     9.7449   9.7463  10.5620  10.5655  10.8458  10.8486  11.3943  11.4025
    11.5686  11.5703  12.2885  12.3013  12.7224  12.7239  13.0169  13.0312
    13.0877  13.0914  13.1758  13.1818  13.2488  13.2494  13.3326  13.3355
    13.5253  13.5307  13.7537  13.7669  14.0709  14.0762  15.0810  15.1089
    15.3417  15.3520  15.5645  15.5801  15.7105  15.7323  15.8493  15.8737
    16.2536  16.2692  16.5140  16.5265  17.1638  17.1917

     occupation numbers 
     1.0000   1.0000   1.0000   1.0000   1.0000   1.0000   1.0000   1.0000
     1.0000   1.0000   1.0000   1.0000   1.0000   1.0000   1.0000   1.0000
     1.0000   1.0000   1.0000   1.0000   1.0000   1.0000   1.0000   1.0000
     1.0000   1.0000   1.0000   1.0000   1.0000   1.0000   1.0000   1.0000
     1.0000   1.0000   1.0000   1.0000   1.0000   1.0000   1.0000   1.0000
     1.0000   1.0000   1.0000   1.0000   1.0000   1.0000   1.0000   1.0000
     1.0000   1.0000   1.0000   1.0000   1.0000   1.0000   1.0000   1.0000
     1.0000   1.0000   1.0000   1.0000   1.0000   1.0000   1.0000   1.0000
     1.0000   1.0000   1.0000   1.0000   1.0000   1.0000  -0.0013  -0.0001
    -0.0000  -0.0000  -0.0000  -0.0000  -0.0000  -0.0000  -0.0000  -0.0000
    -0.0000  -0.0000  -0.0000  -0.0000  -0.0000  -0.0000

          k = 0.0000 0.0833 0.3333 (  9649 PWs)   bands (ev):

   -56.5087 -56.5087 -56.4940 -56.4940 -56.4794 -56.4794 -56.4768 -56.4768
   -28.5917 -28.5855 -28.5822 -28.5792 -28.5447 -28.5421 -28.5044 -28.5040
   -27.6408 -27.6338 -27.5842 -27.5794 -27.5636 -27.5467 -27.5421 -27.5316
   -27.5275 -27.4938 -27.4822 -27.4658 -27.4613 -27.4545 -27.4428 -27.4382
     3.4970   3.4971   5.4517   5.4528   7.7142   7.7164   8.5121   8.5185
     9.6730   9.6750  10.3915  10.3958  10.9572  10.9602  11.1471  11.1596
    11.8087  11.8124  12.1757  12.1891  12.7438  12.7483  12.9868  12.9936
    13.0252  13.0301  13.2293  13.2342  13.2969  13.2985  13.4269  13.4322
    13.4958  13.5062  13.9329  13.9411  14.1523  14.1604  14.8960  14.9294
    15.3226  15.3349  15.4783  15.4939  15.7123  15.7380  15.8532  15.8789
    16.1744  16.1872  16.3942  16.4079  17.2784  17.3018

     occupation numbers 
     1.0000   1.0000   1.0000   1.0000   1.0000   1.0000   1.0000   1.0000
     1.0000   1.0000   1.0000   1.0000   1.0000   1.0000   1.0000   1.0000
     1.0000   1.0000   1.0000   1.0000   1.0000   1.0000   1.0000   1.0000
     1.0000   1.0000   1.0000   1.0000   1.0000   1.0000   1.0000   1.0000
     1.0000   1.0000   1.0000   1.0000   1.0000   1.0000   1.0000   1.0000
     1.0000   1.0000   1.0000   1.0000   1.0000   1.0000   1.0000   1.0000
     1.0000   1.0000   1.0000   1.0000   1.0000   1.0000   1.0000   1.0000
     1.0000   1.0000   1.0000   1.0000   1.0000   1.0000   1.0000   1.0000
     1.0000   1.0000   1.0000   1.0000   1.0000   1.0000   1.0147   0.7463
    -0.0000  -0.0000  -0.0000  -0.0000  -0.0000  -0.0000  -0.0000  -0.0000
    -0.0000  -0.0000  -0.0000  -0.0000  -0.0000  -0.0000

          k = 0.0000 0.0833 0.4167 (  9647 PWs)   bands (ev):

   -56.5054 -56.5054 -56.4979 -56.4979 -56.4785 -56.4785 -56.4771 -56.4771
   -28.5907 -28.5865 -28.5837 -28.5811 -28.5344 -28.5324 -28.5137 -28.5128
   -27.6411 -27.6370 -27.5780 -27.5705 -27.5689 -27.5504 -27.5420 -27.5327
   -27.5193 -27.4945 -27.4845 -27.4701 -27.4614 -27.4569 -27.4416 -27.4389
     3.8994   3.8996   4.8951   4.8956   7.9380   7.9410   8.4045   8.4096
     9.7774   9.7810  10.2246  10.2285  10.9622  10.9679  11.0305  11.0358
    12.0233  12.0294  12.2039  12.2114  12.6465  12.6511  12.8361  12.8438
    13.0725  13.0764  13.2589  13.2619  13.2901  13.2930  13.3200  13.3226
    13.6491  13.6523  13.9194  13.9240  14.3705  14.3913  14.7451  14.7791
    15.3260  15.3410  15.4055  15.4214  15.7390  15.7664  15.8300  15.8577
    16.1460  16.1557  16.2755  16.2881  17.3833  17.3972

     occupation numbers 
     1.0000   1.0000   1.0000   1.0000   1.0000   1.0000   1.0000   1.0000
     1.0000   1.0000   1.0000   1.0000   1.0000   1.0000   1.0000   1.0000
     1.0000   1.0000   1.0000   1.0000   1.0000   1.0000   1.0000   1.0000
     1.0000   1.0000   1.0000   1.0000   1.0000   1.0000   1.0000   1.0000
     1.0000   1.0000   1.0000   1.0000   1.0000   1.0000   1.0000   1.0000
     1.0000   1.0000   1.0000   1.0000   1.0000   1.0000   1.0000   1.0000
     1.0000   1.0000   1.0000   1.0000   1.0000   1.0000   1.0000   1.0000
     1.0000   1.0000   1.0000   1.0000   1.0000   1.0000   1.0000   1.0000
     1.0000   1.0000   1.0000   1.0000   1.0000   1.0000   1.0000   1.0001
    -0.0000  -0.0000  -0.0000  -0.0000  -0.0000  -0.0000  -0.0000  -0.0000
    -0.0000  -0.0000  -0.0000  -0.0000  -0.0000  -0.0000

          k = 0.0000 0.0833-0.5000 (  9688 PWs)   bands (ev):

   -56.5017 -56.5017 -56.5017 -56.5017 -56.4777 -56.4777 -56.4777 -56.4777
   -28.5888 -28.5888 -28.5828 -28.5828 -28.5241 -28.5241 -28.5222 -28.5222
   -27.6397 -27.6397 -27.5735 -27.5735 -27.5601 -27.5601 -27.5373 -27.5373
   -27.5069 -27.5069 -27.4767 -27.4767 -27.4594 -27.4594 -27.4402 -27.4402
     4.3705   4.3705   4.3708   4.3708   8.1816   8.1816   8.1883   8.1883
     9.9986   9.9986  10.0030  10.0030  10.9696  10.9696  10.9828  10.9828
    12.1976  12.1976  12.2036  12.2036  12.6441  12.6441  12.6599  12.6599
    13.1820  13.1820  13.1863  13.1863  13.2823  13.2823  13.2843  13.2843
    13.8038  13.8038  13.8072  13.8072  14.5814  14.5814  14.6108  14.6108
    15.3537  15.3537  15.3705  15.3705  15.7854  15.7854  15.8151  15.8152
    16.1821  16.1821  16.1941  16.1941  17.5404  17.5451

     occupation numbers 
     1.0000   1.0000   1.0000   1.0000   1.0000   1.0000   1.0000   1.0000
     1.0000   1.0000   1.0000   1.0000   1.0000   1.0000   1.0000   1.0000
     1.0000   1.0000   1.0000   1.0000   1.0000   1.0000   1.0000   1.0000
     1.0000   1.0000   1.0000   1.0000   1.0000   1.0000   1.0000   1.0000
     1.0000   1.0000   1.0000   1.0000   1.0000   1.0000   1.0000   1.0000
     1.0000   1.0000   1.0000   1.0000   1.0000   1.0000   1.0000   1.0000
     1.0000   1.0000   1.0000   1.0000   1.0000   1.0000   1.0000   1.0000
     1.0000   1.0000   1.0000   1.0000   1.0000   1.0000   1.0000   1.0000
     1.0000   1.0000   1.0000   1.0000   1.0000   1.0000   1.0000   1.0000
    -0.0000  -0.0000  -0.0000  -0.0000  -0.0000  -0.0000  -0.0000  -0.0000
    -0.0000  -0.0000  -0.0000  -0.0000  -0.0000  -0.0000

          k = 0.0000 0.1667 0.1667 (  9657 PWs)   bands (ev):

   -56.5123 -56.5123 -56.4886 -56.4886 -56.4811 -56.4811 -56.4770 -56.4770
   -28.5911 -28.5849 -28.5758 -28.5757 -28.5597 -28.5556 -28.4943 -28.4941
   -27.6348 -27.6308 -27.5943 -27.5906 -27.5532 -27.5502 -27.5429 -27.5396
   -27.5236 -27.5057 -27.4695 -27.4658 -27.4579 -27.4499 -27.4425 -27.4381
     3.0805   3.0806   6.3976   6.4020   7.2080   7.2123   8.4069   8.4123
     9.8324   9.8358  10.5106  10.5131  10.7868  10.7880  11.3571  11.3600
    11.7805  11.7808  12.4122  12.4178  12.5882  12.5959  12.9947  12.9962
    13.0904  13.0986  13.1707  13.1714  13.2429  13.2495  13.3345  13.3396
    13.4666  13.4745  13.7320  13.7461  14.0750  14.0824  15.2515  15.2732
    15.3009  15.3202  15.5338  15.5459  15.6933  15.7143  15.8133  15.8379
    16.2776  16.2945  16.6074  16.6171  17.0334  17.0679

     occupation numbers 
     1.0000   1.0000   1.0000   1.0000   1.0000   1.0000   1.0000   1.0000
     1.0000   1.0000   1.0000   1.0000   1.0000   1.0000   1.0000   1.0000
     1.0000   1.0000   1.0000   1.0000   1.0000   1.0000   1.0000   1.0000
     1.0000   1.0000   1.0000   1.0000   1.0000   1.0000   1.0000   1.0000
     1.0000   1.0000   1.0000   1.0000   1.0000   1.0000   1.0000   1.0000
     1.0000   1.0000   1.0000   1.0000   1.0000   1.0000   1.0000   1.0000
     1.0000   1.0000   1.0000   1.0000   1.0000   1.0000   1.0000   1.0000
     1.0000   1.0000   1.0000   1.0000   1.0000   1.0000   1.0000   1.0000
     1.0000   1.0000   1.0000   1.0000   1.0000   1.0000  -0.0000  -0.0000
    -0.0000  -0.0000  -0.0000  -0.0000  -0.0000  -0.0000  -0.0000  -0.0000
    -0.0000  -0.0000  -0.0000  -0.0000  -0.0000  -0.0000

          k = 0.0000 0.1667 0.2500 (  9644 PWs)   bands (ev):

   -56.5103 -56.5103 -56.4910 -56.4910 -56.4808 -56.4808 -56.4768 -56.4768
   -28.5915 -28.5857 -28.5770 -28.5760 -28.5534 -28.5499 -28.4999 -28.4997
   -27.6368 -27.6318 -27.5885 -27.5843 -27.5573 -27.5513 -27.5423 -27.5395
   -27.5227 -27.4983 -27.4780 -27.4692 -27.4613 -27.4506 -27.4406 -27.4361
     3.3138   3.3139   6.0387   6.0418   7.2042   7.2079   8.5048   8.5091
     9.7419   9.7438  10.2898  10.2940  10.8765  10.8777  11.4820  11.4826
    11.6895  11.6907  12.3247  12.3302  12.5676  12.5730  12.9873  12.9946
    13.1248  13.1379  13.2044  13.2099  13.3292  13.3303  13.4421  13.4501
    13.5202  13.5277  13.8632  13.8787  14.1363  14.1437  15.0964  15.1216
    15.2383  15.2573  15.4366  15.4498  15.6640  15.6870  15.8197  15.8466
    16.1948  16.2088  16.5338  16.5454  17.1534  17.1921

     occupation numbers 
     1.0000   1.0000   1.0000   1.0000   1.0000   1.0000   1.0000   1.0000
     1.0000   1.0000   1.0000   1.0000   1.0000   1.0000   1.0000   1.0000
     1.0000   1.0000   1.0000   1.0000   1.0000   1.0000   1.0000   1.0000
     1.0000   1.0000   1.0000   1.0000   1.0000   1.0000   1.0000   1.0000
     1.0000   1.0000   1.0000   1.0000   1.0000   1.0000   1.0000   1.0000
     1.0000   1.0000   1.0000   1.0000   1.0000   1.0000   1.0000   1.0000
     1.0000   1.0000   1.0000   1.0000   1.0000   1.0000   1.0000   1.0000
     1.0000   1.0000   1.0000   1.0000   1.0000   1.0000   1.0000   1.0000
     1.0000   1.0000   1.0000   1.0000   1.0000   1.0000  -0.0003  -0.0000
    -0.0000  -0.0000  -0.0000  -0.0000  -0.0000  -0.0000  -0.0000  -0.0000
    -0.0000  -0.0000  -0.0000  -0.0000  -0.0000  -0.0000

          k = 0.0000 0.1667 0.3333 (  9647 PWs)   bands (ev):

   -56.5077 -56.5077 -56.4941 -56.4941 -56.4801 -56.4801 -56.4770 -56.4770
   -28.5909 -28.5855 -28.5795 -28.5773 -28.5451 -28.5424 -28.5074 -28.5070
   -27.6381 -27.6329 -27.5832 -27.5774 -27.5630 -27.5502 -27.5435 -27.5341
   -27.5247 -27.4922 -27.4871 -27.4716 -27.4633 -27.4526 -27.4388 -27.4351
     3.6330   3.6332   5.5381   5.5398   7.3632   7.3658   8.4327   8.4360
     9.7331   9.7364  10.1895  10.1938  10.9873  10.9903  11.3856  11.3952
    11.7521  11.7565  12.1888  12.1976  12.5943  12.6020  12.8754  12.8842
    13.1118  13.1212  13.2499  13.2557  13.3782  13.3795  13.5252  13.5353
    13.5894  13.6026  13.9882  13.9988  14.2441  14.2565  14.9096  14.9406
    15.2238  15.2424  15.3433  15.3533  15.6519  15.6770  15.8053  15.8357
    16.1516  16.1611  16.4396  16.4526  17.2363  17.2692

     occupation numbers 
     1.0000   1.0000   1.0000   1.0000   1.0000   1.0000   1.0000   1.0000
     1.0000   1.0000   1.0000   1.0000   1.0000   1.0000   1.0000   1.0000
     1.0000   1.0000   1.0000   1.0000   1.0000   1.0000   1.0000   1.0000
     1.0000   1.0000   1.0000   1.0000   1.0000   1.0000   1.0000   1.0000
     1.0000   1.0000   1.0000   1.0000   1.0000   1.0000   1.0000   1.0000
     1.0000   1.0000   1.0000   1.0000   1.0000   1.0000   1.0000   1.0000
     1.0000   1.0000   1.0000   1.0000   1.0000   1.0000   1.0000   1.0000
     1.0000   1.0000   1.0000   1.0000   1.0000   1.0000   1.0000   1.0000
     1.0000   1.0000   1.0000   1.0000   1.0000   1.0000   0.9490   0.5849
    -0.0000  -0.0000  -0.0000  -0.0000  -0.0000  -0.0000  -0.0000  -0.0000
    -0.0000  -0.0000  -0.0000  -0.0000  -0.0000  -0.0000

          k = 0.0000 0.1667 0.4167 (  9668 PWs)   bands (ev):

   -56.5046 -56.5046 -56.4976 -56.4976 -56.4792 -56.4792 -56.4775 -56.4775
   -28.5893 -28.5854 -28.5817 -28.5793 -28.5357 -28.5338 -28.5161 -28.5154
   -27.6378 -27.6346 -27.5787 -27.5715 -27.5664 -27.5530 -27.5417 -27.5312
   -27.5226 -27.5001 -27.4840 -27.4746 -27.4623 -27.4557 -27.4373 -27.4352
     4.0302   4.0306   5.0056   5.0066   7.6069   7.6091   8.1966   8.1991
     9.8544   9.8579  10.1271  10.1306  11.0543  11.0630  11.2132  11.2271
    11.9236  11.9286  12.1474  12.1531  12.5356  12.5450  12.7020  12.7126
    13.1760  13.1803  13.2850  13.2898  13.3738  13.3761  13.4817  13.4830
    13.7242  13.7283  13.9708  13.9769  14.4435  14.4686  14.7616  14.7945
    15.2227  15.2390  15.2756  15.2842  15.6686  15.6954  15.7663  15.7978
    16.1696  16.1755  16.3386  16.3512  17.3266  17.3478

     occupation numbers 
     1.0000   1.0000   1.0000   1.0000   1.0000   1.0000   1.0000   1.0000
     1.0000   1.0000   1.0000   1.0000   1.0000   1.0000   1.0000   1.0000
     1.0000   1.0000   1.0000   1.0000   1.0000   1.0000   1.0000   1.0000
     1.0000   1.0000   1.0000   1.0000   1.0000   1.0000   1.0000   1.0000
     1.0000   1.0000   1.0000   1.0000   1.0000   1.0000   1.0000   1.0000
     1.0000   1.0000   1.0000   1.0000   1.0000   1.0000   1.0000   1.0000
     1.0000   1.0000   1.0000   1.0000   1.0000   1.0000   1.0000   1.0000
     1.0000   1.0000   1.0000   1.0000   1.0000   1.0000   1.0000   1.0000
     1.0000   1.0000   1.0000   1.0000   1.0000   1.0000   1.0000   1.0003
    -0.0000  -0.0000  -0.0000  -0.0000  -0.0000  -0.0000  -0.0000  -0.0000
    -0.0000  -0.0000  -0.0000  -0.0000  -0.0000  -0.0000

          k = 0.0000 0.1667-0.5000 (  9654 PWs)   bands (ev):

   -56.5011 -56.5011 -56.5011 -56.5011 -56.4783 -56.4783 -56.4783 -56.4783
   -28.5871 -28.5871 -28.5812 -28.5812 -28.5265 -28.5265 -28.5238 -28.5238
   -27.6365 -27.6365 -27.5745 -27.5745 -27.5600 -27.5600 -27.5366 -27.5366
   -27.5117 -27.5117 -27.4788 -27.4788 -27.4592 -27.4592 -27.4360 -27.4360
     4.4936   4.4936   4.4943   4.4943   7.8953   7.8953   7.9021   7.9021
    10.0150  10.0150  10.0190  10.0190  11.1035  11.1035  11.1176  11.1176
    12.0900  12.0900  12.0946  12.0946  12.5394  12.5394  12.5551  12.5551
    13.2748  13.2748  13.2757  13.2757  13.3901  13.3901  13.3913  13.3913
    13.8667  13.8667  13.8706  13.8706  14.6210  14.6210  14.6523  14.6523
    15.2361  15.2361  15.2507  15.2507  15.7131  15.7131  15.7429  15.7429
    16.2396  16.2396  16.2502  16.2502  17.4852  17.4928

     occupation numbers 
     1.0000   1.0000   1.0000   1.0000   1.0000   1.0000   1.0000   1.0000
     1.0000   1.0000   1.0000   1.0000   1.0000   1.0000   1.0000   1.0000
     1.0000   1.0000   1.0000   1.0000   1.0000   1.0000   1.0000   1.0000
     1.0000   1.0000   1.0000   1.0000   1.0000   1.0000   1.0000   1.0000
     1.0000   1.0000   1.0000   1.0000   1.0000   1.0000   1.0000   1.0000
     1.0000   1.0000   1.0000   1.0000   1.0000   1.0000   1.0000   1.0000
     1.0000   1.0000   1.0000   1.0000   1.0000   1.0000   1.0000   1.0000
     1.0000   1.0000   1.0000   1.0000   1.0000   1.0000   1.0000   1.0000
     1.0000   1.0000   1.0000   1.0000   1.0000   1.0000   1.0000   1.0000
    -0.0000  -0.0000  -0.0000  -0.0000  -0.0000  -0.0000  -0.0000  -0.0000
    -0.0000  -0.0000  -0.0000  -0.0000  -0.0000  -0.0000

          k = 0.0000 0.2500 0.2500 (  9661 PWs)   bands (ev):

   -56.5085 -56.5085 -56.4924 -56.4924 -56.4811 -56.4811 -56.4769 -56.4769
   -28.5909 -28.5856 -28.5759 -28.5751 -28.5505 -28.5471 -28.5053 -28.5049
   -27.6352 -27.6320 -27.5839 -27.5815 -27.5579 -27.5540 -27.5422 -27.5409
   -27.5211 -27.4950 -27.4846 -27.4748 -27.4644 -27.4482 -27.4380 -27.4341
     3.5428   3.5430   5.9655   5.9687   6.9414   6.9454   8.4365   8.4415
     9.7518   9.7550  10.1865  10.1916  10.9259  10.9284  11.3506  11.3517
    11.8600  11.8638  12.2864  12.2899  12.5060  12.5152  12.9036  12.9111
    13.1473  13.1566  13.2698  13.2792  13.4413  13.4427  13.5197  13.5289
    13.5707  13.5812  13.9842  13.9965  14.2202  14.2258  15.0462  15.0666
    15.1396  15.1643  15.2932  15.3047  15.6141  15.6392  15.7624  15.7912
    16.1597  16.1707  16.5125  16.5232  17.1854  17.2284

     occupation numbers 
     1.0000   1.0000   1.0000   1.0000   1.0000   1.0000   1.0000   1.0000
     1.0000   1.0000   1.0000   1.0000   1.0000   1.0000   1.0000   1.0000
     1.0000   1.0000   1.0000   1.0000   1.0000   1.0000   1.0000   1.0000
     1.0000   1.0000   1.0000   1.0000   1.0000   1.0000   1.0000   1.0000
     1.0000   1.0000   1.0000   1.0000   1.0000   1.0000   1.0000   1.0000
     1.0000   1.0000   1.0000   1.0000   1.0000   1.0000   1.0000   1.0000
     1.0000   1.0000   1.0000   1.0000   1.0000   1.0000   1.0000   1.0000
     1.0000   1.0000   1.0000   1.0000   1.0000   1.0000   1.0000   1.0000
     1.0000   1.0000   1.0000   1.0000   1.0000   1.0000  -0.0130  -0.0038
    -0.0000  -0.0000  -0.0000  -0.0000  -0.0000  -0.0000  -0.0000  -0.0000
    -0.0000  -0.0000  -0.0000  -0.0000  -0.0000  -0.0000

          k = 0.0000 0.2500 0.3333 (  9636 PWs)   bands (ev):

   -56.5061 -56.5061 -56.4945 -56.4945 -56.4808 -56.4808 -56.4774 -56.4774
   -28.5894 -28.5846 -28.5770 -28.5755 -28.5448 -28.5422 -28.5121 -28.5117
   -27.6340 -27.6310 -27.5830 -27.5765 -27.5621 -27.5523 -27.5425 -27.5365
   -27.5230 -27.4951 -27.4920 -27.4791 -27.4630 -27.4479 -27.4360 -27.4328
     3.8557   3.8561   5.6434   5.6458   6.9527   6.9562   8.1882   8.1920
     9.8431   9.8467  10.1796  10.1836  10.9892  10.9914  11.3885  11.3921
    11.8760  11.8782  12.1108  12.1121  12.4497  12.4600  12.7482  12.7567
    13.1965  13.2065  13.3024  13.3093  13.4485  13.4520  13.6454  13.6488
    13.7126  13.7173  14.0563  14.0673  14.3686  14.3885  14.9104  14.9351
    15.0747  15.0986  15.1866  15.1939  15.5821  15.6066  15.7077  15.7394
    16.1730  16.1809  16.4786  16.4885  17.1844  17.2199

     occupation numbers 
     1.0000   1.0000   1.0000   1.0000   1.0000   1.0000   1.0000   1.0000
     1.0000   1.0000   1.0000   1.0000   1.0000   1.0000   1.0000   1.0000
     1.0000   1.0000   1.0000   1.0000   1.0000   1.0000   1.0000   1.0000
     1.0000   1.0000   1.0000   1.0000   1.0000   1.0000   1.0000   1.0000
     1.0000   1.0000   1.0000   1.0000   1.0000   1.0000   1.0000   1.0000
     1.0000   1.0000   1.0000   1.0000   1.0000   1.0000   1.0000   1.0000
     1.0000   1.0000   1.0000   1.0000   1.0000   1.0000   1.0000   1.0000
     1.0000   1.0000   1.0000   1.0000   1.0000   1.0000   1.0000   1.0000
     1.0000   1.0000   1.0000   1.0000   1.0000   1.0000   0.9432   0.6670
    -0.0021  -0.0003  -0.0000  -0.0000  -0.0000  -0.0000  -0.0000  -0.0000
    -0.0000  -0.0000  -0.0000  -0.0000  -0.0000  -0.0000

          k = 0.0000 0.2500 0.4167 (  9659 PWs)   bands (ev):

   -56.5033 -56.5033 -56.4973 -56.4973 -56.4801 -56.4801 -56.4782 -56.4782
   -28.5871 -28.5834 -28.5791 -28.5771 -28.5373 -28.5355 -28.5200 -28.5194
   -27.6327 -27.6305 -27.5818 -27.5760 -27.5615 -27.5529 -27.5408 -27.5302
   -27.5255 -27.5053 -27.4903 -27.4835 -27.4584 -27.4497 -27.4343 -27.4325
     4.2435   4.2440   5.1762   5.1776   7.1710   7.1739   7.8425   7.8455
     9.9965   9.9995  10.1861  10.1891  11.0743  11.0807  11.3416  11.3527
    11.9082  11.9110  11.9805  11.9856  12.4123  12.4239  12.5557  12.5671
    13.2754  13.2836  13.3654  13.3674  13.4291  13.4309  13.6286  13.6310
    13.8637  13.8665  14.0587  14.0664  14.5326  14.5616  14.7627  14.7910
    15.0725  15.0897  15.1188  15.1222  15.5765  15.6017  15.6513  15.6830
    16.2387  16.2459  16.4218  16.4330  17.2188  17.2410

     occupation numbers 
     1.0000   1.0000   1.0000   1.0000   1.0000   1.0000   1.0000   1.0000
     1.0000   1.0000   1.0000   1.0000   1.0000   1.0000   1.0000   1.0000
     1.0000   1.0000   1.0000   1.0000   1.0000   1.0000   1.0000   1.0000
     1.0000   1.0000   1.0000   1.0000   1.0000   1.0000   1.0000   1.0000
     1.0000   1.0000   1.0000   1.0000   1.0000   1.0000   1.0000   1.0000
     1.0000   1.0000   1.0000   1.0000   1.0000   1.0000   1.0000   1.0000
     1.0000   1.0000   1.0000   1.0000   1.0000   1.0000   1.0000   1.0000
     1.0000   1.0000   1.0000   1.0000   1.0000   1.0000   1.0000   1.0000
     1.0000   1.0000   1.0000   1.0000   1.0000   1.0000   1.0000   1.0002
    -0.0025  -0.0006  -0.0000  -0.0000  -0.0000  -0.0000  -0.0000  -0.0000
    -0.0000  -0.0000  -0.0000  -0.0000  -0.0000  -0.0000

          k = 0.0000 0.2500-0.5000 (  9686 PWs)   bands (ev):

   -56.5003 -56.5003 -56.5003 -56.5003 -56.4792 -56.4792 -56.4792 -56.4792
   -28.5844 -28.5844 -28.5790 -28.5790 -28.5297 -28.5297 -28.5266 -28.5266
   -27.6313 -27.6313 -27.5792 -27.5792 -27.5569 -27.5569 -27.5354 -27.5354
   -27.5163 -27.5163 -27.4873 -27.4873 -27.4535 -27.4535 -27.4330 -27.4330
     4.6918   4.6918   4.6929   4.6929   7.4838   7.4838   7.4900   7.4900
    10.1295  10.1295  10.1325  10.1325  11.2001  11.2001  11.2118  11.2118
    11.9552  11.9552  11.9571  11.9571  12.4184  12.4184  12.4309  12.4309
    13.3461  13.3461  13.3526  13.3526  13.5156  13.5156  13.5216  13.5216
    13.9874  13.9874  13.9930  13.9930  14.6545  14.6545  14.6849  14.6849
    15.0843  15.0843  15.0960  15.0960  15.6024  15.6024  15.6313  15.6313
    16.3328  16.3328  16.3437  16.3437  17.3590  17.3601

     occupation numbers 
     1.0000   1.0000   1.0000   1.0000   1.0000   1.0000   1.0000   1.0000
     1.0000   1.0000   1.0000   1.0000   1.0000   1.0000   1.0000   1.0000
     1.0000   1.0000   1.0000   1.0000   1.0000   1.0000   1.0000   1.0000
     1.0000   1.0000   1.0000   1.0000   1.0000   1.0000   1.0000   1.0000
     1.0000   1.0000   1.0000   1.0000   1.0000   1.0000   1.0000   1.0000
     1.0000   1.0000   1.0000   1.0000   1.0000   1.0000   1.0000   1.0000
     1.0000   1.0000   1.0000   1.0000   1.0000   1.0000   1.0000   1.0000
     1.0000   1.0000   1.0000   1.0000   1.0000   1.0000   1.0000   1.0000
     1.0000   1.0000   1.0000   1.0000   1.0000   1.0000   1.0000   1.0000
    -0.0010  -0.0010  -0.0003  -0.0003  -0.0000  -0.0000  -0.0000  -0.0000
    -0.0000  -0.0000  -0.0000  -0.0000  -0.0000  -0.0000

          k = 0.0000 0.3333 0.3333 (  9619 PWs)   bands (ev):

   -56.5041 -56.5041 -56.4955 -56.4955 -56.4811 -56.4811 -56.4782 -56.4782
   -28.5870 -28.5828 -28.5758 -28.5749 -28.5428 -28.5403 -28.5182 -28.5174
   -27.6296 -27.6284 -27.5847 -27.5791 -27.5592 -27.5512 -27.5398 -27.5368
   -27.5236 -27.5003 -27.4981 -27.4869 -27.4578 -27.4443 -27.4345 -27.4315
     4.1586   4.1590   5.6403   5.6424   6.6787   6.6814   7.8200   7.8238
    10.0316  10.0344  10.3051  10.3081  10.9405  10.9423  11.2582  11.2604
    11.8942  11.9009  12.1585  12.1630  12.3091  12.3186  12.6281  12.6360
    13.1777  13.1861  13.3903  13.3953  13.5584  13.5612  13.7201  13.7254
    13.8833  13.8948  14.0941  14.1069  14.4880  14.5137  14.8480  14.8596
    14.9401  14.9602  15.0562  15.0730  15.5200  15.5431  15.6014  15.6314
    16.2321  16.2409  16.4898  16.4968  17.1462  17.1767

     occupation numbers 
     1.0000   1.0000   1.0000   1.0000   1.0000   1.0000   1.0000   1.0000
     1.0000   1.0000   1.0000   1.0000   1.0000   1.0000   1.0000   1.0000
     1.0000   1.0000   1.0000   1.0000   1.0000   1.0000   1.0000   1.0000
     1.0000   1.0000   1.0000   1.0000   1.0000   1.0000   1.0000   1.0000
     1.0000   1.0000   1.0000   1.0000   1.0000   1.0000   1.0000   1.0000
     1.0000   1.0000   1.0000   1.0000   1.0000   1.0000   1.0000   1.0000
     1.0000   1.0000   1.0000   1.0000   1.0000   1.0000   1.0000   1.0000
     1.0000   1.0000   1.0000   1.0000   1.0000   1.0000   1.0000   1.0000
     1.0000   1.0000   1.0000   1.0000   1.0000   1.0000   1.0144   1.0236
     0.5917   0.2885  -0.0074  -0.0024  -0.0000  -0.0000  -0.0000  -0.0000
    -0.0000  -0.0000  -0.0000  -0.0000  -0.0000  -0.0000

          k = 0.0000 0.3333 0.4167 (  9633 PWs)   bands (ev):

   -56.5017 -56.5017 -56.4972 -56.4972 -56.4808 -56.4808 -56.4791 -56.4791
   -28.5840 -28.5808 -28.5767 -28.5753 -28.5383 -28.5367 -28.5248 -28.5241
   -27.6262 -27.6253 -27.5874 -27.5835 -27.5550 -27.5495 -27.5388 -27.5300
   -27.5274 -27.5088 -27.5000 -27.4932 -27.4517 -27.4438 -27.4333 -27.4312
     4.5304   4.5311   5.3665   5.3683   6.7397   6.7426   7.4121   7.4152
    10.2064  10.2082  10.3657  10.3678  11.0317  11.0346  11.3562  11.3632
    11.7474  11.7504  11.9382  11.9433  12.3002  12.3064  12.4378  12.4464
    13.2737  13.2819  13.4170  13.4192  13.5829  13.5854  13.7587  13.7638
    14.0548  14.0621  14.1737  14.1817  14.5737  14.5974  14.7022  14.7207
    14.9166  14.9335  14.9742  14.9933  15.4932  15.5136  15.5342  15.5626
    16.3319  16.3419  16.5036  16.5099  17.0966  17.1157

     occupation numbers 
     1.0000   1.0000   1.0000   1.0000   1.0000   1.0000   1.0000   1.0000
     1.0000   1.0000   1.0000   1.0000   1.0000   1.0000   1.0000   1.0000
     1.0000   1.0000   1.0000   1.0000   1.0000   1.0000   1.0000   1.0000
     1.0000   1.0000   1.0000   1.0000   1.0000   1.0000   1.0000   1.0000
     1.0000   1.0000   1.0000   1.0000   1.0000   1.0000   1.0000   1.0000
     1.0000   1.0000   1.0000   1.0000   1.0000   1.0000   1.0000   1.0000
     1.0000   1.0000   1.0000   1.0000   1.0000   1.0000   1.0000   1.0000
     1.0000   1.0000   1.0000   1.0000   1.0000   1.0000   1.0000   1.0000
     1.0000   1.0000   1.0000   1.0000   1.0000   1.0000   1.0000   1.0000
     0.8922   0.6900   0.1202  -0.0056  -0.0000  -0.0000  -0.0000  -0.0000
    -0.0000  -0.0000  -0.0000  -0.0000  -0.0000  -0.0000

          k = 0.0000 0.3333-0.5000 (  9646 PWs)   bands (ev):

   -56.4994 -56.4994 -56.4993 -56.4993 -56.4801 -56.4801 -56.4801 -56.4801
   -28.5811 -28.5811 -28.5767 -28.5767 -28.5329 -28.5329 -28.5299 -28.5299
   -27.6243 -27.6243 -27.5871 -27.5871 -27.5511 -27.5511 -27.5343 -27.5343
   -27.5194 -27.5194 -27.4976 -27.4976 -27.4466 -27.4466 -27.4319 -27.4319
     4.9498   4.9498   4.9511   4.9511   7.0288   7.0288   7.0337   7.0337
    10.3305  10.3305  10.3325  10.3325  11.2378  11.2378  11.2462  11.2462
    11.7604  11.7604  11.7659  11.7659  12.3339  12.3339  12.3413  12.3413
    13.3653  13.3653  13.3724  13.3724  13.6743  13.6743  13.6830  13.6830
    14.1706  14.1706  14.1761  14.1761  14.6102  14.6102  14.6292  14.6292
    14.9429  14.9429  14.9579  14.9579  15.4963  15.4963  15.5205  15.5205
    16.4402  16.4402  16.4510  16.4510  17.1941  17.1960

     occupation numbers 
     1.0000   1.0000   1.0000   1.0000   1.0000   1.0000   1.0000   1.0000
     1.0000   1.0000   1.0000   1.0000   1.0000   1.0000   1.0000   1.0000
     1.0000   1.0000   1.0000   1.0000   1.0000   1.0000   1.0000   1.0000
     1.0000   1.0000   1.0000   1.0000   1.0000   1.0000   1.0000   1.0000
     1.0000   1.0000   1.0000   1.0000   1.0000   1.0000   1.0000   1.0000
     1.0000   1.0000   1.0000   1.0000   1.0000   1.0000   1.0000   1.0000
     1.0000   1.0000   1.0000   1.0000   1.0000   1.0000   1.0000   1.0000
     1.0000   1.0000   1.0000   1.0000   1.0000   1.0000   1.0000   1.0000
     1.0000   1.0000   1.0000   1.0000   1.0000   1.0000   1.0000   1.0000
     0.5486   0.5486   0.3203   0.3203  -0.0000  -0.0000  -0.0000  -0.0000
    -0.0000  -0.0000  -0.0000  -0.0000  -0.0000  -0.0000

          k = 0.0000 0.4167 0.4167 (  9620 PWs)   bands (ev):

[...]
    12.1173  12.1173  12.1240  12.1240  12.4603  12.4603  12.4692  12.4692
    13.2033  13.2033  13.2079  13.2079  13.7312  13.7312  13.7448  13.7448
    14.3182  14.3182  14.3229  14.3229  14.7068  14.7068  14.7331  14.7331
    14.8546  14.8546  14.8934  14.8934  15.3747  15.3747  15.3859  15.3859
    16.4339  16.4339  16.4434  16.4434  17.0290  17.0322

     occupation numbers 
     1.0000   1.0000   1.0000   1.0000   1.0000   1.0000   1.0000   1.0000
     1.0000   1.0000   1.0000   1.0000   1.0000   1.0000   1.0000   1.0000
     1.0000   1.0000   1.0000   1.0000   1.0000   1.0000   1.0000   1.0000
     1.0000   1.0000   1.0000   1.0000   1.0000   1.0000   1.0000   1.0000
     1.0000   1.0000   1.0000   1.0000   1.0000   1.0000   1.0000   1.0000
     1.0000   1.0000   1.0000   1.0000   1.0000   1.0000   1.0000   1.0000
     1.0000   1.0000   1.0000   1.0000   1.0000   1.0000   1.0000   1.0000
     1.0000   1.0000   1.0000   1.0000   1.0000   1.0000   1.0000   1.0000
     1.0000   1.0000   1.0000   1.0000   1.0000   1.0000   1.0000   1.0000
     1.0194   1.0194   1.0213   1.0213  -0.0000  -0.0000  -0.0000  -0.0000
    -0.0000  -0.0000  -0.0000  -0.0000  -0.0000  -0.0000

          k =-0.2500 0.4167 0.3333 (  9646 PWs)   bands (ev):

   -56.4993 -56.4993 -56.4954 -56.4954 -56.4831 -56.4831 -56.4811 -56.4811
   -28.5792 -28.5763 -28.5714 -28.5702 -28.5437 -28.5416 -28.5320 -28.5305
   -27.6199 -27.6177 -27.5831 -27.5792 -27.5686 -27.5653 -27.5413 -27.5319
   -27.5239 -27.5112 -27.4830 -27.4757 -27.4590 -27.4545 -27.4354 -27.4330
     4.8889   4.8895   5.6569   5.6596   6.8104   6.8158   7.3892   7.3924
     8.9986   9.0029   9.5182   9.5230  10.7774  10.7806  11.2114  11.2131
    12.0004  12.0030  12.3392  12.3430  12.7068  12.7132  12.8288  12.8357
    13.1068  13.1145  13.1622  13.1740  13.4048  13.4127  13.5758  13.5863
    14.1365  14.1442  14.4444  14.4564  14.6831  14.6974  14.8320  14.8515
    14.9669  14.9784  15.1292  15.1625  15.2839  15.2920  15.4293  15.4425
    16.2780  16.2861  16.3854  16.3924  17.0193  17.0286

     occupation numbers 
     1.0000   1.0000   1.0000   1.0000   1.0000   1.0000   1.0000   1.0000
     1.0000   1.0000   1.0000   1.0000   1.0000   1.0000   1.0000   1.0000
     1.0000   1.0000   1.0000   1.0000   1.0000   1.0000   1.0000   1.0000
     1.0000   1.0000   1.0000   1.0000   1.0000   1.0000   1.0000   1.0000
     1.0000   1.0000   1.0000   1.0000   1.0000   1.0000   1.0000   1.0000
     1.0000   1.0000   1.0000   1.0000   1.0000   1.0000   1.0000   1.0000
     1.0000   1.0000   1.0000   1.0000   1.0000   1.0000   1.0000   1.0000
     1.0000   1.0000   1.0000   1.0000   1.0000   1.0000   1.0000   1.0000
     1.0000   1.0000   1.0000   1.0000   1.0000   1.0000   1.0058   1.0170
     0.2011   0.0821  -0.0000  -0.0000  -0.0000  -0.0000  -0.0000  -0.0000
    -0.0000  -0.0000  -0.0000  -0.0000  -0.0000  -0.0000

          k =-0.2500-0.5000 0.3333 (  9656 PWs)   bands (ev):

   -56.4972 -56.4972 -56.4972 -56.4972 -56.4823 -56.4823 -56.4823 -56.4823
   -28.5761 -28.5761 -28.5718 -28.5718 -28.5392 -28.5392 -28.5357 -28.5357
   -27.6173 -27.6173 -27.5825 -27.5825 -27.5671 -27.5671 -27.5372 -27.5372
   -27.5167 -27.5167 -27.4805 -27.4805 -27.4554 -27.4554 -27.4345 -27.4345
     5.2807   5.2807   5.2822   5.2822   7.0734   7.0734   7.0786   7.0786
     9.2473   9.2473   9.2519   9.2519  10.9387  10.9387  10.9413  10.9413
    12.1896  12.1896  12.1977  12.1977  12.7740  12.7740  12.7843  12.7843
    13.1171  13.1171  13.1283  13.1283  13.4999  13.4999  13.5103  13.5103
    14.3078  14.3078  14.3164  14.3164  14.7797  14.7797  14.7973  14.7973
    15.0297  15.0297  15.0549  15.0549  15.3554  15.3554  15.3705  15.3705
    16.3335  16.3335  16.3437  16.3437  17.0863  17.0873

     occupation numbers 
     1.0000   1.0000   1.0000   1.0000   1.0000   1.0000   1.0000   1.0000
     1.0000   1.0000   1.0000   1.0000   1.0000   1.0000   1.0000   1.0000
     1.0000   1.0000   1.0000   1.0000   1.0000   1.0000   1.0000   1.0000
     1.0000   1.0000   1.0000   1.0000   1.0000   1.0000   1.0000   1.0000
     1.0000   1.0000   1.0000   1.0000   1.0000   1.0000   1.0000   1.0000
     1.0000   1.0000   1.0000   1.0000   1.0000   1.0000   1.0000   1.0000
     1.0000   1.0000   1.0000   1.0000   1.0000   1.0000   1.0000   1.0000
     1.0000   1.0000   1.0000   1.0000   1.0000   1.0000   1.0000   1.0000
     1.0000   1.0000   1.0000   1.0000   1.0001   1.0001   1.0004   1.0004
    -0.0260  -0.0260  -0.0080  -0.0080  -0.0000  -0.0000  -0.0000  -0.0000
    -0.0000  -0.0000  -0.0000  -0.0000  -0.0000  -0.0000

          k =-0.2500-0.5000 0.4167 (  9646 PWs)   bands (ev):

   -56.4962 -56.4962 -56.4962 -56.4962 -56.4833 -56.4833 -56.4832 -56.4832
   -28.5727 -28.5727 -28.5701 -28.5701 -28.5415 -28.5415 -28.5392 -28.5392
   -27.6103 -27.6103 -27.5907 -27.5907 -27.5648 -27.5648 -27.5401 -27.5401
   -27.5123 -27.5123 -27.4852 -27.4852 -27.4502 -27.4502 -27.4372 -27.4372
     5.5375   5.5375   5.5393   5.5393   6.7778   6.7778   6.7821   6.7821
     9.3213   9.3213   9.3264   9.3264  10.6409  10.6409  10.6437  10.6437
    12.3614  12.3614  12.3698  12.3698  12.6610  12.6610  12.6705  12.6705
    13.1094  13.1094  13.1157  13.1157  13.5444  13.5444  13.5569  13.5569
    14.4441  14.4441  14.4506  14.4506  14.8161  14.8161  14.8425  14.8425
    14.9538  14.9538  14.9916  14.9916  15.3191  15.3191  15.3307  15.3307
    16.3806  16.3806  16.3891  16.3891  16.9294  16.9315

     occupation numbers 
     1.0000   1.0000   1.0000   1.0000   1.0000   1.0000   1.0000   1.0000
     1.0000   1.0000   1.0000   1.0000   1.0000   1.0000   1.0000   1.0000
     1.0000   1.0000   1.0000   1.0000   1.0000   1.0000   1.0000   1.0000
     1.0000   1.0000   1.0000   1.0000   1.0000   1.0000   1.0000   1.0000
     1.0000   1.0000   1.0000   1.0000   1.0000   1.0000   1.0000   1.0000
     1.0000   1.0000   1.0000   1.0000   1.0000   1.0000   1.0000   1.0000
     1.0000   1.0000   1.0000   1.0000   1.0000   1.0000   1.0000   1.0000
     1.0000   1.0000   1.0000   1.0000   1.0000   1.0000   1.0000   1.0000
     1.0000   1.0000   1.0000   1.0000   1.0019   1.0019   1.0108   1.0108
     0.3803   0.3803   0.0013   0.0013  -0.0000  -0.0000  -0.0000  -0.0000
    -0.0000  -0.0000  -0.0000  -0.0000  -0.0000  -0.0000

          k =-0.3333-0.5000 0.4167 (  9664 PWs)   bands (ev):

   -56.4946 -56.4946 -56.4946 -56.4946 -56.4849 -56.4849 -56.4849 -56.4849
   -28.5690 -28.5690 -28.5664 -28.5664 -28.5458 -28.5458 -28.5434 -28.5434
   -27.6057 -27.6057 -27.5881 -27.5881 -27.5731 -27.5731 -27.5445 -27.5445
   -27.5060 -27.5060 -27.4763 -27.4763 -27.4552 -27.4552 -27.4414 -27.4414
     5.7602   5.7602   5.7627   5.7627   6.7872   6.7872   6.7927   6.7927
     9.0481   9.0481   9.0544   9.0544  10.2140  10.2140  10.2177  10.2177
    12.5360  12.5360  12.5439  12.5439  12.8188  12.8188  12.8270  12.8270
    13.0617  13.0617  13.0713  13.0713  13.3559  13.3559  13.3664  13.3664
    14.5889  14.5889  14.5957  14.5957  14.9404  14.9404  14.9677  14.9677
    15.0540  15.0540  15.0885  15.0885  15.2576  15.2576  15.2761  15.2761
    16.3426  16.3426  16.3508  16.3508  16.7820  16.7872

     occupation numbers 
     1.0000   1.0000   1.0000   1.0000   1.0000   1.0000   1.0000   1.0000
     1.0000   1.0000   1.0000   1.0000   1.0000   1.0000   1.0000   1.0000
     1.0000   1.0000   1.0000   1.0000   1.0000   1.0000   1.0000   1.0000
     1.0000   1.0000   1.0000   1.0000   1.0000   1.0000   1.0000   1.0000
     1.0000   1.0000   1.0000   1.0000   1.0000   1.0000   1.0000   1.0000
     1.0000   1.0000   1.0000   1.0000   1.0000   1.0000   1.0000   1.0000
     1.0000   1.0000   1.0000   1.0000   1.0000   1.0000   1.0000   1.0000
     1.0000   1.0000   1.0000   1.0000   1.0000   1.0000   1.0000   1.0000
     1.0000   1.0000   1.0000   1.0000   0.5867   0.5867   0.1905   0.1905
    -0.0084  -0.0084  -0.0007  -0.0007  -0.0000  -0.0000  -0.0000  -0.0000
    -0.0000  -0.0000  -0.0000  -0.0000  -0.0000  -0.0000

     the Fermi energy is    14.9460 ev

!    total energy              =   -1180.35033972 Ry

     total all-electron energy =    -10727.811176 Ry
     estimated scf accuracy    <       0.00000017 Ry
     smearing contrib. (-TS)   =      -0.00011534 Ry
     internal energy E=F+TS    =   -1180.35022438 Ry

     The total energy is F=E-TS. E is the sum of the following terms:
     one-electron contribution =    -336.79344902 Ry
     hartree contribution      =     207.03767890 Ry
     xc contribution           =    -114.36171896 Ry
     ewald contribution        =    -496.51183961 Ry
     one-center paw contrib.   =    -439.72089569 Ry
      -> PAW hartree energy AE =     126.71461946 Ry
      -> PAW hartree energy PS =    -125.74727441 Ry
      -> PAW xc energy AE      =     -96.23972987 Ry
      -> PAW xc energy PS      =      20.93237117 Ry
      -> total E_H with PAW    =     208.00502395 Ry
      -> total E_XC with PAW   =    -189.66907765 Ry

     convergence has been achieved in   8 iterations

     Forces acting on atoms (cartesian axes, Ry/au):

     atom    1 type  1   force =    -0.00270016   -0.00270016    0.00270016
     atom    2 type  1   force =    -0.00270016    0.00270016   -0.00270016
     atom    3 type  1   force =     0.00270016   -0.00270016   -0.00270016
     atom    4 type  1   force =     0.00270016    0.00270016    0.00270016
     atom    5 type  2   force =    -0.00425066   -0.00425066    0.00425066
     atom    6 type  2   force =    -0.00425066    0.00425066   -0.00425066
     atom    7 type  2   force =     0.00425066   -0.00425066   -0.00425066
     atom    8 type  2   force =     0.00425066    0.00425066    0.00425066
     The non-local contrib.  to forces
     atom    1 type  1   force =     0.05139668    0.05139668   -0.05139668
     atom    2 type  1   force =     0.05139668   -0.05139668    0.05139668
     atom    3 type  1   force =    -0.05139668    0.05139668    0.05139668
     atom    4 type  1   force =    -0.05139668   -0.05139668   -0.05139668
     atom    5 type  2   force =    -0.00810244   -0.00810244    0.00810244
     atom    6 type  2   force =    -0.00810244    0.00810244   -0.00810244
     atom    7 type  2   force =     0.00810244   -0.00810244   -0.00810244
     atom    8 type  2   force =     0.00810244    0.00810244    0.00810244
     The ionic contribution  to forces
     atom    1 type  1   force =    -0.85044630   -0.85044630    0.85044630
     atom    2 type  1   force =    -0.85044630    0.85044630   -0.85044630
     atom    3 type  1   force =     0.85044630   -0.85044630   -0.85044630
     atom    4 type  1   force =     0.85044630    0.85044630    0.85044630
     atom    5 type  2   force =    -0.24524978   -0.24524978    0.24524978
     atom    6 type  2   force =    -0.24524978    0.24524978   -0.24524978
     atom    7 type  2   force =     0.24524978   -0.24524978   -0.24524978
     atom    8 type  2   force =     0.24524978    0.24524978    0.24524978
     The local contribution  to forces
     atom    1 type  1   force =     0.79734142    0.79734142   -0.79734142
     atom    2 type  1   force =     0.79734142   -0.79734142    0.79734142
     atom    3 type  1   force =    -0.79734142    0.79734142    0.79734142
     atom    4 type  1   force =    -0.79734142   -0.79734142   -0.79734142
     atom    5 type  2   force =     0.24831045    0.24831045   -0.24831045
     atom    6 type  2   force =     0.24831045   -0.24831045    0.24831045
     atom    7 type  2   force =    -0.24831045    0.24831045    0.24831045
     atom    8 type  2   force =    -0.24831045   -0.24831045   -0.24831045
     The core correction contribution to forces
     atom    1 type  1   force =    -0.00103546   -0.00103546    0.00103546
     atom    2 type  1   force =    -0.00103546    0.00103546   -0.00103546
     atom    3 type  1   force =     0.00103546   -0.00103546   -0.00103546
     atom    4 type  1   force =     0.00103546    0.00103546    0.00103546
     atom    5 type  2   force =     0.00079916    0.00079916   -0.00079916
     atom    6 type  2   force =     0.00079916   -0.00079916    0.00079916
     atom    7 type  2   force =    -0.00079916    0.00079916    0.00079916
     atom    8 type  2   force =    -0.00079916   -0.00079916   -0.00079916
     The Hubbard contrib.    to forces
     atom    1 type  1   force =     0.00000000    0.00000000    0.00000000
     atom    2 type  1   force =     0.00000000    0.00000000    0.00000000
     atom    3 type  1   force =     0.00000000    0.00000000    0.00000000
     atom    4 type  1   force =     0.00000000    0.00000000    0.00000000
     atom    5 type  2   force =     0.00000000    0.00000000    0.00000000
     atom    6 type  2   force =     0.00000000    0.00000000    0.00000000
     atom    7 type  2   force =     0.00000000    0.00000000    0.00000000
     atom    8 type  2   force =     0.00000000    0.00000000    0.00000000
     The SCF correction term to forces
     atom    1 type  1   force =     0.00004349    0.00004349   -0.00004349
     atom    2 type  1   force =     0.00004349   -0.00004349    0.00004349
     atom    3 type  1   force =    -0.00004349    0.00004349    0.00004349
     atom    4 type  1   force =    -0.00004349   -0.00004349   -0.00004349
     atom    5 type  2   force =    -0.00000805   -0.00000805    0.00000805
     atom    6 type  2   force =    -0.00000805    0.00000805   -0.00000805
     atom    7 type  2   force =     0.00000805   -0.00000805   -0.00000805
     atom    8 type  2   force =     0.00000805    0.00000805    0.00000805

     Total force =     0.017444     Total SCF correction =     0.000153


     Computing stress (Cartesian axis) and pressure

          total   stress  (Ry/bohr**3)                   (kbar)     P=      -42.16
  -0.00028657   0.00000000   0.00000000          -42.16        0.00        0.00
   0.00000000  -0.00028657   0.00000000            0.00      -42.16        0.00
   0.00000000   0.00000000  -0.00028657            0.00        0.00      -42.16

     kinetic stress (kbar)  35759.81      0.00      0.00
                                0.00  35759.81      0.00
                                0.00      0.00  35759.81

     local   stress (kbar) -10012.33      0.00     -0.00
                                0.00 -10012.33     -0.00
                               -0.00     -0.00 -10012.33

     nonloc. stress (kbar)   2427.28      0.00      0.00
                                0.00   2427.28      0.00
                                0.00      0.00   2427.28

     hartree stress (kbar)  15166.93     -0.00      0.00
                               -0.00  15166.93      0.00
                                0.00      0.00  15166.93

     exc-cor stress (kbar)  -1706.57      0.00     -0.00
                                0.00  -1706.57     -0.00
                               -0.00     -0.00  -1706.57

     corecor stress (kbar)  -5304.38     -0.00     -0.00
                               -0.00  -5304.38     -0.00
                               -0.00     -0.00  -5304.38

     ewald   stress (kbar) -36372.90      0.00      0.00
                                0.00 -36372.90      0.00
                                0.00      0.00 -36372.90

     hubbard stress (kbar)      0.00      0.00      0.00
                                0.00      0.00      0.00
                                0.00      0.00      0.00

     DFT-D   stress (kbar)      0.00      0.00      0.00
                                0.00      0.00      0.00
                                0.00      0.00      0.00

     XDM     stress (kbar)      0.00      0.00      0.00
                                0.00      0.00      0.00
                                0.00      0.00      0.00

     dft-nl  stress (kbar)      0.00      0.00      0.00
                                0.00      0.00      0.00
                                0.00      0.00      0.00

     TS-vdW  stress (kbar)      0.00      0.00      0.00
                                0.00      0.00      0.00
                                0.00      0.00      0.00



     Writing output data file /zfs_data/vergnior/martin/Scratch/OAL/CrSi/convergence/smearing/12x12x12/0.004/tmp/CrSi.save/
 
     init_run     :     23.55s CPU     24.38s WALL (       1 calls)
     electrons    :    750.28s CPU    764.15s WALL (       1 calls)
     forces       :     22.79s CPU     22.98s WALL (       1 calls)
     stress       :     59.93s CPU     60.48s WALL (       1 calls)

     Called by init_run:
     wfcinit      :     22.14s CPU     22.74s WALL (       1 calls)
     wfcinit:atom :      0.19s CPU      0.19s WALL (     119 calls)
     wfcinit:wfcr :     21.14s CPU     21.74s WALL (     119 calls)
     potinit      :      0.24s CPU      0.33s WALL (       1 calls)
     hinit0       :      0.20s CPU      0.21s WALL (       1 calls)

     Called by electrons:
     c_bands      :    616.68s CPU    626.65s WALL (       9 calls)
     sum_band     :    126.64s CPU    129.61s WALL (       9 calls)
     v_of_rho     :      0.29s CPU      0.32s WALL (       9 calls)
     v_h          :      0.03s CPU      0.03s WALL (       9 calls)
     v_xc         :      0.32s CPU      0.35s WALL (      11 calls)
     newd         :      5.62s CPU      6.53s WALL (       9 calls)
     PAW_pot      :      1.44s CPU      1.47s WALL (       9 calls)
     mix_rho      :      0.20s CPU      0.21s WALL (       9 calls)

     Called by c_bands:
     init_us_2    :      3.46s CPU      3.55s WALL (    2499 calls)
     cegterg      :    568.48s CPU    577.91s WALL (    1071 calls)

     Called by sum_band:
     sum_band:wei :      0.14s CPU      0.16s WALL (       9 calls)
     sum_band:loo :    122.07s CPU    123.91s WALL (       9 calls)
     sum_band:buf :      0.94s CPU      1.09s WALL (    1071 calls)
     sum_band:ini :      1.54s CPU      1.58s WALL (    1071 calls)
     sum_band:cal :      8.02s CPU      8.06s WALL (    1071 calls)
     sum_band:bec :     15.80s CPU     15.91s WALL (    1071 calls)
     addusdens    :      4.18s CPU      5.28s WALL (       9 calls)
     addusd:skk   :      0.01s CPU      0.01s WALL (      18 calls)
     addusd:dgemm :      1.60s CPU      2.67s WALL (      18 calls)
     addusd:qvan2 :      2.51s CPU      2.52s WALL (      18 calls)

     Called by *egterg:
     cdiaghg      :     48.38s CPU     48.64s WALL (    5850 calls)
     cegterg:over :     32.43s CPU     32.61s WALL (    4898 calls)
     cegterg:upda :     15.10s CPU     15.20s WALL (    4898 calls)
     cegterg:last :     27.84s CPU     27.96s WALL (    2957 calls)
     h_psi        :    397.57s CPU    406.62s WALL (    6088 calls)
     s_psi        :     52.37s CPU     52.64s WALL (    6088 calls)
     g_psi        :      0.93s CPU      0.94s WALL (    4898 calls)

     Called by h_psi:
     h_psi:calbec :     26.97s CPU     27.17s WALL (    6088 calls)
     vloc_psi     :    320.20s CPU    328.72s WALL (    6088 calls)
     add_vuspsi   :     48.23s CPU     48.53s WALL (    6088 calls)

     General routines
     calbec       :     38.85s CPU     39.12s WALL (    7754 calls)
     fft          :      0.33s CPU      0.34s WALL (     216 calls)
     ffts         :      0.04s CPU      0.12s WALL (      72 calls)
     fftw         :    262.99s CPU    269.81s WALL ( 1433580 calls)
     interpolate  :      0.08s CPU      0.17s WALL (      36 calls)
 
     Parallel routines
     fft_scatt_xy :     25.09s CPU     25.69s WALL ( 1433868 calls)
     fft_scatt_yz :     97.37s CPU     99.79s WALL ( 1433868 calls)

     PAW routines
     PAW_pot      :      1.44s CPU      1.47s WALL (       9 calls)
     PAW_symme    :      0.02s CPU      0.02s WALL (      18 calls)
 
     PWSCF        :  14m22.04s CPU  14m42.58s WALL

 
   This run was terminated on:  12:50:37   1Aug2021            

=------------------------------------------------------------------------------=
   JOB DONE.
=------------------------------------------------------------------------------=
