MPI startup(): Warning: I_MPI_PMI_LIBRARY will be ignored since the hydra process manager was found
MPI startup(): Warning: I_MPI_PMI_LIBRARY will be ignored since the hydra process manager was found
MPI startup(): Warning: I_MPI_PMI_LIBRARY will be ignored since the hydra process manager was found
MPI startup(): Warning: I_MPI_PMI_LIBRARY will be ignored since the hydra process manager was found
MPI startup(): Warning: I_MPI_PMI_LIBRARY will be ignored since the hydra process manager was found
MPI startup(): Warning: I_MPI_PMI_LIBRARY will be ignored since the hydra process manager was found
MPI startup(): Warning: I_MPI_PMI_LIBRARY will be ignored since the hydra process manager was found
MPI startup(): Warning: I_MPI_PMI_LIBRARY will be ignored since the hydra process manager was found
MPI startup(): Warning: I_MPI_PMI_LIBRARY will be ignored since the hydra process manager was found
MPI startup(): Warning: I_MPI_PMI_LIBRARY will be ignored since the hydra process manager was found
MPI startup(): Warning: I_MPI_PMI_LIBRARY will be ignored since the hydra process manager was found
MPI startup(): Warning: I_MPI_PMI_LIBRARY will be ignored since the hydra process manager was found
MPI startup(): Warning: I_MPI_PMI_LIBRARY will be ignored since the hydra process manager was found
MPI startup(): Warning: I_MPI_PMI_LIBRARY will be ignored since the hydra process manager was found
MPI startup(): Warning: I_MPI_PMI_LIBRARY will be ignored since the hydra process manager was found
MPI startup(): Warning: I_MPI_PMI_LIBRARY will be ignored since the hydra process manager was found
MPI startup(): Warning: I_MPI_PMI_LIBRARY will be ignored since the hydra process manager was found
MPI startup(): Warning: I_MPI_PMI_LIBRARY will be ignored since the hydra process manager was found
MPI startup(): Warning: I_MPI_PMI_LIBRARY will be ignored since the hydra process manager was found
MPI startup(): Warning: I_MPI_PMI_LIBRARY will be ignored since the hydra process manager was found
MPI startup(): Warning: I_MPI_PMI_LIBRARY will be ignored since the hydra process manager was found
MPI startup(): Warning: I_MPI_PMI_LIBRARY will be ignored since the hydra process manager was found
MPI startup(): Warning: I_MPI_PMI_LIBRARY will be ignored since the hydra process manager was found
MPI startup(): Warning: I_MPI_PMI_LIBRARY will be ignored since the hydra process manager was found

     Program PWSCF v.6.7MaX starts on  1Aug2021 at 12:44:26 

     This program is part of the open-source Quantum ESPRESSO suite
     for quantum simulation of materials; please cite
         "P. Giannozzi et al., J. Phys.:Condens. Matter 21 395502 (2009);
         "P. Giannozzi et al., J. Phys.:Condens. Matter 29 465901 (2017);
          URL http://www.quantum-espresso.org", 
     in publications or presentations arising from this work. More details at
     http://www.quantum-espresso.org/quote

     Parallel version (MPI), running on    24 processors

     MPI processes distributed on     1 nodes
     R & G space division:  proc/nbgrp/npool/nimage =      24
     Waiting for input...
     Reading input from standard input

     Current dimensions of program PWSCF are:
     Max number of different atomic species (ntypx) = 10
     Max number of k-points (npk) =  40000
     Max angular momentum in pseudopotentials (lmaxx) =  3
     file Cr.rel-pbe-spn-kjpaw_psl.1.0.0.UPF: wavefunction(s)  3S 3P 3P 3D 3D renormalized
     file Si.rel-pbe-n-kjpaw_psl.1.0.0.UPF: wavefunction(s)  3S 3P 3P renormalized

     Subspace diagonalization in iterative solution of the eigenvalue problem:
     a serial algorithm will be used

     Message from routine setup:
     using ibrav=0 with symmetry is DISCOURAGED, use correct ibrav instead
 
     Parallelization info
     --------------------
     sticks:   dense  smooth     PW     G-vecs:    dense   smooth      PW
     Min         228      91     25                12702     3210     487
     Max         229      93     26                12704     3214     492
     Sum        5473    2201    621               304867    77053   11753
 


     bravais-lattice index     =            0
     lattice parameter (alat)  =       8.7475  a.u.
     unit-cell volume          =     669.3575 (a.u.)^3
     number of atoms/cell      =            8
     number of atomic types    =            2
     number of electrons       =        72.00
     number of Kohn-Sham states=           86
     kinetic-energy cutoff     =      90.0000  Ry
     charge density cutoff     =     900.0000  Ry
     scf convergence threshold =      1.0E-06
     mixing beta               =       0.7000
     number of iterations used =            8  plain     mixing
     Exchange-correlation= SLA  PW   PBX  PBC
                           (   1   4   3   4   0   0   0)
     Non magnetic calculation with spin-orbit


     celldm(1)=   8.747542  celldm(2)=   0.000000  celldm(3)=   0.000000
     celldm(4)=   0.000000  celldm(5)=   0.000000  celldm(6)=   0.000000

     crystal axes: (cart. coord. in units of alat)
               a(1) = (   1.000000   0.000000   0.000000 )  
               a(2) = (   0.000000   1.000000   0.000000 )  
               a(3) = (   0.000000   0.000000   1.000000 )  

     reciprocal axes: (cart. coord. in units 2 pi/alat)
               b(1) = (  1.000000  0.000000  0.000000 )  
               b(2) = (  0.000000  1.000000  0.000000 )  
               b(3) = (  0.000000  0.000000  1.000000 )  


     PseudoPot. # 1 for Cr read from file:
     ../../../../pseudo/Cr.rel-pbe-spn-kjpaw_psl.1.0.0.UPF
     MD5 check sum: 1e24e2b5251376a8b945118fca0c7981
     Pseudo is Projector augmented-wave + core cor, Zval = 14.0
     Generated using &quot;atomic&quot; code by A. Dal Corso  v.6.3
     Shape of augmentation charge: PSQ
     Using radial grid of 1183 points, 10 beta functions with: 
                l(1) =   0
                l(2) =   0
                l(3) =   1
                l(4) =   1
                l(5) =   1
                l(6) =   1
                l(7) =   2
                l(8) =   2
                l(9) =   2
               l(10) =   2
     Q(r) pseudized with 0 coefficients 


     PseudoPot. # 2 for Si read from file:
     ../../../../pseudo/Si.rel-pbe-n-kjpaw_psl.1.0.0.UPF
     MD5 check sum: d74f6caf6830ea4c2076867160cab1b0
     Pseudo is Projector augmented-wave + core cor, Zval =  4.0
     Generated using &quot;atomic&quot; code by A. Dal Corso  v.6.3
     Shape of augmentation charge: PSQ
     Using radial grid of 1141 points, 10 beta functions with: 
                l(1) =   0
                l(2) =   0
                l(3) =   1
                l(4) =   1
                l(5) =   1
                l(6) =   1
                l(7) =   2
                l(8) =   2
                l(9) =   2
               l(10) =   2
     Q(r) pseudized with 0 coefficients 


     atomic species   valence    mass     pseudopotential
        Cr            14.00    51.99600     Cr( 1.00)
        Si             4.00    28.08500     Si( 1.00)

     12 Sym. Ops. (no inversion) found ( 9 have fractional translation)


                                    s                        frac. trans.

      isym =  1     identity                                     

 cryst.   s( 1) = (     1          0          0      )
                  (     0          1          0      )
                  (     0          0          1      )

 cart.    s( 1) = (  1.0000000  0.0000000  0.0000000 )
                  (  0.0000000  1.0000000  0.0000000 )
                  (  0.0000000  0.0000000  1.0000000 )


      isym =  2     180 deg rotation - cart. axis [0,0,1]        

 cryst.   s( 2) = (    -1          0          0      )    f =(  0.5000000 )
                  (     0         -1          0      )       (  0.0000000 )
                  (     0          0          1      )       ( -0.5000000 )

 cart.    s( 2) = ( -1.0000000  0.0000000  0.0000000 )    f =(  0.5000000 )
                  (  0.0000000 -1.0000000  0.0000000 )       (  0.0000000 )
                  (  0.0000000  0.0000000  1.0000000 )       ( -0.5000000 )


      isym =  3     180 deg rotation - cart. axis [0,1,0]        

 cryst.   s( 3) = (    -1          0          0      )    f =(  0.0000000 )
                  (     0          1          0      )       ( -0.5000000 )
                  (     0          0         -1      )       (  0.5000000 )

 cart.    s( 3) = ( -1.0000000  0.0000000  0.0000000 )    f =(  0.0000000 )
                  (  0.0000000  1.0000000  0.0000000 )       ( -0.5000000 )
                  (  0.0000000  0.0000000 -1.0000000 )       (  0.5000000 )


      isym =  4     180 deg rotation - cart. axis [1,0,0]        

 cryst.   s( 4) = (     1          0          0      )    f =(  0.5000000 )
                  (     0         -1          0      )       (  0.5000000 )
                  (     0          0         -1      )       (  0.0000000 )

 cart.    s( 4) = (  1.0000000  0.0000000  0.0000000 )    f =(  0.5000000 )
                  (  0.0000000 -1.0000000  0.0000000 )       (  0.5000000 )
                  (  0.0000000  0.0000000 -1.0000000 )       (  0.0000000 )


      isym =  5     120 deg rotation - cart. axis [-1,-1,-1]     

 cryst.   s( 5) = (     0          0          1      )
                  (     1          0          0      )
                  (     0          1          0      )

 cart.    s( 5) = (  0.0000000  1.0000000  0.0000000 )
                  (  0.0000000  0.0000000  1.0000000 )
                  (  1.0000000  0.0000000  0.0000000 )


      isym =  6     120 deg rotation - cart. axis [-1,1,1]       

 cryst.   s( 6) = (     0          0         -1      )    f =(  0.0000000 )
                  (    -1          0          0      )       ( -0.5000000 )
                  (     0          1          0      )       (  0.5000000 )

 cart.    s( 6) = (  0.0000000 -1.0000000  0.0000000 )    f =(  0.0000000 )
                  (  0.0000000  0.0000000  1.0000000 )       ( -0.5000000 )
                  ( -1.0000000  0.0000000  0.0000000 )       (  0.5000000 )


      isym =  7     120 deg rotation - cart. axis [1,1,-1]       

 cryst.   s( 7) = (     0          0         -1      )    f =(  0.5000000 )
                  (     1          0          0      )       (  0.5000000 )
                  (     0         -1          0      )       (  0.0000000 )

 cart.    s( 7) = (  0.0000000  1.0000000  0.0000000 )    f =(  0.5000000 )
                  (  0.0000000  0.0000000 -1.0000000 )       (  0.5000000 )
                  ( -1.0000000  0.0000000  0.0000000 )       (  0.0000000 )


      isym =  8     120 deg rotation - cart. axis [1,-1,1]       

 cryst.   s( 8) = (     0          0          1      )    f =(  0.5000000 )
                  (    -1          0          0      )       (  0.0000000 )
                  (     0         -1          0      )       ( -0.5000000 )

 cart.    s( 8) = (  0.0000000 -1.0000000  0.0000000 )    f =(  0.5000000 )
                  (  0.0000000  0.0000000 -1.0000000 )       (  0.0000000 )
                  (  1.0000000  0.0000000  0.0000000 )       ( -0.5000000 )


      isym =  9     120 deg rotation - cart. axis [1,1,1]        

 cryst.   s( 9) = (     0          1          0      )
                  (     0          0          1      )
                  (     1          0          0      )

 cart.    s( 9) = (  0.0000000  0.0000000  1.0000000 )
                  (  1.0000000  0.0000000  0.0000000 )
                  (  0.0000000  1.0000000  0.0000000 )


      isym = 10     120 deg rotation - cart. axis [-1,1,-1]      

 cryst.   s(10) = (     0         -1          0      )    f =(  0.5000000 )
                  (     0          0         -1      )       (  0.5000000 )
                  (     1          0          0      )       (  0.0000000 )

 cart.    s(10) = (  0.0000000  0.0000000  1.0000000 )    f =(  0.5000000 )
                  ( -1.0000000  0.0000000  0.0000000 )       (  0.5000000 )
                  (  0.0000000 -1.0000000  0.0000000 )       (  0.0000000 )


      isym = 11     120 deg rotation - cart. axis [1,-1,-1]      

 cryst.   s(11) = (     0         -1          0      )    f =(  0.5000000 )
                  (     0          0          1      )       (  0.0000000 )
                  (    -1          0          0      )       ( -0.5000000 )

 cart.    s(11) = (  0.0000000  0.0000000 -1.0000000 )    f =(  0.5000000 )
                  ( -1.0000000  0.0000000  0.0000000 )       (  0.0000000 )
                  (  0.0000000  1.0000000  0.0000000 )       ( -0.5000000 )


      isym = 12     120 deg rotation - cart. axis [-1,-1,1]      

 cryst.   s(12) = (     0          1          0      )    f =(  0.0000000 )
                  (     0          0         -1      )       ( -0.5000000 )
                  (    -1          0          0      )       (  0.5000000 )

 cart.    s(12) = (  0.0000000  0.0000000 -1.0000000 )    f =(  0.0000000 )
                  (  1.0000000  0.0000000  0.0000000 )       ( -0.5000000 )
                  (  0.0000000 -1.0000000  0.0000000 )       (  0.5000000 )


   Cartesian axes

     site n.     atom                  positions (alat units)
         1           Cr  tau(   1) = (   0.8640000   0.3640000   0.1360000  )
         2           Cr  tau(   2) = (   0.3640000   0.1360000   0.8640000  )
         3           Cr  tau(   3) = (   0.1360000   0.8640000   0.3640000  )
         4           Cr  tau(   4) = (   0.6360000   0.6360000   0.6360000  )
         5           Si  tau(   5) = (   0.1540000   0.6540000   0.8460000  )
         6           Si  tau(   6) = (   0.6540000   0.8460000   0.1540000  )
         7           Si  tau(   7) = (   0.8460000   0.1540000   0.6540000  )
         8           Si  tau(   8) = (   0.3460000   0.3460000   0.3460000  )

   Crystallographic axes

     site n.     atom                  positions (cryst. coord.)
         1           Cr  tau(   1) = (  0.8640000  0.3640000  0.1360000  )
         2           Cr  tau(   2) = (  0.3640000  0.1360000  0.8640000  )
         3           Cr  tau(   3) = (  0.1360000  0.8640000  0.3640000  )
         4           Cr  tau(   4) = (  0.6360000  0.6360000  0.6360000  )
         5           Si  tau(   5) = (  0.1540000  0.6540000  0.8460000  )
         6           Si  tau(   6) = (  0.6540000  0.8460000  0.1540000  )
         7           Si  tau(   7) = (  0.8460000  0.1540000  0.6540000  )
         8           Si  tau(   8) = (  0.3460000  0.3460000  0.3460000  )

     number of k points=    45  Methfessel-Paxton smearing, width (Ry)=  0.0040
                       cart. coord. in units 2pi/alat
        k(    1) = (   0.0000000   0.0000000   0.0000000), wk =   0.0019531
        k(    2) = (   0.0000000   0.0000000   0.1250000), wk =   0.0117188
        k(    3) = (   0.0000000   0.0000000   0.2500000), wk =   0.0117188
        k(    4) = (   0.0000000   0.0000000   0.3750000), wk =   0.0117188
        k(    5) = (   0.0000000   0.0000000  -0.5000000), wk =   0.0058594
        k(    6) = (   0.0000000   0.1250000   0.1250000), wk =   0.0234375
        k(    7) = (   0.0000000   0.1250000   0.2500000), wk =   0.0234375
        k(    8) = (   0.0000000   0.1250000   0.3750000), wk =   0.0234375
        k(    9) = (   0.0000000   0.1250000  -0.5000000), wk =   0.0117188
        k(   10) = (   0.0000000   0.2500000   0.2500000), wk =   0.0234375
        k(   11) = (   0.0000000   0.2500000   0.3750000), wk =   0.0234375
        k(   12) = (   0.0000000   0.2500000  -0.5000000), wk =   0.0117188
        k(   13) = (   0.0000000   0.3750000   0.3750000), wk =   0.0234375
        k(   14) = (   0.0000000   0.3750000  -0.5000000), wk =   0.0117188
        k(   15) = (   0.0000000  -0.5000000  -0.5000000), wk =   0.0058594
        k(   16) = (   0.1250000   0.1250000   0.1250000), wk =   0.0156250
        k(   17) = (   0.1250000   0.1250000   0.2500000), wk =   0.0468750
        k(   18) = (   0.1250000   0.1250000   0.3750000), wk =   0.0468750
        k(   19) = (   0.1250000   0.1250000  -0.5000000), wk =   0.0234375
        k(   20) = (   0.1250000   0.2500000   0.2500000), wk =   0.0468750
        k(   21) = (   0.1250000   0.2500000   0.3750000), wk =   0.0468750
        k(   22) = (   0.1250000   0.2500000  -0.5000000), wk =   0.0234375
        k(   23) = (   0.1250000   0.3750000   0.3750000), wk =   0.0468750
        k(   24) = (   0.1250000   0.3750000  -0.5000000), wk =   0.0234375
        k(   25) = (   0.1250000  -0.5000000  -0.5000000), wk =   0.0117188
        k(   26) = (   0.2500000   0.2500000   0.2500000), wk =   0.0156250
        k(   27) = (   0.2500000   0.2500000   0.3750000), wk =   0.0468750
        k(   28) = (   0.2500000   0.2500000  -0.5000000), wk =   0.0234375
        k(   29) = (   0.2500000   0.3750000   0.3750000), wk =   0.0468750
        k(   30) = (   0.2500000   0.3750000  -0.5000000), wk =   0.0234375
        k(   31) = (   0.2500000  -0.5000000  -0.5000000), wk =   0.0117188
        k(   32) = (   0.3750000   0.3750000   0.3750000), wk =   0.0156250
        k(   33) = (   0.3750000   0.3750000  -0.5000000), wk =   0.0234375
        k(   34) = (   0.3750000  -0.5000000  -0.5000000), wk =   0.0117188
        k(   35) = (  -0.5000000  -0.5000000  -0.5000000), wk =   0.0019531
        k(   36) = (   0.0000000   0.2500000   0.1250000), wk =   0.0234375
        k(   37) = (   0.0000000   0.3750000   0.1250000), wk =   0.0234375
        k(   38) = (   0.0000000  -0.5000000   0.1250000), wk =   0.0117188
        k(   39) = (   0.0000000   0.3750000   0.2500000), wk =   0.0234375
        k(   40) = (   0.0000000  -0.5000000   0.2500000), wk =   0.0117188
        k(   41) = (   0.0000000  -0.5000000   0.3750000), wk =   0.0117188
        k(   42) = (  -0.1250000   0.3750000   0.2500000), wk =   0.0468750
        k(   43) = (  -0.1250000  -0.5000000   0.2500000), wk =   0.0234375
        k(   44) = (  -0.1250000  -0.5000000   0.3750000), wk =   0.0234375
        k(   45) = (  -0.2500000  -0.5000000   0.3750000), wk =   0.0234375

                       cryst. coord.
        k(    1) = (   0.0000000   0.0000000   0.0000000), wk =   0.0019531
        k(    2) = (   0.0000000   0.0000000   0.1250000), wk =   0.0117188
        k(    3) = (   0.0000000   0.0000000   0.2500000), wk =   0.0117188
        k(    4) = (   0.0000000   0.0000000   0.3750000), wk =   0.0117188
        k(    5) = (   0.0000000   0.0000000  -0.5000000), wk =   0.0058594
        k(    6) = (   0.0000000   0.1250000   0.1250000), wk =   0.0234375
        k(    7) = (   0.0000000   0.1250000   0.2500000), wk =   0.0234375
        k(    8) = (   0.0000000   0.1250000   0.3750000), wk =   0.0234375
        k(    9) = (   0.0000000   0.1250000  -0.5000000), wk =   0.0117188
        k(   10) = (   0.0000000   0.2500000   0.2500000), wk =   0.0234375
        k(   11) = (   0.0000000   0.2500000   0.3750000), wk =   0.0234375
        k(   12) = (   0.0000000   0.2500000  -0.5000000), wk =   0.0117188
        k(   13) = (   0.0000000   0.3750000   0.3750000), wk =   0.0234375
        k(   14) = (   0.0000000   0.3750000  -0.5000000), wk =   0.0117188
        k(   15) = (   0.0000000  -0.5000000  -0.5000000), wk =   0.0058594
        k(   16) = (   0.1250000   0.1250000   0.1250000), wk =   0.0156250
        k(   17) = (   0.1250000   0.1250000   0.2500000), wk =   0.0468750
        k(   18) = (   0.1250000   0.1250000   0.3750000), wk =   0.0468750
        k(   19) = (   0.1250000   0.1250000  -0.5000000), wk =   0.0234375
        k(   20) = (   0.1250000   0.2500000   0.2500000), wk =   0.0468750
        k(   21) = (   0.1250000   0.2500000   0.3750000), wk =   0.0468750
        k(   22) = (   0.1250000   0.2500000  -0.5000000), wk =   0.0234375
        k(   23) = (   0.1250000   0.3750000   0.3750000), wk =   0.0468750
        k(   24) = (   0.1250000   0.3750000  -0.5000000), wk =   0.0234375
        k(   25) = (   0.1250000  -0.5000000  -0.5000000), wk =   0.0117188
        k(   26) = (   0.2500000   0.2500000   0.2500000), wk =   0.0156250
        k(   27) = (   0.2500000   0.2500000   0.3750000), wk =   0.0468750
        k(   28) = (   0.2500000   0.2500000  -0.5000000), wk =   0.0234375
        k(   29) = (   0.2500000   0.3750000   0.3750000), wk =   0.0468750
        k(   30) = (   0.2500000   0.3750000  -0.5000000), wk =   0.0234375
        k(   31) = (   0.2500000  -0.5000000  -0.5000000), wk =   0.0117188
        k(   32) = (   0.3750000   0.3750000   0.3750000), wk =   0.0156250
        k(   33) = (   0.3750000   0.3750000  -0.5000000), wk =   0.0234375
        k(   34) = (   0.3750000  -0.5000000  -0.5000000), wk =   0.0117188
        k(   35) = (  -0.5000000  -0.5000000  -0.5000000), wk =   0.0019531
        k(   36) = (   0.0000000   0.2500000   0.1250000), wk =   0.0234375
        k(   37) = (   0.0000000   0.3750000   0.1250000), wk =   0.0234375
        k(   38) = (   0.0000000  -0.5000000   0.1250000), wk =   0.0117188
        k(   39) = (   0.0000000   0.3750000   0.2500000), wk =   0.0234375
        k(   40) = (   0.0000000  -0.5000000   0.2500000), wk =   0.0117188
        k(   41) = (   0.0000000  -0.5000000   0.3750000), wk =   0.0117188
        k(   42) = (  -0.1250000   0.3750000   0.2500000), wk =   0.0468750
        k(   43) = (  -0.1250000  -0.5000000   0.2500000), wk =   0.0234375
        k(   44) = (  -0.1250000  -0.5000000   0.3750000), wk =   0.0234375
        k(   45) = (  -0.2500000  -0.5000000   0.3750000), wk =   0.0234375

     Dense  grid:   304867 G-vectors     FFT dimensions: (  90,  90,  90)

     Smooth grid:    77053 G-vectors     FFT dimensions: (  54,  54,  54)

     Dynamical RAM for                 wfc:       1.06 MB

     Dynamical RAM for     wfc (w. buffer):      48.53 MB

     Dynamical RAM for           str. fact:       0.39 MB

     Dynamical RAM for           local pot:       0.00 MB

     Dynamical RAM for          nlocal pot:       1.67 MB

     Dynamical RAM for                qrad:      12.61 MB

     Dynamical RAM for          rho,v,vnew:       5.29 MB

     Dynamical RAM for               rhoin:       1.76 MB

     Dynamical RAM for            rho*nmix:      12.41 MB

     Dynamical RAM for           G-vectors:       0.75 MB

     Dynamical RAM for          h,s,v(r/c):       1.35 MB

     Dynamical RAM for          <psi|beta>:       0.71 MB

     Dynamical RAM for                 psi:       2.11 MB

     Dynamical RAM for                hpsi:       2.11 MB

     Dynamical RAM for                spsi:       2.11 MB

     Dynamical RAM for      wfcinit/wfcrot:       2.35 MB

     Dynamical RAM for           addusdens:     119.02 MB

     Dynamical RAM for          addusforce:     120.34 MB

     Dynamical RAM for         addusstress:     121.74 MB

     Estimated static dynamical RAM per process >      85.97 MB

     Estimated max dynamical RAM per process >     207.70 MB

     Estimated total dynamical RAM >       4.87 GB

     Initial potential from superposition of free atoms

     starting charge   71.99469, renormalised to   72.00000
     Starting wfcs are  112 randomized atomic wfcs
     Checking if some PAW data can be deallocated... 
       PAW data deallocated on   12 nodes for type:  1
       PAW data deallocated on   12 nodes for type:  2

     total cpu time spent up to now is       14.4 secs

     Self-consistent Calculation

     iteration #  1     ecut=    90.00 Ry     beta= 0.70
     Davidson diagonalization with overlap
     ethr =  1.00E-02,  avg # of iterations =  2.0

     Threshold (ethr) on eigenvalues was too large:
     Diagonalizing with lowered threshold

     Davidson diagonalization with overlap
     ethr =  2.09E-04,  avg # of iterations =  4.4

     total cpu time spent up to now is       78.7 secs

     total energy              =   -1180.31016102 Ry
     estimated scf accuracy    <       0.18964963 Ry

     iteration #  2     ecut=    90.00 Ry     beta= 0.70
     Davidson diagonalization with overlap
     ethr =  2.63E-04,  avg # of iterations =  3.3

     total cpu time spent up to now is      111.7 secs

     total energy              =   -1180.31326151 Ry
     estimated scf accuracy    <       0.08562598 Ry

     iteration #  3     ecut=    90.00 Ry     beta= 0.70
     Davidson diagonalization with overlap
     ethr =  1.19E-04,  avg # of iterations =  5.0

     total cpu time spent up to now is      151.4 secs

     total energy              =   -1180.32608958 Ry
     estimated scf accuracy    <       0.16764676 Ry

     iteration #  4     ecut=    90.00 Ry     beta= 0.70
     Davidson diagonalization with overlap
     ethr =  1.19E-04,  avg # of iterations =  4.1

     total cpu time spent up to now is      183.3 secs

     total energy              =   -1180.35025339 Ry
     estimated scf accuracy    <       0.00020074 Ry

     iteration #  5     ecut=    90.00 Ry     beta= 0.70
     Davidson diagonalization with overlap
     ethr =  2.79E-07,  avg # of iterations =  8.9

     total cpu time spent up to now is      236.3 secs

     total energy              =   -1180.35091440 Ry
     estimated scf accuracy    <       0.00046920 Ry

     iteration #  6     ecut=    90.00 Ry     beta= 0.70
     Davidson diagonalization with overlap
     ethr =  2.79E-07,  avg # of iterations =  4.1

     total cpu time spent up to now is      270.8 secs

     total energy              =   -1180.35100315 Ry
     estimated scf accuracy    <       0.00001657 Ry

     iteration #  7     ecut=    90.00 Ry     beta= 0.70
     Davidson diagonalization with overlap
     ethr =  2.30E-08,  avg # of iterations =  2.5

     total cpu time spent up to now is      298.1 secs

     total energy              =   -1180.35100365 Ry
     estimated scf accuracy    <       0.00000329 Ry

     iteration #  8     ecut=    90.00 Ry     beta= 0.70
     Davidson diagonalization with overlap
     ethr =  4.57E-09,  avg # of iterations =  4.2

     total cpu time spent up to now is      332.4 secs

     total energy              =   -1180.35100495 Ry
     estimated scf accuracy    <       0.00000113 Ry

     iteration #  9     ecut=    90.00 Ry     beta= 0.70
     Davidson diagonalization with overlap
     ethr =  1.57E-09,  avg # of iterations =  3.1

     total cpu time spent up to now is      359.0 secs

     End of self-consistent calculation

          k = 0.0000 0.0000 0.0000 (  9771 PWs)   bands (ev):

   -56.5167 -56.5167 -56.4820 -56.4820 -56.4820 -56.4820 -56.4820 -56.4820
   -28.5826 -28.5826 -28.5746 -28.5746 -28.5746 -28.5746 -28.4853 -28.4853
   -27.6184 -27.6184 -27.6184 -27.6184 -27.5411 -27.5411 -27.5411 -27.5411
   -27.5320 -27.5320 -27.4510 -27.4510 -27.4510 -27.4510 -27.4491 -27.4491
     2.6989   2.6989   7.4571   7.4571   7.4571   7.4571   7.4662   7.4662
    10.5368  10.5368  10.5447  10.5447  10.5447  10.5447  11.9122  11.9122
    11.9122  11.9122  11.9234  11.9234  12.6034  12.6034  12.7720  12.7720
    12.7720  12.7720  13.1420  13.1420  13.1420  13.1420  13.1432  13.1432
    13.6702  13.6702  13.6702  13.6702  13.6741  13.6741  15.5508  15.5508
    15.5822  15.5822  15.5822  15.5822  15.7629  15.7629  15.7629  15.7629
    16.6658  16.6658  16.6961  16.6961  16.6961  16.6961

     occupation numbers 
     1.0000   1.0000   1.0000   1.0000   1.0000   1.0000   1.0000   1.0000
     1.0000   1.0000   1.0000   1.0000   1.0000   1.0000   1.0000   1.0000
     1.0000   1.0000   1.0000   1.0000   1.0000   1.0000   1.0000   1.0000
     1.0000   1.0000   1.0000   1.0000   1.0000   1.0000   1.0000   1.0000
     1.0000   1.0000   1.0000   1.0000   1.0000   1.0000   1.0000   1.0000
     1.0000   1.0000   1.0000   1.0000   1.0000   1.0000   1.0000   1.0000
     1.0000   1.0000   1.0000   1.0000   1.0000   1.0000   1.0000   1.0000
     1.0000   1.0000   1.0000   1.0000   1.0000   1.0000   1.0000   1.0000
     1.0000   1.0000   1.0000   1.0000   1.0000   1.0000  -0.0000  -0.0000
    -0.0000  -0.0000  -0.0000  -0.0000  -0.0000  -0.0000  -0.0000  -0.0000
    -0.0000  -0.0000  -0.0000  -0.0000  -0.0000  -0.0000

          k = 0.0000 0.0000 0.1250 (  9667 PWs)   bands (ev):

   -56.5157 -56.5157 -56.4860 -56.4860 -56.4816 -56.4816 -56.4793 -56.4793
   -28.5888 -28.5813 -28.5785 -28.5778 -28.5680 -28.5648 -28.4882 -28.4881
   -27.6318 -27.6254 -27.6087 -27.6025 -27.5497 -27.5467 -27.5395 -27.5358
   -27.5344 -27.5197 -27.4582 -27.4567 -27.4540 -27.4490 -27.4482 -27.4434
     2.8072   2.8073   6.7955   6.7988   7.5182   7.5196   7.9728   7.9815
    10.0748  10.0799  10.6132  10.6148  11.0390  11.0408  11.3211  11.3212
    11.6510  11.6548  12.5300  12.5366  12.5616  12.5799  12.7796  12.7867
    12.9233  12.9246  13.1122  13.1143  13.1767  13.1771  13.2078  13.2083
    13.5207  13.5284  13.6522  13.6537  13.8985  13.8987  15.3972  15.4154
    15.4439  15.4536  15.7199  15.7234  15.7388  15.7507  15.7636  15.7694
    16.4742  16.4912  16.6342  16.6391  16.8964  16.9169

     occupation numbers 
     1.0000   1.0000   1.0000   1.0000   1.0000   1.0000   1.0000   1.0000
     1.0000   1.0000   1.0000   1.0000   1.0000   1.0000   1.0000   1.0000
     1.0000   1.0000   1.0000   1.0000   1.0000   1.0000   1.0000   1.0000
     1.0000   1.0000   1.0000   1.0000   1.0000   1.0000   1.0000   1.0000
     1.0000   1.0000   1.0000   1.0000   1.0000   1.0000   1.0000   1.0000
     1.0000   1.0000   1.0000   1.0000   1.0000   1.0000   1.0000   1.0000
     1.0000   1.0000   1.0000   1.0000   1.0000   1.0000   1.0000   1.0000
     1.0000   1.0000   1.0000   1.0000   1.0000   1.0000   1.0000   1.0000
     1.0000   1.0000   1.0000   1.0000   1.0000   1.0000  -0.0000  -0.0000
    -0.0000  -0.0000  -0.0000  -0.0000  -0.0000  -0.0000  -0.0000  -0.0000
    -0.0000  -0.0000  -0.0000  -0.0000  -0.0000  -0.0000

          k = 0.0000 0.0000 0.2500 (  9618 PWs)   bands (ev):

   -56.5128 -56.5128 -56.4911 -56.4911 -56.4808 -56.4808 -56.4779 -56.4779
   -28.5923 -28.5849 -28.5818 -28.5793 -28.5554 -28.5522 -28.4964 -28.4961
   -27.6403 -27.6315 -27.5957 -27.5883 -27.5589 -27.5485 -27.5375 -27.5362
   -27.5313 -27.5054 -27.4697 -27.4616 -27.4597 -27.4500 -27.4473 -27.4404
     3.1274   3.1274   5.9922   5.9936   7.6897   7.6926   8.3702   8.3802
     9.7438   9.7452  10.7561  10.7613  10.8666  10.8753  11.1955  11.2029
    11.5680  11.5687  12.2655  12.2804  12.8664  12.8730  12.9121  12.9339
    13.1189  13.1231  13.1280  13.1334  13.2501  13.2507  13.2813  13.2852
    13.5432  13.5466  13.6973  13.7048  14.0458  14.0463  15.0727  15.1013
    15.3790  15.3795  15.6142  15.6294  15.7366  15.7608  15.8507  15.8747
    16.2854  16.3001  16.4937  16.5052  17.1879  17.2081

     occupation numbers 
     1.0000   1.0000   1.0000   1.0000   1.0000   1.0000   1.0000   1.0000
     1.0000   1.0000   1.0000   1.0000   1.0000   1.0000   1.0000   1.0000
     1.0000   1.0000   1.0000   1.0000   1.0000   1.0000   1.0000   1.0000
     1.0000   1.0000   1.0000   1.0000   1.0000   1.0000   1.0000   1.0000
     1.0000   1.0000   1.0000   1.0000   1.0000   1.0000   1.0000   1.0000
     1.0000   1.0000   1.0000   1.0000   1.0000   1.0000   1.0000   1.0000
     1.0000   1.0000   1.0000   1.0000   1.0000   1.0000   1.0000   1.0000
     1.0000   1.0000   1.0000   1.0000   1.0000   1.0000   1.0000   1.0000
     1.0000   1.0000   1.0000   1.0000   1.0000   1.0000  -0.0040  -0.0004
    -0.0000  -0.0000  -0.0000  -0.0000  -0.0000  -0.0000  -0.0000  -0.0000
    -0.0000  -0.0000  -0.0000  -0.0000  -0.0000  -0.0000

          k = 0.0000 0.0000 0.3750 (  9662 PWs)   bands (ev):

   -56.5083 -56.5083 -56.4969 -56.4969 -56.4796 -56.4796 -56.4777 -56.4777
   -28.5927 -28.5864 -28.5856 -28.5817 -28.5401 -28.5378 -28.5089 -28.5081
   -27.6435 -27.6374 -27.5818 -27.5772 -27.5674 -27.5453 -27.5452 -27.5331
   -27.5243 -27.4911 -27.4860 -27.4677 -27.4612 -27.4530 -27.4458 -27.4407
     3.6440   3.6441   5.1360   5.1365   7.9593   7.9638   8.5100   8.5189
     9.6771   9.6799  10.5128  10.5134  10.7728  10.7860  11.0296  11.0314
    12.0046  12.0068  12.1208  12.1354  12.7678  12.7831  12.9433  12.9561
    13.0779  13.0853  13.1838  13.1879  13.2451  13.2483  13.3243  13.3277
    13.5400  13.5404  13.9308  13.9352  14.2203  14.2337  14.8127  14.8477
    15.3555  15.3671  15.4943  15.5133  15.7513  15.7808  15.8453  15.8705
    16.1647  16.1805  16.3082  16.3221  17.3495  17.3615

     occupation numbers 
     1.0000   1.0000   1.0000   1.0000   1.0000   1.0000   1.0000   1.0000
     1.0000   1.0000   1.0000   1.0000   1.0000   1.0000   1.0000   1.0000
     1.0000   1.0000   1.0000   1.0000   1.0000   1.0000   1.0000   1.0000
     1.0000   1.0000   1.0000   1.0000   1.0000   1.0000   1.0000   1.0000
     1.0000   1.0000   1.0000   1.0000   1.0000   1.0000   1.0000   1.0000
     1.0000   1.0000   1.0000   1.0000   1.0000   1.0000   1.0000   1.0000
     1.0000   1.0000   1.0000   1.0000   1.0000   1.0000   1.0000   1.0000
     1.0000   1.0000   1.0000   1.0000   1.0000   1.0000   1.0000   1.0000
     1.0000   1.0000   1.0000   1.0000   1.0000   1.0000   1.0008   1.0098
    -0.0000  -0.0000  -0.0000  -0.0000  -0.0000  -0.0000  -0.0000  -0.0000
    -0.0000  -0.0000  -0.0000  -0.0000  -0.0000  -0.0000

          k = 0.0000 0.0000-0.5000 (  9658 PWs)   bands (ev):

   -56.5028 -56.5028 -56.5028 -56.5028 -56.4784 -56.4784 -56.4784 -56.4784
   -28.5904 -28.5904 -28.5842 -28.5842 -28.5241 -28.5241 -28.5226 -28.5226
   -27.6420 -27.6420 -27.5746 -27.5746 -27.5607 -27.5607 -27.5389 -27.5389
   -27.5052 -27.5052 -27.4783 -27.4783 -27.4574 -27.4574 -27.4431 -27.4431
     4.3289   4.3289   4.3291   4.3291   8.2825   8.2825   8.2889   8.2889
    10.0174  10.0174  10.0214  10.0214  10.8982  10.8982  10.9094  10.9094
    12.2472  12.2472  12.2538  12.2538  12.6843  12.6843  12.6967  12.6967
    13.1413  13.1413  13.1417  13.1417  13.2358  13.2358  13.2395  13.2395
    13.7823  13.7823  13.7855  13.7855  14.5658  14.5658  14.5943  14.5943
    15.3991  15.3991  15.4168  15.4168  15.8042  15.8042  15.8340  15.8340
    16.1657  16.1657  16.1793  16.1793  17.5425  17.5472

     occupation numbers 
     1.0000   1.0000   1.0000   1.0000   1.0000   1.0000   1.0000   1.0000
     1.0000   1.0000   1.0000   1.0000   1.0000   1.0000   1.0000   1.0000
     1.0000   1.0000   1.0000   1.0000   1.0000   1.0000   1.0000   1.0000
     1.0000   1.0000   1.0000   1.0000   1.0000   1.0000   1.0000   1.0000
     1.0000   1.0000   1.0000   1.0000   1.0000   1.0000   1.0000   1.0000
     1.0000   1.0000   1.0000   1.0000   1.0000   1.0000   1.0000   1.0000
     1.0000   1.0000   1.0000   1.0000   1.0000   1.0000   1.0000   1.0000
     1.0000   1.0000   1.0000   1.0000   1.0000   1.0000   1.0000   1.0000
     1.0000   1.0000   1.0000   1.0000   1.0000   1.0000   1.0000   1.0000
    -0.0000  -0.0000  -0.0000  -0.0000  -0.0000  -0.0000  -0.0000  -0.0000
    -0.0000  -0.0000  -0.0000  -0.0000  -0.0000  -0.0000

          k = 0.0000 0.1250 0.1250 (  9657 PWs)   bands (ev):

   -56.5147 -56.5147 -56.4875 -56.4875 -56.4820 -56.4820 -56.4784 -56.4784
   -28.5908 -28.5841 -28.5772 -28.5764 -28.5653 -28.5611 -28.4910 -28.4909
   -27.6336 -27.6299 -27.6017 -27.5979 -27.5522 -27.5479 -27.5420 -27.5401
   -27.5280 -27.5132 -27.4633 -27.4617 -27.4554 -27.4501 -27.4452 -27.4409
     2.9148   2.9149   6.6456   6.6505   7.3155   7.3194   8.2194   8.2252
     9.9473   9.9522  10.6665  10.6725  10.8548  10.8594  11.2389  11.2420
    11.8053  11.8063  12.4438  12.4549  12.5947  12.6026  12.9027  12.9089
    13.0101  13.0194  13.1590  13.1599  13.1642  13.1691  13.2657  13.2676
    13.4633  13.4697  13.6770  13.6885  13.9937  13.9991  15.3443  15.3566
    15.3923  15.4016  15.6223  15.6316  15.7213  15.7376  15.7921  15.8136
    16.3740  16.3922  16.6467  16.6541  16.9386  16.9680

     occupation numbers 
     1.0000   1.0000   1.0000   1.0000   1.0000   1.0000   1.0000   1.0000
     1.0000   1.0000   1.0000   1.0000   1.0000   1.0000   1.0000   1.0000
     1.0000   1.0000   1.0000   1.0000   1.0000   1.0000   1.0000   1.0000
     1.0000   1.0000   1.0000   1.0000   1.0000   1.0000   1.0000   1.0000
     1.0000   1.0000   1.0000   1.0000   1.0000   1.0000   1.0000   1.0000
     1.0000   1.0000   1.0000   1.0000   1.0000   1.0000   1.0000   1.0000
     1.0000   1.0000   1.0000   1.0000   1.0000   1.0000   1.0000   1.0000
     1.0000   1.0000   1.0000   1.0000   1.0000   1.0000   1.0000   1.0000
     1.0000   1.0000   1.0000   1.0000   1.0000   1.0000  -0.0000  -0.0000
    -0.0000  -0.0000  -0.0000  -0.0000  -0.0000  -0.0000  -0.0000  -0.0000
    -0.0000  -0.0000  -0.0000  -0.0000  -0.0000  -0.0000

          k = 0.0000 0.1250 0.2500 (  9633 PWs)   bands (ev):

   -56.5119 -56.5119 -56.4915 -56.4915 -56.4814 -56.4814 -56.4777 -56.4777
   -28.5925 -28.5863 -28.5790 -28.5777 -28.5550 -28.5515 -28.4989 -28.4987
   -27.6390 -27.6326 -27.5920 -27.5866 -27.5586 -27.5505 -27.5421 -27.5393
   -27.5257 -27.5010 -27.4755 -27.4668 -27.4595 -27.4524 -27.4425 -27.4377
     3.2326   3.2327   6.0269   6.0294   7.3763   7.3790   8.4794   8.4845
     9.7444   9.7459  10.4129  10.4166  10.8567  10.8576  11.4948  11.5000
    11.5884  11.5899  12.3108  12.3206  12.6387  12.6414  13.0338  13.0412
    13.0728  13.0842  13.2020  13.2081  13.2804  13.2816  13.3797  13.3839
    13.5196  13.5261  13.8042  13.8195  14.1004  14.1075  15.0887  15.1157
    15.2968  15.3118  15.5053  15.5199  15.6869  15.7089  15.8380  15.8636
    16.2236  16.2388  16.5275  16.5397  17.1526  17.1858

     occupation numbers 
     1.0000   1.0000   1.0000   1.0000   1.0000   1.0000   1.0000   1.0000
     1.0000   1.0000   1.0000   1.0000   1.0000   1.0000   1.0000   1.0000
     1.0000   1.0000   1.0000   1.0000   1.0000   1.0000   1.0000   1.0000
     1.0000   1.0000   1.0000   1.0000   1.0000   1.0000   1.0000   1.0000
     1.0000   1.0000   1.0000   1.0000   1.0000   1.0000   1.0000   1.0000
     1.0000   1.0000   1.0000   1.0000   1.0000   1.0000   1.0000   1.0000
     1.0000   1.0000   1.0000   1.0000   1.0000   1.0000   1.0000   1.0000
     1.0000   1.0000   1.0000   1.0000   1.0000   1.0000   1.0000   1.0000
     1.0000   1.0000   1.0000   1.0000   1.0000   1.0000  -0.0012  -0.0001
    -0.0000  -0.0000  -0.0000  -0.0000  -0.0000  -0.0000  -0.0000  -0.0000
    -0.0000  -0.0000  -0.0000  -0.0000  -0.0000  -0.0000

          k = 0.0000 0.1250 0.3750 (  9657 PWs)   bands (ev):

   -56.5076 -56.5076 -56.4968 -56.4968 -56.4802 -56.4802 -56.4779 -56.4779
   -28.5919 -28.5866 -28.5831 -28.5802 -28.5409 -28.5386 -28.5110 -28.5103
   -27.6412 -27.6360 -27.5817 -27.5756 -27.5669 -27.5501 -27.5446 -27.5316
   -27.5263 -27.4926 -27.4871 -27.4701 -27.4626 -27.4564 -27.4404 -27.4371
     3.7448   3.7450   5.2139   5.2150   7.6679   7.6699   8.4241   8.4278
     9.7362   9.7395  10.2162  10.2203  11.0143  11.0203  11.1803  11.1942
    11.8664  11.8717  12.1811  12.1908  12.6387  12.6453  12.8659  12.8759
    13.0649  13.0712  13.2696  13.2743  13.3335  13.3354  13.4464  13.4493
    13.6023  13.6091  13.9672  13.9740  14.2910  14.3081  14.8250  14.8586
    15.2780  15.2938  15.3776  15.3901  15.6912  15.7174  15.8248  15.8543
    16.1469  16.1555  16.3588  16.3723  17.3038  17.3274

     occupation numbers 
     1.0000   1.0000   1.0000   1.0000   1.0000   1.0000   1.0000   1.0000
     1.0000   1.0000   1.0000   1.0000   1.0000   1.0000   1.0000   1.0000
     1.0000   1.0000   1.0000   1.0000   1.0000   1.0000   1.0000   1.0000
     1.0000   1.0000   1.0000   1.0000   1.0000   1.0000   1.0000   1.0000
     1.0000   1.0000   1.0000   1.0000   1.0000   1.0000   1.0000   1.0000
     1.0000   1.0000   1.0000   1.0000   1.0000   1.0000   1.0000   1.0000
     1.0000   1.0000   1.0000   1.0000   1.0000   1.0000   1.0000   1.0000
     1.0000   1.0000   1.0000   1.0000   1.0000   1.0000   1.0000   1.0000
     1.0000   1.0000   1.0000   1.0000   1.0000   1.0000   1.0022   1.0170
    -0.0000  -0.0000  -0.0000  -0.0000  -0.0000  -0.0000  -0.0000  -0.0000
    -0.0000  -0.0000  -0.0000  -0.0000  -0.0000  -0.0000

          k = 0.0000 0.1250-0.5000 (  9664 PWs)   bands (ev):

   -56.5024 -56.5024 -56.5024 -56.5024 -56.4789 -56.4789 -56.4789 -56.4789
   -28.5890 -28.5890 -28.5830 -28.5830 -28.5261 -28.5261 -28.5238 -28.5238
   -27.6396 -27.6396 -27.5746 -27.5746 -27.5614 -27.5614 -27.5383 -27.5383
   -27.5098 -27.5098 -27.4772 -27.4772 -27.4606 -27.4606 -27.4384 -27.4384
     4.4222   4.4222   4.4227   4.4227   8.0587   8.0587   8.0655   8.0655
     9.9962   9.9962  10.0006  10.0006  11.0367  11.0367  11.0508  11.0508
    12.1471  12.1471  12.1525  12.1525  12.5970  12.5970  12.6133  12.6133
    13.2261  13.2261  13.2286  13.2286  13.3313  13.3313  13.3326  13.3326
    13.8294  13.8294  13.8330  13.8330  14.5991  14.5991  14.6295  14.6295
    15.3005  15.3005  15.3164  15.3164  15.7554  15.7554  15.7851  15.7851
    16.2049  16.2049  16.2159  16.2159  17.5188  17.5263

     occupation numbers 
     1.0000   1.0000   1.0000   1.0000   1.0000   1.0000   1.0000   1.0000
     1.0000   1.0000   1.0000   1.0000   1.0000   1.0000   1.0000   1.0000
     1.0000   1.0000   1.0000   1.0000   1.0000   1.0000   1.0000   1.0000
     1.0000   1.0000   1.0000   1.0000   1.0000   1.0000   1.0000   1.0000
     1.0000   1.0000   1.0000   1.0000   1.0000   1.0000   1.0000   1.0000
     1.0000   1.0000   1.0000   1.0000   1.0000   1.0000   1.0000   1.0000
     1.0000   1.0000   1.0000   1.0000   1.0000   1.0000   1.0000   1.0000
     1.0000   1.0000   1.0000   1.0000   1.0000   1.0000   1.0000   1.0000
     1.0000   1.0000   1.0000   1.0000   1.0000   1.0000   1.0000   1.0000
    -0.0000  -0.0000  -0.0000  -0.0000  -0.0000  -0.0000  -0.0000  -0.0000
    -0.0000  -0.0000  -0.0000  -0.0000  -0.0000  -0.0000

          k = 0.0000 0.2500 0.2500 (  9661 PWs)   bands (ev):

   -56.5094 -56.5094 -56.4933 -56.4933 -56.4820 -56.4820 -56.4778 -56.4778
   -28.5919 -28.5865 -28.5768 -28.5761 -28.5514 -28.5479 -28.5062 -28.5058
   -27.6365 -27.6333 -27.5850 -27.5826 -27.5590 -27.5550 -27.5427 -27.5419
   -27.5224 -27.4952 -27.4851 -27.4754 -27.4647 -27.4487 -27.4383 -27.4345
     3.5429   3.5431   5.9655   5.9688   6.9414   6.9454   8.4362   8.4413
     9.7518   9.7550  10.1866  10.1917  10.9256  10.9281  11.3505  11.3516
    11.8599  11.8637  12.2863  12.2898  12.5058  12.5151  12.9031  12.9107
    13.1467  13.1560  13.2693  13.2788  13.4407  13.4422  13.5193  13.5286
    13.5704  13.5808  13.9839  13.9961  14.2200  14.2256  15.0457  15.0662
    15.1390  15.1637  15.2923  15.3038  15.6130  15.6381  15.7616  15.7905
    16.1592  16.1702  16.5121  16.5228  17.1853  17.2282

     occupation numbers 
     1.0000   1.0000   1.0000   1.0000   1.0000   1.0000   1.0000   1.0000
     1.0000   1.0000   1.0000   1.0000   1.0000   1.0000   1.0000   1.0000
     1.0000   1.0000   1.0000   1.0000   1.0000   1.0000   1.0000   1.0000
     1.0000   1.0000   1.0000   1.0000   1.0000   1.0000   1.0000   1.0000
     1.0000   1.0000   1.0000   1.0000   1.0000   1.0000   1.0000   1.0000
     1.0000   1.0000   1.0000   1.0000   1.0000   1.0000   1.0000   1.0000
     1.0000   1.0000   1.0000   1.0000   1.0000   1.0000   1.0000   1.0000
     1.0000   1.0000   1.0000   1.0000   1.0000   1.0000   1.0000   1.0000
     1.0000   1.0000   1.0000   1.0000   1.0000   1.0000  -0.0184  -0.0061
    -0.0000  -0.0000  -0.0000  -0.0000  -0.0000  -0.0000  -0.0000  -0.0000
    -0.0000  -0.0000  -0.0000  -0.0000  -0.0000  -0.0000

          k = 0.0000 0.2500 0.3750 (  9639 PWs)   bands (ev):

   -56.5057 -56.5057 -56.4967 -56.4967 -56.4814 -56.4814 -56.4787 -56.4787
   -28.5893 -28.5848 -28.5790 -28.5771 -28.5421 -28.5399 -28.5168 -28.5163
   -27.6347 -27.6320 -27.5837 -27.5767 -27.5636 -27.5530 -27.5434 -27.5332
   -27.5262 -27.5004 -27.4917 -27.4818 -27.4612 -27.4490 -27.4354 -27.4329
     4.0411   4.0415   5.4175   5.4194   7.0450   7.0481   8.0210   8.0244
     9.9170   9.9203  10.1871  10.1904  11.0281  11.0319  11.3806  11.3881
    11.8896  11.8916  12.0246  12.0288  12.4327  12.4437  12.6520  12.6620
    13.2334  13.2428  13.3288  13.3341  13.4377  13.4414  13.6529  13.6558
    13.7899  13.7933  14.0662  14.0757  14.4539  14.4793  14.8301  14.8569
    15.0706  15.0918  15.1459  15.1514  15.5745  15.5990  15.6785  15.7106
    16.1999  16.2069  16.4540  16.4645  17.1900  17.2189

     occupation numbers 
     1.0000   1.0000   1.0000   1.0000   1.0000   1.0000   1.0000   1.0000
     1.0000   1.0000   1.0000   1.0000   1.0000   1.0000   1.0000   1.0000
     1.0000   1.0000   1.0000   1.0000   1.0000   1.0000   1.0000   1.0000
     1.0000   1.0000   1.0000   1.0000   1.0000   1.0000   1.0000   1.0000
     1.0000   1.0000   1.0000   1.0000   1.0000   1.0000   1.0000   1.0000
     1.0000   1.0000   1.0000   1.0000   1.0000   1.0000   1.0000   1.0000
     1.0000   1.0000   1.0000   1.0000   1.0000   1.0000   1.0000   1.0000
     1.0000   1.0000   1.0000   1.0000   1.0000   1.0000   1.0000   1.0000
     1.0000   1.0000   1.0000   1.0000   1.0000   1.0000   1.0032   1.0158
    -0.0046  -0.0009  -0.0000  -0.0000  -0.0000  -0.0000  -0.0000  -0.0000
    -0.0000  -0.0000  -0.0000  -0.0000  -0.0000  -0.0000

          k = 0.0000 0.2500-0.5000 (  9686 PWs)   bands (ev):

   -56.5012 -56.5012 -56.5012 -56.5012 -56.4801 -56.4801 -56.4801 -56.4801
   -28.5854 -28.5854 -28.5798 -28.5798 -28.5306 -28.5306 -28.5274 -28.5274
   -27.6326 -27.6326 -27.5803 -27.5803 -27.5579 -27.5579 -27.5365 -27.5365
   -27.5168 -27.5168 -27.4877 -27.4877 -27.4539 -27.4539 -27.4334 -27.4334
     4.6919   4.6919   4.6929   4.6929   7.4838   7.4838   7.4899   7.4899
    10.1294  10.1294  10.1324  10.1324  11.2001  11.2001  11.2118  11.2118
    11.9549  11.9549  11.9569  11.9569  12.4182  12.4182  12.4306  12.4306
    13.3455  13.3455  13.3519  13.3519  13.5152  13.5152  13.5212  13.5212
    13.9872  13.9872  13.9928  13.9928  14.6542  14.6542  14.6847  14.6847
    15.0835  15.0835  15.0952  15.0952  15.6016  15.6016  15.6304  15.6304
    16.3323  16.3323  16.3433  16.3433  17.3577  17.3608

     occupation numbers 
     1.0000   1.0000   1.0000   1.0000   1.0000   1.0000   1.0000   1.0000
     1.0000   1.0000   1.0000   1.0000   1.0000   1.0000   1.0000   1.0000
     1.0000   1.0000   1.0000   1.0000   1.0000   1.0000   1.0000   1.0000
     1.0000   1.0000   1.0000   1.0000   1.0000   1.0000   1.0000   1.0000
     1.0000   1.0000   1.0000   1.0000   1.0000   1.0000   1.0000   1.0000
     1.0000   1.0000   1.0000   1.0000   1.0000   1.0000   1.0000   1.0000
     1.0000   1.0000   1.0000   1.0000   1.0000   1.0000   1.0000   1.0000
     1.0000   1.0000   1.0000   1.0000   1.0000   1.0000   1.0000   1.0000
     1.0000   1.0000   1.0000   1.0000   1.0000   1.0000   1.0000   1.0000
    -0.0018  -0.0018  -0.0007  -0.0007  -0.0000  -0.0000  -0.0000  -0.0000
    -0.0000  -0.0000  -0.0000  -0.0000  -0.0000  -0.0000

          k = 0.0000 0.3750 0.3750 (  9632 PWs)   bands (ev):

   -56.5028 -56.5028 -56.4976 -56.4976 -56.4820 -56.4820 -56.4800 -56.4800
   -28.5849 -28.5815 -28.5766 -28.5757 -28.5407 -28.5388 -28.5254 -28.5245
   -27.6263 -27.6259 -27.5897 -27.5857 -27.5553 -27.5498 -27.5394 -27.5329
   -27.5276 -27.5065 -27.5041 -27.4946 -27.4518 -27.4424 -27.4341 -27.4315
     4.5100   4.5106   5.5236   5.5252   6.5730   6.5751   7.4028   7.4058
    10.2462  10.2475  10.4518  10.4529  10.9113  10.9121  11.2394  11.2425
    11.7861  11.7890  12.0555  12.0595  12.2634  12.2658  12.4685  12.4762
    13.2320  13.2396  13.3885  13.3901  13.6716  13.6721  13.8195  13.8244
    14.0548  14.0669  14.1494  14.1604  14.5567  14.5768  14.7398  14.7518
    14.8525  14.8716  14.9545  14.9778  15.4752  15.4947  15.5157  15.5430
    16.3212  16.3317  16.5103  16.5159  17.0889  17.1112

     occupation numbers 
     1.0000   1.0000   1.0000   1.0000   1.0000   1.0000   1.0000   1.0000
     1.0000   1.0000   1.0000   1.0000   1.0000   1.0000   1.0000   1.0000
     1.0000   1.0000   1.0000   1.0000   1.0000   1.0000   1.0000   1.0000
     1.0000   1.0000   1.0000   1.0000   1.0000   1.0000   1.0000   1.0000
     1.0000   1.0000   1.0000   1.0000   1.0000   1.0000   1.0000   1.0000
     1.0000   1.0000   1.0000   1.0000   1.0000   1.0000   1.0000   1.0000
     1.0000   1.0000   1.0000   1.0000   1.0000   1.0000   1.0000   1.0000
     1.0000   1.0000   1.0000   1.0000   1.0000   1.0000   1.0000   1.0000
     1.0000   1.0000   1.0000   1.0000   1.0000   1.0000   1.0000   1.0000
     1.0127   1.0278   0.4774   0.1552  -0.0000  -0.0000  -0.0000  -0.0000
    -0.0000  -0.0000  -0.0000  -0.0000  -0.0000  -0.0000

          k = 0.0000 0.3750-0.5000 (  9642 PWs)   bands (ev):

   -56.4998 -56.4998 -56.4998 -56.4998 -56.4814 -56.4814 -56.4814 -56.4814
   -28.5804 -28.5804 -28.5768 -28.5768 -28.5350 -28.5350 -28.5324 -28.5324
   -27.6216 -27.6216 -27.5930 -27.5930 -27.5486 -27.5486 -27.5353 -27.5353
   -27.5204 -27.5204 -27.5031 -27.5031 -27.4438 -27.4438 -27.4326 -27.4326
     5.0902   5.0902   5.0916   5.0916   6.8117   6.8117   6.8158   6.8158
    10.4497  10.4497  10.4511  10.4511  11.2416  11.2416  11.2496  11.2496
    11.6402  11.6402  11.6480  11.6480  12.3097  12.3097  12.3148  12.3148
    13.3637  13.3637  13.3695  13.3695  13.7678  13.7678  13.7769  13.7769
    14.2719  14.2719  14.2747  14.2747  14.5429  14.5429  14.5536  14.5536
    14.8847  14.8847  14.9037  14.9037  15.4562  15.4562  15.4760  15.4760
    16.4917  16.4917  16.5018  16.5018  17.1130  17.1160

     occupation numbers 
     1.0000   1.0000   1.0000   1.0000   1.0000   1.0000   1.0000   1.0000
     1.0000   1.0000   1.0000   1.0000   1.0000   1.0000   1.0000   1.0000
     1.0000   1.0000   1.0000   1.0000   1.0000   1.0000   1.0000   1.0000
     1.0000   1.0000   1.0000   1.0000   1.0000   1.0000   1.0000   1.0000
     1.0000   1.0000   1.0000   1.0000   1.0000   1.0000   1.0000   1.0000
     1.0000   1.0000   1.0000   1.0000   1.0000   1.0000   1.0000   1.0000
     1.0000   1.0000   1.0000   1.0000   1.0000   1.0000   1.0000   1.0000
     1.0000   1.0000   1.0000   1.0000   1.0000   1.0000   1.0000   1.0000
     1.0000   1.0000   1.0000   1.0000   1.0000   1.0000   1.0000   1.0000
     1.0353   1.0353   1.0124   1.0124  -0.0000  -0.0000  -0.0000  -0.0000
    -0.0000  -0.0000  -0.0000  -0.0000  -0.0000  -0.0000

          k = 0.0000-0.5000-0.5000 (  9580 PWs)   bands (ev):

   -56.4992 -56.4992 -56.4992 -56.4992 -56.4820 -56.4820 -56.4820 -56.4820
   -28.5767 -28.5767 -28.5767 -28.5767 -28.5359 -28.5359 -28.5359 -28.5359
   -27.6078 -27.6078 -27.6078 -27.6078 -27.5392 -27.5392 -27.5392 -27.5392
   -27.5159 -27.5159 -27.5159 -27.5159 -27.4362 -27.4362 -27.4362 -27.4362
     5.3718   5.3718   5.3718   5.3718   6.4279   6.4279   6.4279   6.4279
    10.7056  10.7056  10.7056  10.7056  11.2420  11.2420  11.2420  11.2420
    11.3849  11.3849  11.3849  11.3849  12.2845  12.2845  12.2845  12.2845
    13.3606  13.3606  13.3606  13.3606  14.0064  14.0064  14.0064  14.0064
    14.2913  14.2913  14.2913  14.2913  14.5253  14.5253  14.5253  14.5253
    14.7578  14.7578  14.7578  14.7578  15.4146  15.4146  15.4146  15.4146
    16.5870  16.5870  16.5870  16.5870  16.9823  16.9823

     occupation numbers 
     1.0000   1.0000   1.0000   1.0000   1.0000   1.0000   1.0000   1.0000
     1.0000   1.0000   1.0000   1.0000   1.0000   1.0000   1.0000   1.0000
     1.0000   1.0000   1.0000   1.0000   1.0000   1.0000   1.0000   1.0000
     1.0000   1.0000   1.0000   1.0000   1.0000   1.0000   1.0000   1.0000
     1.0000   1.0000   1.0000   1.0000   1.0000   1.0000   1.0000   1.0000
     1.0000   1.0000   1.0000   1.0000   1.0000   1.0000   1.0000   1.0000
     1.0000   1.0000   1.0000   1.0000   1.0000   1.0000   1.0000   1.0000
     1.0000   1.0000   1.0000   1.0000   1.0000   1.0000   1.0000   1.0000
     1.0000   1.0000   1.0000   1.0000   1.0000   1.0000   1.0000   1.0000
     1.0000   1.0000   1.0000   1.0000  -0.0000  -0.0000  -0.0000  -0.0000
    -0.0000  -0.0000  -0.0000  -0.0000  -0.0000  -0.0000

          k = 0.1250 0.1250 0.1250 (  9633 PWs)   bands (ev):

   -56.5137 -56.5137 -56.4885 -56.4885 -56.4823 -56.4823 -56.4780 -56.4780
   -28.5918 -28.5855 -28.5761 -28.5752 -28.5633 -28.5588 -28.4937 -28.4935
   -27.6339 -27.6325 -27.5981 -27.5931 -27.5537 -27.5473 -27.5451 -27.5436
   -27.5239 -27.5081 -27.4709 -27.4606 -27.4558 -27.4547 -27.4418 -27.4392
     3.0217   3.0217   6.5638   6.5704   7.1840   7.1913   8.2854   8.2895
     9.9222   9.9270  10.6109  10.6111  10.6520  10.6521  11.2991  11.3046
    11.9447  11.9458  12.3497  12.3610  12.7370  12.7390  12.8157  12.8247
    13.0608  13.0644  13.1624  13.1630  13.2407  13.2466  13.3405  13.3493
    13.4543  13.4624  13.7029  13.7073  14.0628  14.0703  15.3194  15.3237
    15.3548  15.3560  15.5729  15.5737  15.6349  15.6494  15.8106  15.8228
    16.3134  16.3330  16.6479  16.6564  16.9613  16.9966

     occupation numbers 
     1.0000   1.0000   1.0000   1.0000   1.0000   1.0000   1.0000   1.0000
     1.0000   1.0000   1.0000   1.0000   1.0000   1.0000   1.0000   1.0000
     1.0000   1.0000   1.0000   1.0000   1.0000   1.0000   1.0000   1.0000
     1.0000   1.0000   1.0000   1.0000   1.0000   1.0000   1.0000   1.0000
     1.0000   1.0000   1.0000   1.0000   1.0000   1.0000   1.0000   1.0000
     1.0000   1.0000   1.0000   1.0000   1.0000   1.0000   1.0000   1.0000
     1.0000   1.0000   1.0000   1.0000   1.0000   1.0000   1.0000   1.0000
     1.0000   1.0000   1.0000   1.0000   1.0000   1.0000   1.0000   1.0000
     1.0000   1.0000   1.0000   1.0000   1.0000   1.0000  -0.0000  -0.0000
    -0.0000  -0.0000  -0.0000  -0.0000  -0.0000  -0.0000  -0.0000  -0.0000
    -0.0000  -0.0000  -0.0000  -0.0000  -0.0000  -0.0000

          k = 0.1250 0.1250 0.2500 (  9648 PWs)   bands (ev):

   -56.5110 -56.5110 -56.4918 -56.4918 -56.4820 -56.4820 -56.4777 -56.4777
   -28.5924 -28.5866 -28.5771 -28.5762 -28.5548 -28.5511 -28.5015 -28.5011
   -27.6377 -27.6329 -27.5904 -27.5836 -27.5578 -27.5512 -27.5464 -27.5420
   -27.5215 -27.4987 -27.4805 -27.4657 -27.4617 -27.4555 -27.4389 -27.4366
     3.3370   3.3371   6.0628   6.0660   7.2204   7.2249   8.4041   8.4082
     9.6716   9.6737  10.4343  10.4382  10.6890  10.6928  11.4163  11.4203
    11.8416  11.8465  12.2991  12.3025  12.7369  12.7422  13.0063  13.0114
    13.0809  13.0877  13.1134  13.1211  13.2795  13.2841  13.4374  13.4468
    13.6233  13.6318  13.8377  13.8464  14.1515  14.1575  15.0810  15.1062
    15.2818  15.2969  15.4429  15.4566  15.5861  15.6034  15.8085  15.8277
    16.2007  16.2164  16.5426  16.5564  17.1171  17.1526

     occupation numbers 
     1.0000   1.0000   1.0000   1.0000   1.0000   1.0000   1.0000   1.0000
     1.0000   1.0000   1.0000   1.0000   1.0000   1.0000   1.0000   1.0000
     1.0000   1.0000   1.0000   1.0000   1.0000   1.0000   1.0000   1.0000
     1.0000   1.0000   1.0000   1.0000   1.0000   1.0000   1.0000   1.0000
     1.0000   1.0000   1.0000   1.0000   1.0000   1.0000   1.0000   1.0000
     1.0000   1.0000   1.0000   1.0000   1.0000   1.0000   1.0000   1.0000
     1.0000   1.0000   1.0000   1.0000   1.0000   1.0000   1.0000   1.0000
     1.0000   1.0000   1.0000   1.0000   1.0000   1.0000   1.0000   1.0000
     1.0000   1.0000   1.0000   1.0000   1.0000   1.0000  -0.0022  -0.0003
    -0.0000  -0.0000  -0.0000  -0.0000  -0.0000  -0.0000  -0.0000  -0.0000
    -0.0000  -0.0000  -0.0000  -0.0000  -0.0000  -0.0000

          k = 0.1250 0.1250 0.3750 (  9660 PWs)   bands (ev):

   -56.5069 -56.5069 -56.4966 -56.4966 -56.4808 -56.4808 -56.4782 -56.4782
   -28.5910 -28.5862 -28.5811 -28.5788 -28.5419 -28.5393 -28.5132 -28.5123
   -27.6390 -27.6346 -27.5808 -27.5752 -27.5660 -27.5532 -27.5452 -27.5334
   -27.5245 -27.4997 -27.4819 -27.4698 -27.4653 -27.4585 -27.4371 -27.4355
     3.8448   3.8450   5.2906   5.2917   7.5135   7.5158   8.3089   8.3133
     9.5584   9.5594  10.2042  10.2075  10.9209  10.9252  11.4069  11.4129
    11.7848  11.7881  12.2116  12.2153  12.7414  12.7472  12.9479  12.9556
    13.0574  13.0656  13.2272  13.2343  13.3243  13.3279  13.4297  13.4361
    13.6937  13.6966  13.9766  13.9839  14.3498  14.3697  14.8301  14.8628
    15.2434  15.2596  15.3153  15.3285  15.6073  15.6273  15.7659  15.7893
    16.1530  16.1624  16.3768  16.3913  17.3093  17.3328

     occupation numbers 
     1.0000   1.0000   1.0000   1.0000   1.0000   1.0000   1.0000   1.0000
     1.0000   1.0000   1.0000   1.0000   1.0000   1.0000   1.0000   1.0000
     1.0000   1.0000   1.0000   1.0000   1.0000   1.0000   1.0000   1.0000
     1.0000   1.0000   1.0000   1.0000   1.0000   1.0000   1.0000   1.0000
     1.0000   1.0000   1.0000   1.0000   1.0000   1.0000   1.0000   1.0000
     1.0000   1.0000   1.0000   1.0000   1.0000   1.0000   1.0000   1.0000
     1.0000   1.0000   1.0000   1.0000   1.0000   1.0000   1.0000   1.0000
     1.0000   1.0000   1.0000   1.0000   1.0000   1.0000   1.0000   1.0000
     1.0000   1.0000   1.0000   1.0000   1.0000   1.0000   1.0032   1.0204
    -0.0000  -0.0000  -0.0000  -0.0000  -0.0000  -0.0000  -0.0000  -0.0000
    -0.0000  -0.0000  -0.0000  -0.0000  -0.0000  -0.0000

          k = 0.1250 0.1250-0.5000 (  9650 PWs)   bands (ev):

   -56.5019 -56.5019 -56.5019 -56.5019 -56.4793 -56.4793 -56.4793 -56.4793
   -28.5877 -28.5877 -28.5817 -28.5817 -28.5280 -28.5280 -28.5250 -28.5250
   -27.6374 -27.6374 -27.5735 -27.5735 -27.5637 -27.5637 -27.5371 -27.5371
   -27.5140 -27.5140 -27.4750 -27.4750 -27.4631 -27.4631 -27.4359 -27.4359
     4.5143   4.5143   4.5149   4.5149   7.9203   7.9203   7.9266   7.9266
     9.8404   9.8404   9.8418   9.8418  11.1810  11.1810  11.1907  11.1907
    12.0264  12.0264  12.0301  12.0301  12.7773  12.7773  12.7900  12.7900
    13.1751  13.1751  13.1832  13.1832  13.3645  13.3645  13.3674  13.3674
    13.8480  13.8480  13.8541  13.8541  14.6285  14.6285  14.6606  14.6606
    15.2441  15.2441  15.2632  15.2632  15.6823  15.6823  15.7084  15.7084
    16.2232  16.2232  16.2334  16.2334  17.6139  17.6153

     occupation numbers 
     1.0000   1.0000   1.0000   1.0000   1.0000   1.0000   1.0000   1.0000
     1.0000   1.0000   1.0000   1.0000   1.0000   1.0000   1.0000   1.0000
     1.0000   1.0000   1.0000   1.0000   1.0000   1.0000   1.0000   1.0000
     1.0000   1.0000   1.0000   1.0000   1.0000   1.0000   1.0000   1.0000
     1.0000   1.0000   1.0000   1.0000   1.0000   1.0000   1.0000   1.0000
     1.0000   1.0000   1.0000   1.0000   1.0000   1.0000   1.0000   1.0000
     1.0000   1.0000   1.0000   1.0000   1.0000   1.0000   1.0000   1.0000
     1.0000   1.0000   1.0000   1.0000   1.0000   1.0000   1.0000   1.0000
     1.0000   1.0000   1.0000   1.0000   1.0000   1.0000   1.0000   1.0000
    -0.0000  -0.0000  -0.0000  -0.0000  -0.0000  -0.0000  -0.0000  -0.0000
    -0.0000  -0.0000  -0.0000  -0.0000  -0.0000  -0.0000

          k = 0.1250 0.2500 0.2500 (  9649 PWs)   bands (ev):

   -56.5086 -56.5086 -56.4932 -56.4932 -56.4826 -56.4826 -56.4780 -56.4780
   -28.5912 -28.5860 -28.5751 -28.5746 -28.5519 -28.5483 -28.5086 -28.5079
   -27.6352 -27.6321 -27.5865 -27.5785 -27.5593 -27.5541 -27.5477 -27.5435
   -27.5181 -27.5009 -27.4827 -27.4702 -27.4681 -27.4530 -27.4360 -27.4339
     3.6448   3.6449   6.0136   6.0181   6.9146   6.9210   8.2970   8.3007
     9.4087   9.4115  10.4280  10.4298  10.6904  10.6929  11.4593  11.4642
    11.9039  11.9065  12.3018  12.3037  12.6213  12.6278  12.9554  12.9618
    13.1168  13.1217  13.1927  13.2035  13.2819  13.2874  13.5783  13.5851
    13.7489  13.7565  13.9704  13.9795  14.2868  14.2938  15.0245  15.0418
    15.1579  15.1783  15.2833  15.2959  15.4970  15.5090  15.7190  15.7397
    16.1681  16.1790  16.5170  16.5295  17.1460  17.1866

     occupation numbers 
     1.0000   1.0000   1.0000   1.0000   1.0000   1.0000   1.0000   1.0000
     1.0000   1.0000   1.0000   1.0000   1.0000   1.0000   1.0000   1.0000
     1.0000   1.0000   1.0000   1.0000   1.0000   1.0000   1.0000   1.0000
     1.0000   1.0000   1.0000   1.0000   1.0000   1.0000   1.0000   1.0000
     1.0000   1.0000   1.0000   1.0000   1.0000   1.0000   1.0000   1.0000
     1.0000   1.0000   1.0000   1.0000   1.0000   1.0000   1.0000   1.0000
     1.0000   1.0000   1.0000   1.0000   1.0000   1.0000   1.0000   1.0000
     1.0000   1.0000   1.0000   1.0000   1.0000   1.0000   1.0000   1.0000
     1.0000   1.0000   1.0000   1.0000   1.0000   1.0000  -0.0344  -0.0216
    -0.0000  -0.0000  -0.0000  -0.0000  -0.0000  -0.0000  -0.0000  -0.0000
    -0.0000  -0.0000  -0.0000  -0.0000  -0.0000  -0.0000

          k = 0.1250 0.2500 0.3750 (  9647 PWs)   bands (ev):

   -56.5050 -56.5050 -56.4964 -56.4964 -56.4820 -56.4820 -56.4791 -56.4791
   -28.5882 -28.5839 -28.5774 -28.5757 -28.5433 -28.5409 -28.5190 -28.5181
   -27.6329 -27.6301 -27.5830 -27.5753 -27.5657 -27.5556 -27.5432 -27.5362
   -27.5220 -27.5091 -27.4842 -27.4779 -27.4638 -27.4525 -27.4345 -27.4324
     4.1383   4.1386   5.4911   5.4932   7.0393   7.0432   7.9716   7.9748
     9.4103   9.4127  10.1453  10.1477  11.0641  11.0672  11.5737  11.5797
    11.8039  11.8113  12.0652  12.0669  12.5151  12.5252  12.7876  12.7953
    13.2074  13.2127  13.2896  13.3019  13.3522  13.3577  13.5985  13.6079
    13.8624  13.8739  14.0965  14.1080  14.5025  14.5306  14.8371  14.8638
    15.0691  15.0787  15.1454  15.1591  15.5063  15.5191  15.6317  15.6546
    16.2017  16.2086  16.4435  16.4544  17.1760  17.2025

     occupation numbers 
     1.0000   1.0000   1.0000   1.0000   1.0000   1.0000   1.0000   1.0000
     1.0000   1.0000   1.0000   1.0000   1.0000   1.0000   1.0000   1.0000
     1.0000   1.0000   1.0000   1.0000   1.0000   1.0000   1.0000   1.0000
     1.0000   1.0000   1.0000   1.0000   1.0000   1.0000   1.0000   1.0000
     1.0000   1.0000   1.0000   1.0000   1.0000   1.0000   1.0000   1.0000
     1.0000   1.0000   1.0000   1.0000   1.0000   1.0000   1.0000   1.0000
     1.0000   1.0000   1.0000   1.0000   1.0000   1.0000   1.0000   1.0000
     1.0000   1.0000   1.0000   1.0000   1.0000   1.0000   1.0000   1.0000
     1.0000   1.0000   1.0000   1.0000   1.0000   1.0000   1.0051   1.0212
    -0.0051  -0.0026  -0.0000  -0.0000  -0.0000  -0.0000  -0.0000  -0.0000
    -0.0000  -0.0000  -0.0000  -0.0000  -0.0000  -0.0000

          k = 0.1250 0.2500-0.5000 (  9646 PWs)   bands (ev):

   -56.5006 -56.5006 -56.5006 -56.5006 -56.4806 -56.4806 -56.4806 -56.4806
   -28.5840 -28.5840 -28.5786 -28.5786 -28.5324 -28.5324 -28.5289 -28.5289
   -27.6305 -27.6305 -27.5790 -27.5790 -27.5619 -27.5619 -27.5344 -27.5344
   -27.5205 -27.5205 -27.4830 -27.4830 -27.4567 -27.4567 -27.4329 -27.4329
     4.7808   4.7808   4.7819   4.7819   7.4688   7.4688   7.4752   7.4752
     9.7441   9.7441   9.7465   9.7465  11.5279  11.5279  11.5355  11.5355
    11.7436  11.7436  11.7474  11.7474  12.5995  12.5995  12.6110  12.6110
    13.2913  13.2913  13.2976  13.2976  13.4696  13.4696  13.4812  13.4812
    14.0236  14.0236  14.0317  14.0317  14.6934  14.6934  14.7258  14.7258
    15.0653  15.0653  15.0816  15.0816  15.5546  15.5546  15.5782  15.5782
    16.3193  16.3193  16.3282  16.3282  17.3780  17.3817

     occupation numbers 
     1.0000   1.0000   1.0000   1.0000   1.0000   1.0000   1.0000   1.0000
     1.0000   1.0000   1.0000   1.0000   1.0000   1.0000   1.0000   1.0000
     1.0000   1.0000   1.0000   1.0000   1.0000   1.0000   1.0000   1.0000
     1.0000   1.0000   1.0000   1.0000   1.0000   1.0000   1.0000   1.0000
     1.0000   1.0000   1.0000   1.0000   1.0000   1.0000   1.0000   1.0000
     1.0000   1.0000   1.0000   1.0000   1.0000   1.0000   1.0000   1.0000
     1.0000   1.0000   1.0000   1.0000   1.0000   1.0000   1.0000   1.0000
     1.0000   1.0000   1.0000   1.0000   1.0000   1.0000   1.0000   1.0000
     1.0000   1.0000   1.0000   1.0000   1.0000   1.0000   1.0000   1.0000
    -0.0065  -0.0065  -0.0021  -0.0021  -0.0000  -0.0000  -0.0000  -0.0000
    -0.0000  -0.0000  -0.0000  -0.0000  -0.0000  -0.0000

          k = 0.1250 0.3750 0.3750 (  9632 PWs)   bands (ev):

   -56.5022 -56.5022 -56.4971 -56.4971 -56.4827 -56.4827 -56.4806 -56.4806
   -28.5837 -28.5803 -28.5751 -28.5742 -28.5422 -28.5402 -28.5273 -28.5262
   -27.6251 -27.6236 -27.5885 -27.5843 -27.5609 -27.5536 -27.5395 -27.5331
   -27.5240 -27.5159 -27.4933 -27.4889 -27.4543 -27.4459 -27.4344 -27.4315
     4.6021   4.6026   5.5963   5.5985   6.6180   6.6214   7.4192   7.4223
     9.5842   9.5868  10.2019  10.2052  10.9490  10.9510  11.5402  11.5426
    11.7636  11.7681  12.1094  12.1113  12.3540  12.3584  12.6178  12.6244
    13.1907  13.1963  13.3126  13.3178  13.5597  13.5685  13.7642  13.7803
    14.0179  14.0314  14.2994  14.3085  14.5617  14.5803  14.7906  14.8055
    14.8763  14.8812  14.9907  15.0206  15.4311  15.4317  15.5016  15.5136
    16.3015  16.3109  16.4772  16.4836  17.0634  17.0846

     occupation numbers 
     1.0000   1.0000   1.0000   1.0000   1.0000   1.0000   1.0000   1.0000
     1.0000   1.0000   1.0000   1.0000   1.0000   1.0000   1.0000   1.0000
     1.0000   1.0000   1.0000   1.0000   1.0000   1.0000   1.0000   1.0000
     1.0000   1.0000   1.0000   1.0000   1.0000   1.0000   1.0000   1.0000
     1.0000   1.0000   1.0000   1.0000   1.0000   1.0000   1.0000   1.0000
     1.0000   1.0000   1.0000   1.0000   1.0000   1.0000   1.0000   1.0000
     1.0000   1.0000   1.0000   1.0000   1.0000   1.0000   1.0000   1.0000
     1.0000   1.0000   1.0000   1.0000   1.0000   1.0000   1.0000   1.0000
     1.0000   1.0000   1.0000   1.0000   1.0000   1.0000   1.0001   1.0004
     1.0314   1.0343   0.0429  -0.0354  -0.0000  -0.0000  -0.0000  -0.0000
    -0.0000  -0.0000  -0.0000  -0.0000  -0.0000  -0.0000

          k = 0.1250 0.3750-0.5000 (  9656 PWs)   bands (ev):

   -56.4992 -56.4992 -56.4992 -56.4992 -56.4820 -56.4820 -56.4820 -56.4820
   -28.5791 -28.5791 -28.5754 -28.5754 -28.5368 -28.5368 -28.5340 -28.5340
   -27.6200 -27.6200 -27.5915 -27.5915 -27.5554 -27.5554 -27.5333 -27.5333
   -27.5224 -27.5224 -27.4957 -27.4957 -27.4467 -27.4467 -27.4332 -27.4332
     5.1733   5.1733   5.1748   5.1748   6.8552   6.8552   6.8597   6.8597
     9.9259   9.9259   9.9290   9.9290  11.2676  11.2676  11.2696  11.2696
    11.8654  11.8654  11.8729  11.8729  12.4201  12.4201  12.4278  12.4278
    13.2911  13.2911  13.2949  13.2949  13.6805  13.6805  13.6946  13.6946
    14.2858  14.2858  14.2924  14.2924  14.6327  14.6327  14.6451  14.6451
    14.9015  14.9015  14.9205  14.9205  15.4286  15.4286  15.4445  15.4445
    16.4456  16.4456  16.4533  16.4533  17.0926  17.0960

     occupation numbers 
     1.0000   1.0000   1.0000   1.0000   1.0000   1.0000   1.0000   1.0000
     1.0000   1.0000   1.0000   1.0000   1.0000   1.0000   1.0000   1.0000
     1.0000   1.0000   1.0000   1.0000   1.0000   1.0000   1.0000   1.0000
     1.0000   1.0000   1.0000   1.0000   1.0000   1.0000   1.0000   1.0000
     1.0000   1.0000   1.0000   1.0000   1.0000   1.0000   1.0000   1.0000
     1.0000   1.0000   1.0000   1.0000   1.0000   1.0000   1.0000   1.0000
     1.0000   1.0000   1.0000   1.0000   1.0000   1.0000   1.0000   1.0000
     1.0000   1.0000   1.0000   1.0000   1.0000   1.0000   1.0000   1.0000
     1.0000   1.0000   1.0000   1.0000   1.0000   1.0000   1.0000   1.0000
     1.0187   1.0187   0.9188   0.9188  -0.0000  -0.0000  -0.0000  -0.0000
    -0.0000  -0.0000  -0.0000  -0.0000  -0.0000  -0.0000

          k = 0.1250-0.5000-0.5000 (  9632 PWs)   bands (ev):

   -56.4986 -56.4986 -56.4985 -56.4985 -56.4827 -56.4827 -56.4827 -56.4827
   -28.5754 -28.5754 -28.5752 -28.5752 -28.5378 -28.5378 -28.5375 -28.5375
   -27.6090 -27.6090 -27.6035 -27.6035 -27.5516 -27.5516 -27.5346 -27.5346
   -27.5201 -27.5201 -27.5028 -27.5028 -27.4406 -27.4406 -27.4358 -27.4358
     5.4490   5.4490   5.4500   5.4500   6.4887   6.4887   6.4906   6.4906
    10.0927  10.0927  10.0963  10.0963  11.0427  11.0427  11.0444  11.0444
    11.9593  11.9593  11.9617  11.9617  12.3352  12.3352  12.3378  12.3378
    13.2734  13.2734  13.2742  13.2742  13.8458  13.8458  13.8592  13.8592
    14.3432  14.3432  14.3486  14.3486  14.6309  14.6309  14.6474  14.6474
    14.8012  14.8012  14.8032  14.8032  15.3828  15.3828  15.3831  15.3831
    16.5201  16.5201  16.5216  16.5216  16.9684  16.9700

     occupation numbers 
     1.0000   1.0000   1.0000   1.0000   1.0000   1.0000   1.0000   1.0000
     1.0000   1.0000   1.0000   1.0000   1.0000   1.0000   1.0000   1.0000
     1.0000   1.0000   1.0000   1.0000   1.0000   1.0000   1.0000   1.0000
     1.0000   1.0000   1.0000   1.0000   1.0000   1.0000   1.0000   1.0000
     1.0000   1.0000   1.0000   1.0000   1.0000   1.0000   1.0000   1.0000
     1.0000   1.0000   1.0000   1.0000   1.0000   1.0000   1.0000   1.0000
     1.0000   1.0000   1.0000   1.0000   1.0000   1.0000   1.0000   1.0000
     1.0000   1.0000   1.0000   1.0000   1.0000   1.0000   1.0000   1.0000
     1.0000   1.0000   1.0000   1.0000   1.0000   1.0000   1.0000   1.0000
     1.0003   1.0003   1.0003   1.0003  -0.0000  -0.0000  -0.0000  -0.0000
    -0.0000  -0.0000  -0.0000  -0.0000  -0.0000  -0.0000

          k = 0.2500 0.2500 0.2500 (  9651 PWs)   bands (ev):

   -56.5064 -56.5064 -56.4937 -56.4937 -56.4835 -56.4835 -56.4788 -56.4788
   -28.5890 -28.5843 -28.5724 -28.5724 -28.5513 -28.5478 -28.5152 -28.5142
   -27.6320 -27.6286 -27.5853 -27.5743 -27.5619 -27.5594 -27.5456 -27.5450
   -27.5128 -27.5118 -27.4760 -27.4748 -27.4632 -27.4605 -27.4346 -27.4324
     3.9446   3.9448   6.0545   6.0613   6.7952   6.8055   8.0513   8.0521
     9.0668   9.0695  10.0619  10.0655  11.1544  11.1587  11.1986  11.1990
    11.9198  11.9212  12.3548  12.3564  12.8102  12.8168  12.8815  12.8823
    13.1329  13.1395  13.1417  13.1523  13.1837  13.1886  13.7568  13.7656
    13.7728  13.7851  14.0636  14.0710  14.4490  14.4663  14.9856  15.0017
    15.1269  15.1304  15.2643  15.2650  15.3042  15.3102  15.6124  15.6316
    16.1812  16.1894  16.4812  16.4925  17.1246  17.1543

     occupation numbers 
     1.0000   1.0000   1.0000   1.0000   1.0000   1.0000   1.0000   1.0000
     1.0000   1.0000   1.0000   1.0000   1.0000   1.0000   1.0000   1.0000
     1.0000   1.0000   1.0000   1.0000   1.0000   1.0000   1.0000   1.0000
     1.0000   1.0000   1.0000   1.0000   1.0000   1.0000   1.0000   1.0000
     1.0000   1.0000   1.0000   1.0000   1.0000   1.0000   1.0000   1.0000
     1.0000   1.0000   1.0000   1.0000   1.0000   1.0000   1.0000   1.0000
     1.0000   1.0000   1.0000   1.0000   1.0000   1.0000   1.0000   1.0000
     1.0000   1.0000   1.0000   1.0000   1.0000   1.0000   1.0000   1.0000
     1.0000   1.0000   1.0000   1.0000   1.0000   1.0000   0.0808  -0.0104
    -0.0000  -0.0000  -0.0000  -0.0000  -0.0000  -0.0000  -0.0000  -0.0000
    -0.0000  -0.0000  -0.0000  -0.0000  -0.0000  -0.0000

          k = 0.2500 0.2500 0.3750 (  9650 PWs)   bands (ev):

   -56.5031 -56.5031 -56.4958 -56.4958 -56.4834 -56.4834 -56.4803 -56.4803
   -28.5850 -28.5811 -28.5738 -28.5724 -28.5458 -28.5432 -28.5248 -28.5234
   -27.6279 -27.6249 -27.5820 -27.5744 -27.5688 -27.5642 -27.5419 -27.5352
   -27.5228 -27.5133 -27.4804 -27.4712 -27.4659 -27.4574 -27.4345 -27.4319
     4.4229   4.4232   5.6842   5.6871   6.9127   6.9186   7.7717   7.7744
     8.9808   8.9846   9.7543   9.7582  11.0332  11.0362  11.5967  11.5995
    11.6770  11.6803  12.2574  12.2621  12.7410  12.7507  12.8764  12.8836
    13.1092  13.1211  13.2122  13.2235  13.2924  13.2964  13.6208  13.6286
    13.9366  13.9466  14.2611  14.2725  14.6148  14.6473  14.8439  14.8631
    15.0185  15.0288  15.1800  15.2063  15.3250  15.3400  15.5239  15.5408
    16.2209  16.2277  16.4117  16.4198  17.1186  17.1337

     occupation numbers 
     1.0000   1.0000   1.0000   1.0000   1.0000   1.0000   1.0000   1.0000
     1.0000   1.0000   1.0000   1.0000   1.0000   1.0000   1.0000   1.0000
     1.0000   1.0000   1.0000   1.0000   1.0000   1.0000   1.0000   1.0000
     1.0000   1.0000   1.0000   1.0000   1.0000   1.0000   1.0000   1.0000
     1.0000   1.0000   1.0000   1.0000   1.0000   1.0000   1.0000   1.0000
     1.0000   1.0000   1.0000   1.0000   1.0000   1.0000   1.0000   1.0000
     1.0000   1.0000   1.0000   1.0000   1.0000   1.0000   1.0000   1.0000
     1.0000   1.0000   1.0000   1.0000   1.0000   1.0000   1.0000   1.0000
     1.0000   1.0000   1.0000   1.0000   1.0000   1.0000   1.0078   1.0207
    -0.0354  -0.0321  -0.0000  -0.0000  -0.0000  -0.0000  -0.0000  -0.0000
    -0.0000  -0.0000  -0.0000  -0.0000  -0.0000  -0.0000

          k = 0.2500 0.2500-0.5000 (  9666 PWs)   bands (ev):

   -56.4992 -56.4992 -56.4992 -56.4992 -56.4820 -56.4820 -56.4820 -56.4820
   -28.5803 -28.5803 -28.5752 -28.5752 -28.5368 -28.5368 -28.5329 -28.5329
   -27.6245 -27.6245 -27.5781 -27.5781 -27.5688 -27.5688 -27.5344 -27.5344
   -27.5216 -27.5216 -27.4781 -27.4781 -27.4592 -27.4592 -27.4333 -27.4333
     5.0371   5.0371   5.0384   5.0384   7.3198   7.3198   7.3258   7.3258
     9.3110   9.3110   9.3152   9.3152  11.2764  11.2764  11.2788  11.2788
    11.9764  11.9764  11.9845  11.9845  12.8026  12.8026  12.8128  12.8128
    13.1732  13.1732  13.1859  13.1859  13.4377  13.4377  13.4449  13.4449
    14.1670  14.1670  14.1766  14.1766  14.7500  14.7500  14.7773  14.7773
    15.0541  15.0541  15.0730  15.0730  15.4303  15.4303  15.4466  15.4466
    16.3105  16.3106  16.3201  16.3201  17.2552  17.2564

     occupation numbers 
     1.0000   1.0000   1.0000   1.0000   1.0000   1.0000   1.0000   1.0000
     1.0000   1.0000   1.0000   1.0000   1.0000   1.0000   1.0000   1.0000
     1.0000   1.0000   1.0000   1.0000   1.0000   1.0000   1.0000   1.0000
     1.0000   1.0000   1.0000   1.0000   1.0000   1.0000   1.0000   1.0000
     1.0000   1.0000   1.0000   1.0000   1.0000   1.0000   1.0000   1.0000
     1.0000   1.0000   1.0000   1.0000   1.0000   1.0000   1.0000   1.0000
     1.0000   1.0000   1.0000   1.0000   1.0000   1.0000   1.0000   1.0000
     1.0000   1.0000   1.0000   1.0000   1.0000   1.0000   1.0000   1.0000
     1.0000   1.0000   1.0000   1.0000   1.0000   1.0000   1.0000   1.0000
    -0.0123  -0.0123  -0.0039  -0.0039  -0.0000  -0.0000  -0.0000  -0.0000
    -0.0000  -0.0000  -0.0000  -0.0000  -0.0000  -0.0000

          k = 0.2500 0.3750 0.3750 (  9650 PWs)   bands (ev):

   -56.5003 -56.5003 -56.4958 -56.4958 -56.4843 -56.4843 -56.4820 -56.4820
   -28.5802 -28.5770 -28.5713 -28.5705 -28.5459 -28.5439 -28.5326 -28.5311
   -27.6206 -27.6180 -27.5857 -27.5811 -27.5698 -27.5656 -27.5428 -27.5320
   -27.5254 -27.5107 -27.4846 -27.4760 -27.4592 -27.4542 -27.4363 -27.4334
     4.8701   4.8707   5.7971   5.8010   6.6826   6.6895   7.3950   7.3982
     8.9589   8.9633   9.5728   9.5782  10.6884  10.6922  11.2068  11.2086
    12.0019  12.0048  12.4198  12.4239  12.6319  12.6374  12.8192  12.8250
    13.1274  13.1357  13.1818  13.1903  13.3817  13.3912  13.5832  13.5951
    14.1406  14.1492  14.4964  14.5137  14.6828  14.7064  14.8363  14.8556
    14.9338  14.9377  15.1301  15.1624  15.2733  15.2852  15.4290  15.4425
    16.2765  16.2841  16.4041  16.4086  16.9724  16.9826

     occupation numbers 
     1.0000   1.0000   1.0000   1.0000   1.0000   1.0000   1.0000   1.0000
     1.0000   1.0000   1.0000   1.0000   1.0000   1.0000   1.0000   1.0000
     1.0000   1.0000   1.0000   1.0000   1.0000   1.0000   1.0000   1.0000
     1.0000   1.0000   1.0000   1.0000   1.0000   1.0000   1.0000   1.0000
     1.0000   1.0000   1.0000   1.0000   1.0000   1.0000   1.0000   1.0000
     1.0000   1.0000   1.0000   1.0000   1.0000   1.0000   1.0000   1.0000
     1.0000   1.0000   1.0000   1.0000   1.0000   1.0000   1.0000   1.0000
     1.0000   1.0000   1.0000   1.0000   1.0000   1.0000   1.0000   1.0000
     1.0000   1.0000   1.0000   1.0000   1.0000   1.0000   1.0049   1.0148
     0.7800   0.7279  -0.0000  -0.0000  -0.0000  -0.0000  -0.0000  -0.0000
    -0.0000  -0.0000  -0.0000  -0.0000  -0.0000  -0.0000

          k = 0.2500 0.3750-0.5000 (  9644 PWs)   bands (ev):

   -56.4975 -56.4975 -56.4975 -56.4975 -56.4837 -56.4837 -56.4837 -56.4837
   -28.5753 -28.5753 -28.5716 -28.5716 -28.5415 -28.5415 -28.5384 -28.5384
   -27.6151 -27.6151 -27.5880 -27.5880 -27.5669 -27.5669 -27.5392 -27.5392
   -27.5154 -27.5154 -27.4833 -27.4833 -27.4532 -27.4532 -27.4362 -27.4362
     5.4126   5.4126   5.4144   5.4144   6.9222   6.9222   6.9275   6.9275
     9.2725   9.2725   9.2777   9.2777  10.7880  10.7880  10.7906  10.7906
    12.2808  12.2808  12.2894  12.2894  12.6857  12.6857  12.6930  12.6930
    13.1712  13.1712  13.1790  13.1790  13.4755  13.4755  13.4885  13.4885
    14.4047  14.4047  14.4135  14.4135  14.7920  14.7920  14.8094  14.8094
    14.9882  14.9882  15.0101  15.0101  15.3467  15.3467  15.3572  15.3572
    16.3656  16.3656  16.3727  16.3727  16.9842  16.9878

     occupation numbers 
     1.0000   1.0000   1.0000   1.0000   1.0000   1.0000   1.0000   1.0000
     1.0000   1.0000   1.0000   1.0000   1.0000   1.0000   1.0000   1.0000
     1.0000   1.0000   1.0000   1.0000   1.0000   1.0000   1.0000   1.0000
     1.0000   1.0000   1.0000   1.0000   1.0000   1.0000   1.0000   1.0000
     1.0000   1.0000   1.0000   1.0000   1.0000   1.0000   1.0000   1.0000
     1.0000   1.0000   1.0000   1.0000   1.0000   1.0000   1.0000   1.0000
     1.0000   1.0000   1.0000   1.0000   1.0000   1.0000   1.0000   1.0000
     1.0000   1.0000   1.0000   1.0000   1.0000   1.0000   1.0000   1.0000
     1.0000   1.0000   1.0000   1.0000   1.0001   1.0001   1.0006   1.0006
     0.0604   0.0604  -0.0295  -0.0295  -0.0000  -0.0000  -0.0000  -0.0000
    -0.0000  -0.0000  -0.0000  -0.0000  -0.0000  -0.0000

          k = 0.2500-0.5000-0.5000 (  9644 PWs)   bands (ev):

   -56.4967 -56.4967 -56.4967 -56.4967 -56.4845 -56.4845 -56.4845 -56.4845
   -28.5715 -28.5715 -28.5711 -28.5711 -28.5427 -28.5427 -28.5422 -28.5422
   -27.6064 -27.6064 -27.5976 -27.5976 -27.5650 -27.5650 -27.5415 -27.5415
   -27.5114 -27.5114 -27.4879 -27.4879 -27.4477 -27.4477 -27.4396 -27.4396
     5.6737   5.6737   5.6759   5.6759   6.6213   6.6213   6.6255   6.6255
     9.3817   9.3817   9.3871   9.3871  10.5090  10.5090  10.5123  10.5123
    12.4775  12.4775  12.4807  12.4807  12.5634  12.5634  12.5655  12.5655
    13.1145  13.1145  13.1148  13.1148  13.5543  13.5543  13.5671  13.5671
    14.5066  14.5066  14.5153  14.5153  14.8357  14.8357  14.8504  14.8504
    14.9377  14.9377  14.9388  14.9388  15.3084  15.3084  15.3114  15.3114
    16.4145  16.4145  16.4152  16.4152  16.8609  16.8637

     occupation numbers 
     1.0000   1.0000   1.0000   1.0000   1.0000   1.0000   1.0000   1.0000
     1.0000   1.0000   1.0000   1.0000   1.0000   1.0000   1.0000   1.0000
     1.0000   1.0000   1.0000   1.0000   1.0000   1.0000   1.0000   1.0000
     1.0000   1.0000   1.0000   1.0000   1.0000   1.0000   1.0000   1.0000
     1.0000   1.0000   1.0000   1.0000   1.0000   1.0000   1.0000   1.0000
     1.0000   1.0000   1.0000   1.0000   1.0000   1.0000   1.0000   1.0000
     1.0000   1.0000   1.0000   1.0000   1.0000   1.0000   1.0000   1.0000
     1.0000   1.0000   1.0000   1.0000   1.0000   1.0000   1.0000   1.0000
     1.0000   1.0000   1.0000   1.0000   1.0047   1.0047   1.0113   1.0113
     0.7283   0.7283   0.7135   0.7135  -0.0000  -0.0000  -0.0000  -0.0000
    -0.0000  -0.0000  -0.0000  -0.0000  -0.0000  -0.0000

          k = 0.3750 0.3750 0.3750 (  9682 PWs)   bands (ev):

   -56.4977 -56.4977 -56.4946 -56.4946 -56.4860 -56.4860 -56.4841 -56.4841
   -28.5749 -28.5722 -28.5672 -28.5668 -28.5492 -28.5473 -28.5398 -28.5381
   -27.6133 -27.6107 -27.5847 -27.5792 -27.5778 -27.5760 -27.5459 -27.5401
   -27.5154 -27.5049 -27.4789 -27.4663 -27.4622 -27.4604 -27.4401 -27.4377
     5.2851   5.2859   6.0005   6.0067   6.6319   6.6418   7.1895   7.1930
     8.7559   8.7616   9.2623   9.2697  10.1955  10.2005  10.6462  10.6485
    12.3232  12.3263  12.5905  12.5948  12.7694  12.7728  12.8663  12.8681
    13.1088  13.1191  13.1688  13.1740  13.2701  13.2705  13.3945  13.3994
    14.3598  14.3625  14.7222  14.7438  14.7809  14.7899  14.9224  14.9572
    15.0673  15.0735  15.0959  15.1016  15.2535  15.2840  15.3062  15.3279
[...]
    11.8722  11.8722  11.8755  11.8755  12.3354  12.3354  12.3432  12.3432
    13.3006  13.3006  13.3061  13.3061  13.9485  13.9485  13.9552  13.9552
    14.0776  14.0776  14.0854  14.0854  14.6217  14.6217  14.6536  14.6536
    14.8214  14.8214  14.8616  14.8616  15.4442  15.4442  15.4633  15.4633
    16.4434  16.4434  16.4557  16.4557  17.1875  17.1879

     occupation numbers 
     1.0000   1.0000   1.0000   1.0000   1.0000   1.0000   1.0000   1.0000
     1.0000   1.0000   1.0000   1.0000   1.0000   1.0000   1.0000   1.0000
     1.0000   1.0000   1.0000   1.0000   1.0000   1.0000   1.0000   1.0000
     1.0000   1.0000   1.0000   1.0000   1.0000   1.0000   1.0000   1.0000
     1.0000   1.0000   1.0000   1.0000   1.0000   1.0000   1.0000   1.0000
     1.0000   1.0000   1.0000   1.0000   1.0000   1.0000   1.0000   1.0000
     1.0000   1.0000   1.0000   1.0000   1.0000   1.0000   1.0000   1.0000
     1.0000   1.0000   1.0000   1.0000   1.0000   1.0000   1.0000   1.0000
     1.0000   1.0000   1.0000   1.0000   1.0000   1.0000   1.0000   1.0000
     1.0016   1.0016   1.0194   1.0194  -0.0000  -0.0000  -0.0000  -0.0000
    -0.0000  -0.0000  -0.0000  -0.0000  -0.0000  -0.0000

          k =-0.1250 0.3750 0.2500 (  9647 PWs)   bands (ev):

   -56.5050 -56.5050 -56.4964 -56.4964 -56.4820 -56.4820 -56.4791 -56.4791
   -28.5882 -28.5840 -28.5773 -28.5757 -28.5435 -28.5408 -28.5191 -28.5180
   -27.6330 -27.6302 -27.5818 -27.5764 -27.5646 -27.5567 -27.5430 -27.5364
   -27.5216 -27.5096 -27.4837 -27.4781 -27.4639 -27.4523 -27.4345 -27.4325
     4.1382   4.1385   5.4907   5.4921   7.0414   7.0442   7.9715   7.9758
     9.4174   9.4200  10.2013  10.2027  10.9146  10.9162  11.5449  11.5485
    11.7462  11.7483  12.1887  12.1925  12.6583  12.6627  12.8597  12.8653
    13.0821  13.0867  13.2581  13.2699  13.4122  13.4153  13.6448  13.6561
    13.7943  13.8032  14.0768  14.0858  14.4881  14.5151  14.8190  14.8469
    15.0832  15.1023  15.1624  15.1802  15.4820  15.4942  15.6221  15.6407
    16.1948  16.2031  16.4161  16.4276  17.2535  17.2831

     occupation numbers 
     1.0000   1.0000   1.0000   1.0000   1.0000   1.0000   1.0000   1.0000
     1.0000   1.0000   1.0000   1.0000   1.0000   1.0000   1.0000   1.0000
     1.0000   1.0000   1.0000   1.0000   1.0000   1.0000   1.0000   1.0000
     1.0000   1.0000   1.0000   1.0000   1.0000   1.0000   1.0000   1.0000
     1.0000   1.0000   1.0000   1.0000   1.0000   1.0000   1.0000   1.0000
     1.0000   1.0000   1.0000   1.0000   1.0000   1.0000   1.0000   1.0000
     1.0000   1.0000   1.0000   1.0000   1.0000   1.0000   1.0000   1.0000
     1.0000   1.0000   1.0000   1.0000   1.0000   1.0000   1.0000   1.0000
     1.0000   1.0000   1.0000   1.0000   1.0000   1.0000   1.0014   1.0094
    -0.0019  -0.0004  -0.0000  -0.0000  -0.0000  -0.0000  -0.0000  -0.0000
    -0.0000  -0.0000  -0.0000  -0.0000  -0.0000  -0.0000

          k =-0.1250-0.5000 0.2500 (  9646 PWs)   bands (ev):

   -56.5006 -56.5006 -56.5006 -56.5006 -56.4806 -56.4806 -56.4806 -56.4806
   -28.5840 -28.5840 -28.5786 -28.5786 -28.5325 -28.5325 -28.5288 -28.5288
   -27.6307 -27.6307 -27.5781 -27.5781 -27.5628 -27.5628 -27.5341 -27.5341
   -27.5208 -27.5208 -27.4829 -27.4829 -27.4565 -27.4565 -27.4330 -27.4330
     4.7805   4.7805   4.7814   4.7814   7.4712   7.4712   7.4757   7.4757
     9.7731   9.7731   9.7741   9.7741  11.2719  11.2719  11.2770  11.2770
    11.9365  11.9365  11.9415  11.9415  12.7535  12.7535  12.7636  12.7636
    13.1573  13.1573  13.1660  13.1660  13.5586  13.5586  13.5669  13.5669
    13.9621  13.9621  13.9714  13.9714  14.6795  14.6795  14.7130  14.7130
    15.0771  15.0771  15.1021  15.1021  15.5295  15.5295  15.5514  15.5514
    16.2883  16.2884  16.2989  16.2989  17.4682  17.4775

     occupation numbers 
     1.0000   1.0000   1.0000   1.0000   1.0000   1.0000   1.0000   1.0000
     1.0000   1.0000   1.0000   1.0000   1.0000   1.0000   1.0000   1.0000
     1.0000   1.0000   1.0000   1.0000   1.0000   1.0000   1.0000   1.0000
     1.0000   1.0000   1.0000   1.0000   1.0000   1.0000   1.0000   1.0000
     1.0000   1.0000   1.0000   1.0000   1.0000   1.0000   1.0000   1.0000
     1.0000   1.0000   1.0000   1.0000   1.0000   1.0000   1.0000   1.0000
     1.0000   1.0000   1.0000   1.0000   1.0000   1.0000   1.0000   1.0000
     1.0000   1.0000   1.0000   1.0000   1.0000   1.0000   1.0000   1.0000
     1.0000   1.0000   1.0000   1.0000   1.0000   1.0000   1.0000   1.0000
    -0.0029  -0.0029  -0.0004  -0.0004  -0.0000  -0.0000  -0.0000  -0.0000
    -0.0000  -0.0000  -0.0000  -0.0000  -0.0000  -0.0000

          k =-0.1250-0.5000 0.3750 (  9656 PWs)   bands (ev):

   -56.4992 -56.4992 -56.4992 -56.4992 -56.4820 -56.4820 -56.4820 -56.4820
   -28.5791 -28.5791 -28.5754 -28.5754 -28.5369 -28.5369 -28.5339 -28.5339
   -27.6202 -27.6202 -27.5911 -27.5911 -27.5558 -27.5558 -27.5327 -27.5327
   -27.5231 -27.5231 -27.4955 -27.4955 -27.4466 -27.4466 -27.4333 -27.4333
     5.1731   5.1731   5.1741   5.1741   6.8572   6.8572   6.8600   6.8600
     9.9473   9.9473   9.9499   9.9499  11.1545  11.1545  11.1577  11.1577
    11.9545  11.9545  11.9599  11.9599  12.4571  12.4571  12.4664  12.4664
    13.2311  13.2311  13.2370  13.2370  13.7789  13.7789  13.7920  13.7920
    14.1900  14.1900  14.1984  14.1984  14.6774  14.6774  14.7042  14.7042
    14.8663  14.8663  14.9050  14.9050  15.4150  15.4150  15.4314  15.4314
    16.4121  16.4121  16.4233  16.4234  17.1479  17.1486

     occupation numbers 
     1.0000   1.0000   1.0000   1.0000   1.0000   1.0000   1.0000   1.0000
     1.0000   1.0000   1.0000   1.0000   1.0000   1.0000   1.0000   1.0000
     1.0000   1.0000   1.0000   1.0000   1.0000   1.0000   1.0000   1.0000
     1.0000   1.0000   1.0000   1.0000   1.0000   1.0000   1.0000   1.0000
     1.0000   1.0000   1.0000   1.0000   1.0000   1.0000   1.0000   1.0000
     1.0000   1.0000   1.0000   1.0000   1.0000   1.0000   1.0000   1.0000
     1.0000   1.0000   1.0000   1.0000   1.0000   1.0000   1.0000   1.0000
     1.0000   1.0000   1.0000   1.0000   1.0000   1.0000   1.0000   1.0000
     1.0000   1.0000   1.0000   1.0000   1.0000   1.0000   1.0000   1.0000
     1.0233   1.0233   1.0081   1.0081  -0.0000  -0.0000  -0.0000  -0.0000
    -0.0000  -0.0000  -0.0000  -0.0000  -0.0000  -0.0000

          k =-0.2500-0.5000 0.3750 (  9644 PWs)   bands (ev):

   -56.4975 -56.4975 -56.4975 -56.4975 -56.4837 -56.4837 -56.4837 -56.4837
   -28.5753 -28.5753 -28.5716 -28.5716 -28.5415 -28.5415 -28.5384 -28.5384
   -27.6152 -27.6152 -27.5878 -27.5878 -27.5671 -27.5671 -27.5391 -27.5391
   -27.5155 -27.5155 -27.4833 -27.4833 -27.4532 -27.4532 -27.4362 -27.4362
     5.4125   5.4125   5.4141   5.4141   6.9230   6.9230   6.9277   6.9277
     9.2750   9.2750   9.2798   9.2798  10.7782  10.7782  10.7809  10.7809
    12.2798  12.2798  12.2881  12.2881  12.7217  12.7217  12.7317  12.7317
    13.1089  13.1089  13.1179  13.1179  13.5270  13.5270  13.5387  13.5387
    14.3793  14.3793  14.3864  14.3864  14.7981  14.7981  14.8165  14.8165
    14.9943  14.9943  15.0260  15.0260  15.3323  15.3323  15.3465  15.3465
    16.3546  16.3546  16.3645  16.3645  17.0018  17.0024

     occupation numbers 
     1.0000   1.0000   1.0000   1.0000   1.0000   1.0000   1.0000   1.0000
     1.0000   1.0000   1.0000   1.0000   1.0000   1.0000   1.0000   1.0000
     1.0000   1.0000   1.0000   1.0000   1.0000   1.0000   1.0000   1.0000
     1.0000   1.0000   1.0000   1.0000   1.0000   1.0000   1.0000   1.0000
     1.0000   1.0000   1.0000   1.0000   1.0000   1.0000   1.0000   1.0000
     1.0000   1.0000   1.0000   1.0000   1.0000   1.0000   1.0000   1.0000
     1.0000   1.0000   1.0000   1.0000   1.0000   1.0000   1.0000   1.0000
     1.0000   1.0000   1.0000   1.0000   1.0000   1.0000   1.0000   1.0000
     1.0000   1.0000   1.0000   1.0000   1.0002   1.0002   1.0011   1.0011
     0.0213   0.0213  -0.0337  -0.0337  -0.0000  -0.0000  -0.0000  -0.0000
    -0.0000  -0.0000  -0.0000  -0.0000  -0.0000  -0.0000

     the Fermi energy is    14.9530 ev

!    total energy              =   -1180.35100474 Ry

     total all-electron energy =    -10727.811841 Ry
     estimated scf accuracy    <       0.00000033 Ry
     smearing contrib. (-TS)   =       0.00010657 Ry
     internal energy E=F+TS    =   -1180.35111131 Ry

     The total energy is F=E-TS. E is the sum of the following terms:
     one-electron contribution =    -336.79583277 Ry
     hartree contribution      =     207.03929417 Ry
     xc contribution           =    -114.36183553 Ry
     ewald contribution        =    -496.51183961 Ry
     one-center paw contrib.   =    -439.72089757 Ry
      -> PAW hartree energy AE =     126.71529192 Ry
      -> PAW hartree energy PS =    -125.74793080 Ry
      -> PAW xc energy AE      =     -96.23983116 Ry
      -> PAW xc energy PS      =      20.93244915 Ry
      -> total E_H with PAW    =     208.00665529 Ry
      -> total E_XC with PAW   =    -189.66921754 Ry

     convergence has been achieved in   9 iterations

     Forces acting on atoms (cartesian axes, Ry/au):

     atom    1 type  1   force =    -0.00262988   -0.00262988    0.00262988
     atom    2 type  1   force =    -0.00262988    0.00262988   -0.00262988
     atom    3 type  1   force =     0.00262988   -0.00262988   -0.00262988
     atom    4 type  1   force =     0.00262988    0.00262988    0.00262988
     atom    5 type  2   force =    -0.00434230   -0.00434230    0.00434230
     atom    6 type  2   force =    -0.00434230    0.00434230   -0.00434230
     atom    7 type  2   force =     0.00434230   -0.00434230   -0.00434230
     atom    8 type  2   force =     0.00434230    0.00434230    0.00434230
     The non-local contrib.  to forces
     atom    1 type  1   force =     0.05110554    0.05110554   -0.05110554
     atom    2 type  1   force =     0.05110554   -0.05110554    0.05110554
     atom    3 type  1   force =    -0.05110554    0.05110554    0.05110554
     atom    4 type  1   force =    -0.05110554   -0.05110554   -0.05110554
     atom    5 type  2   force =    -0.00794619   -0.00794619    0.00794619
     atom    6 type  2   force =    -0.00794619    0.00794619   -0.00794619
     atom    7 type  2   force =     0.00794619   -0.00794619   -0.00794619
     atom    8 type  2   force =     0.00794619    0.00794619    0.00794619
     The ionic contribution  to forces
     atom    1 type  1   force =    -0.85044630   -0.85044630    0.85044630
     atom    2 type  1   force =    -0.85044630    0.85044630   -0.85044630
     atom    3 type  1   force =     0.85044630   -0.85044630   -0.85044630
     atom    4 type  1   force =     0.85044630    0.85044630    0.85044630
     atom    5 type  2   force =    -0.24524978   -0.24524978    0.24524978
     atom    6 type  2   force =    -0.24524978    0.24524978   -0.24524978
     atom    7 type  2   force =     0.24524978   -0.24524978   -0.24524978
     atom    8 type  2   force =     0.24524978    0.24524978    0.24524978
     The local contribution  to forces
     atom    1 type  1   force =     0.79772270    0.79772270   -0.79772270
     atom    2 type  1   force =     0.79772270   -0.79772270    0.79772270
     atom    3 type  1   force =    -0.79772270    0.79772270    0.79772270
     atom    4 type  1   force =    -0.79772270   -0.79772270   -0.79772270
     atom    5 type  2   force =     0.24808380    0.24808380   -0.24808380
     atom    6 type  2   force =     0.24808380   -0.24808380    0.24808380
     atom    7 type  2   force =    -0.24808380    0.24808380    0.24808380
     atom    8 type  2   force =    -0.24808380   -0.24808380   -0.24808380
     The core correction contribution to forces
     atom    1 type  1   force =    -0.00102737   -0.00102737    0.00102737
     atom    2 type  1   force =    -0.00102737    0.00102737   -0.00102737
     atom    3 type  1   force =     0.00102737   -0.00102737   -0.00102737
     atom    4 type  1   force =     0.00102737    0.00102737    0.00102737
     atom    5 type  2   force =     0.00078198    0.00078198   -0.00078198
     atom    6 type  2   force =     0.00078198   -0.00078198    0.00078198
     atom    7 type  2   force =    -0.00078198    0.00078198    0.00078198
     atom    8 type  2   force =    -0.00078198   -0.00078198   -0.00078198
     The Hubbard contrib.    to forces
     atom    1 type  1   force =     0.00000000    0.00000000    0.00000000
     atom    2 type  1   force =     0.00000000    0.00000000    0.00000000
     atom    3 type  1   force =     0.00000000    0.00000000    0.00000000
     atom    4 type  1   force =     0.00000000    0.00000000    0.00000000
     atom    5 type  2   force =     0.00000000    0.00000000    0.00000000
     atom    6 type  2   force =     0.00000000    0.00000000    0.00000000
     atom    7 type  2   force =     0.00000000    0.00000000    0.00000000
     atom    8 type  2   force =     0.00000000    0.00000000    0.00000000
     The SCF correction term to forces
     atom    1 type  1   force =     0.00001554    0.00001554   -0.00001554
     atom    2 type  1   force =     0.00001554   -0.00001554    0.00001554
     atom    3 type  1   force =    -0.00001554    0.00001554    0.00001554
     atom    4 type  1   force =    -0.00001554   -0.00001554   -0.00001554
     atom    5 type  2   force =    -0.00001211   -0.00001211    0.00001211
     atom    6 type  2   force =    -0.00001211    0.00001211   -0.00001211
     atom    7 type  2   force =     0.00001211   -0.00001211   -0.00001211
     atom    8 type  2   force =     0.00001211    0.00001211    0.00001211

     Total force =     0.017586     Total SCF correction =     0.000068


     Computing stress (Cartesian axis) and pressure

          total   stress  (Ry/bohr**3)                   (kbar)     P=      -41.88
  -0.00028471   0.00000000   0.00000000          -41.88        0.00        0.00
   0.00000000  -0.00028471   0.00000000            0.00      -41.88        0.00
   0.00000000   0.00000000  -0.00028471            0.00        0.00      -41.88

     kinetic stress (kbar)  35759.94      0.00      0.00
                                0.00  35759.94      0.00
                                0.00      0.00  35759.94

     local   stress (kbar) -10012.43      0.00     -0.00
                                0.00 -10012.43     -0.00
                               -0.00     -0.00 -10012.43

     nonloc. stress (kbar)   2427.42      0.00      0.00
                                0.00   2427.42      0.00
                                0.00      0.00   2427.42

     hartree stress (kbar)  15167.05      0.00      0.00
                                0.00  15167.05     -0.00
                                0.00     -0.00  15167.05

     exc-cor stress (kbar)  -1706.59     -0.00     -0.00
                               -0.00  -1706.59     -0.00
                               -0.00     -0.00  -1706.59

     corecor stress (kbar)  -5304.37      0.00     -0.00
                                0.00  -5304.37     -0.00
                               -0.00     -0.00  -5304.37

     ewald   stress (kbar) -36372.90      0.00      0.00
                                0.00 -36372.90      0.00
                                0.00      0.00 -36372.90

     hubbard stress (kbar)      0.00      0.00      0.00
                                0.00      0.00      0.00
                                0.00      0.00      0.00

     DFT-D   stress (kbar)      0.00      0.00      0.00
                                0.00      0.00      0.00
                                0.00      0.00      0.00

     XDM     stress (kbar)      0.00      0.00      0.00
                                0.00      0.00      0.00
                                0.00      0.00      0.00

     dft-nl  stress (kbar)      0.00      0.00      0.00
                                0.00      0.00      0.00
                                0.00      0.00      0.00

     TS-vdW  stress (kbar)      0.00      0.00      0.00
                                0.00      0.00      0.00
                                0.00      0.00      0.00



     Writing output data file /zfs_data/vergnior/martin/Scratch/OAL/CrSi/convergence/smearing/8x8x8/0.004/tmp/CrSi.save/
 
     init_run     :     11.01s CPU     11.44s WALL (       1 calls)
     electrons    :    337.75s CPU    344.73s WALL (       1 calls)
     forces       :     10.48s CPU     10.60s WALL (       1 calls)
     stress       :     27.67s CPU     28.03s WALL (       1 calls)

     Called by init_run:
     wfcinit      :      9.48s CPU      9.72s WALL (       1 calls)
     wfcinit:atom :      0.07s CPU      0.07s WALL (      45 calls)
     wfcinit:wfcr :      9.10s CPU      9.33s WALL (      45 calls)
     potinit      :      0.25s CPU      0.33s WALL (       1 calls)
     hinit0       :      0.22s CPU      0.23s WALL (       1 calls)

     Called by electrons:
     c_bands      :    266.65s CPU    270.71s WALL (      10 calls)
     sum_band     :     63.28s CPU     65.26s WALL (      10 calls)
     v_of_rho     :      0.35s CPU      0.37s WALL (      10 calls)
     v_h          :      0.03s CPU      0.03s WALL (      10 calls)
     v_xc         :      0.38s CPU      0.40s WALL (      12 calls)
     newd         :      6.17s CPU      7.09s WALL (      10 calls)
     PAW_pot      :      1.68s CPU      1.72s WALL (      10 calls)
     mix_rho      :      0.24s CPU      0.24s WALL (      10 calls)

     Called by c_bands:
     init_us_2    :      1.40s CPU      1.43s WALL (    1035 calls)
     cegterg      :    244.98s CPU    248.89s WALL (     450 calls)

     Called by sum_band:
     sum_band:wei :      0.06s CPU      0.07s WALL (      10 calls)
     sum_band:loo :     58.34s CPU     59.23s WALL (      10 calls)
     sum_band:buf :      0.39s CPU      0.44s WALL (     450 calls)
     sum_band:ini :      0.65s CPU      0.66s WALL (     450 calls)
     sum_band:cal :      3.34s CPU      3.35s WALL (     450 calls)
     sum_band:bec :      6.96s CPU      6.99s WALL (     450 calls)
     addusdens    :      4.59s CPU      5.66s WALL (      10 calls)
     addusd:skk   :      0.01s CPU      0.01s WALL (      20 calls)
     addusd:dgemm :      1.75s CPU      2.79s WALL (      20 calls)
     addusd:qvan2 :      2.78s CPU      2.78s WALL (      20 calls)

     Called by *egterg:
     cdiaghg      :     18.52s CPU     18.62s WALL (    2273 calls)
     cegterg:over :     14.10s CPU     14.17s WALL (    1868 calls)
     cegterg:upda :      5.68s CPU      5.72s WALL (    1868 calls)
     cegterg:last :     11.27s CPU     11.34s WALL (    1190 calls)
     h_psi        :    175.50s CPU    179.26s WALL (    2363 calls)
     s_psi        :     21.98s CPU     22.07s WALL (    2363 calls)
     g_psi        :      0.38s CPU      0.38s WALL (    1868 calls)

     Called by h_psi:
     h_psi:calbec :     10.86s CPU     10.94s WALL (    2363 calls)
     vloc_psi     :    143.78s CPU    147.34s WALL (    2363 calls)
     add_vuspsi   :     19.90s CPU     20.02s WALL (    2363 calls)

     General routines
     calbec       :     15.87s CPU     15.99s WALL (    3038 calls)
     fft          :      0.42s CPU      0.43s WALL (     238 calls)
     ffts         :      0.04s CPU      0.10s WALL (      80 calls)
     fftw         :    114.92s CPU    117.48s WALL (  570432 calls)
     interpolate  :      0.10s CPU      0.16s WALL (      40 calls)
 
     Parallel routines
     fft_scatt_xy :     12.10s CPU     12.42s WALL (  570750 calls)
     fft_scatt_yz :     44.73s CPU     45.69s WALL (  570750 calls)

     PAW routines
     PAW_pot      :      1.68s CPU      1.72s WALL (      10 calls)
     PAW_symme    :      0.02s CPU      0.03s WALL (      20 calls)
 
     PWSCF        :   6m30.99s CPU   6m41.05s WALL

 
   This run was terminated on:  12:51: 7   1Aug2021            

=------------------------------------------------------------------------------=
   JOB DONE.
=------------------------------------------------------------------------------=
