
     Program PWSCF v.6.7MaX starts on 18May2022 at 15:54: 6 

     This program is part of the open-source Quantum ESPRESSO suite
     for quantum simulation of materials; please cite
         "P. Giannozzi et al., J. Phys.:Condens. Matter 21 395502 (2009);
         "P. Giannozzi et al., J. Phys.:Condens. Matter 29 465901 (2017);
          URL http://www.quantum-espresso.org", 
     in publications or presentations arising from this work. More details at
     http://www.quantum-espresso.org/quote

     Parallel version (MPI), running on    48 processors

     MPI processes distributed on     1 nodes
     R & G space division:  proc/nbgrp/npool/nimage =      48
     Waiting for input...
     Reading input from standard input

     Current dimensions of program PWSCF are:
     Max number of different atomic species (ntypx) = 10
     Max number of k-points (npk) =  40000
     Max angular momentum in pseudopotentials (lmaxx) =  3
     file O.pbe-nl-kjpaw_psl.1.0.0.UPF: wavefunction(s)  2S 2P renormalized
     file Cl.pbe-nl-kjpaw_psl.1.0.0.UPF: wavefunction(s)  3S renormalized
     file Nb.pbe-spn-kjpaw_psl.1.0.0.UPF: wavefunction(s)  4S 4P 4D renormalized

     Subspace diagonalization in iterative solution of the eigenvalue problem:
     a serial algorithm will be used

     Message from routine setup:
     using ibrav=0 with symmetry is DISCOURAGED, use correct ibrav instead
 
     Parallelization info
     --------------------
     sticks:   dense  smooth     PW     G-vecs:    dense   smooth      PW
     Min         131      52     17                 3567      901     174
     Max         132      53     18                 3570      904     176
     Sum        6335    2527    847               171331    43317    8415
 


     bravais-lattice index     =            0
     lattice parameter (alat)  =      12.6717  a.u.
     unit-cell volume          =     547.9313 (a.u.)^3
     number of atoms/cell      =            4
     number of atomic types    =            3
     number of electrons       =        33.00
     number of Kohn-Sham states=           21
     kinetic-energy cutoff     =      70.0000  Ry
     charge density cutoff     =     700.0000  Ry
     scf convergence threshold =      1.0E-10
     mixing beta               =       0.7000
     number of iterations used =            8  plain     mixing
     Exchange-correlation= SLA  PW   PBX  PBC
                           (   1   4   3   4   0   0   0)

     celldm(1)=  12.671676  celldm(2)=   0.000000  celldm(3)=   0.000000
     celldm(4)=   0.000000  celldm(5)=   0.000000  celldm(6)=   0.000000

     crystal axes: (cart. coord. in units of alat)
               a(1) = (  -0.250426   0.291161   0.923316 )  
               a(2) = (   0.250426  -0.291161   0.923316 )  
               a(3) = (   0.250426   0.291161  -0.923316 )  

     reciprocal axes: (cart. coord. in units 2 pi/alat)
               b(1) = (  0.000000  1.717261  0.541527 )  
               b(2) = (  1.996594  0.000000  0.541527 )  
               b(3) = (  1.996594  1.717261  0.000000 )  


     PseudoPot. # 1 for O  read from file:
     /zfs_data/gutierre/Scratch/Cl2NbO/convergence/cutoff/10x10x10/70/pseudo/O.pbe-nl-kjpaw_psl.1.0.0.UPF
     MD5 check sum: df3ddea38124b4e5de5e1084591730e4
     Pseudo is Projector augmented-wave + core cor, Zval =  6.0
     Generated using 'atomic' code by A. Dal Corso  v.6.7MaX
     Shape of augmentation charge: PSQ
     Using radial grid of 1095 points,  4 beta functions with: 
                l(1) =   0
                l(2) =   0
                l(3) =   1
                l(4) =   1
     Q(r) pseudized with 0 coefficients 


     PseudoPot. # 2 for Cl read from file:
     /zfs_data/gutierre/Scratch/Cl2NbO/convergence/cutoff/10x10x10/70/pseudo/Cl.pbe-nl-kjpaw_psl.1.0.0.UPF
     MD5 check sum: 8cf6bde52c08f6236e0f72a8870677af
     Pseudo is Projector augmented-wave + core cor, Zval =  7.0
     Generated using 'atomic' code by A. Dal Corso  v.6.7MaX
     Shape of augmentation charge: PSQ
     Using radial grid of 1157 points,  4 beta functions with: 
                l(1) =   0
                l(2) =   0
                l(3) =   1
                l(4) =   1
     Q(r) pseudized with 0 coefficients 


     PseudoPot. # 3 for Nb read from file:
     /zfs_data/gutierre/Scratch/Cl2NbO/convergence/cutoff/10x10x10/70/pseudo/Nb.pbe-spn-kjpaw_psl.1.0.0.UPF
     MD5 check sum: 1ec1a3aa7bf3cbf7f7e0d720422bce7a
     Pseudo is Projector augmented-wave + core cor, Zval = 13.0
     Generated using 'atomic' code by A. Dal Corso  v.6.7MaX
     Shape of augmentation charge: PSQ
     Using radial grid of 1227 points,  6 beta functions with: 
                l(1) =   0
                l(2) =   0
                l(3) =   1
                l(4) =   1
                l(5) =   2
                l(6) =   2
     Q(r) pseudized with 0 coefficients 


     atomic species   valence    mass     pseudopotential
        O              6.00    15.99940     O ( 1.00)
        Cl             7.00    35.45150     Cl( 1.00)
        Nb            13.00    92.90637     Nb( 1.00)

      8 Sym. Ops., with inversion, found


                                    s                        frac. trans.

      isym =  1     identity                                     

 cryst.   s( 1) = (     1          0          0      )
                  (     0          1          0      )
                  (     0          0          1      )

 cart.    s( 1) = (  1.0000000  0.0000000  0.0000000 )
                  (  0.0000000  1.0000000  0.0000000 )
                  (  0.0000000  0.0000000  1.0000000 )


      isym =  2     180 deg rotation - cart. axis [0,0,1]        

 cryst.   s( 2) = (     0          1          0      )
                  (     1          0          0      )
                  (    -1         -1         -1      )

 cart.    s( 2) = ( -1.0000000  0.0000000  0.0000000 )
                  (  0.0000000 -1.0000000  0.0000000 )
                  (  0.0000000  0.0000000  1.0000000 )


      isym =  3     180 deg rotation - cart. axis [0,1,0]        

 cryst.   s( 3) = (     0          0          1      )
                  (    -1         -1         -1      )
                  (     1          0          0      )

 cart.    s( 3) = ( -1.0000000  0.0000000  0.0000000 )
                  (  0.0000000  1.0000000  0.0000000 )
                  (  0.0000000  0.0000000 -1.0000000 )


      isym =  4     180 deg rotation - cart. axis [1,0,0]        

 cryst.   s( 4) = (    -1         -1         -1      )
                  (     0          0          1      )
                  (     0          1          0      )

 cart.    s( 4) = (  1.0000000  0.0000000  0.0000000 )
                  (  0.0000000 -1.0000000  0.0000000 )
                  (  0.0000000  0.0000000 -1.0000000 )


      isym =  5     inversion                                    

 cryst.   s( 5) = (    -1          0          0      )
                  (     0         -1          0      )
                  (     0          0         -1      )

 cart.    s( 5) = ( -1.0000000  0.0000000  0.0000000 )
                  (  0.0000000 -1.0000000  0.0000000 )
                  (  0.0000000  0.0000000 -1.0000000 )


      isym =  6     inv. 180 deg rotation - cart. axis [0,0,1]   

 cryst.   s( 6) = (     0         -1          0      )
                  (    -1          0          0      )
                  (     1          1          1      )

 cart.    s( 6) = (  1.0000000  0.0000000  0.0000000 )
                  (  0.0000000  1.0000000  0.0000000 )
                  (  0.0000000  0.0000000 -1.0000000 )


      isym =  7     inv. 180 deg rotation - cart. axis [0,1,0]   

 cryst.   s( 7) = (     0          0         -1      )
                  (     1          1          1      )
                  (    -1          0          0      )

 cart.    s( 7) = (  1.0000000  0.0000000  0.0000000 )
                  (  0.0000000 -1.0000000  0.0000000 )
                  (  0.0000000  0.0000000  1.0000000 )


      isym =  8     inv. 180 deg rotation - cart. axis [1,0,0]   

 cryst.   s( 8) = (     1          1          1      )
                  (     0          0         -1      )
                  (     0         -1          0      )

 cart.    s( 8) = ( -1.0000000  0.0000000  0.0000000 )
                  (  0.0000000  1.0000000  0.0000000 )
                  (  0.0000000  0.0000000  1.0000000 )


   Cartesian axes

     site n.     atom                  positions (alat units)
         1           O   tau(   1) = (   0.0000000   0.2911613   0.0000000  )
         2           Cl  tau(   2) = (  -0.0000000   0.2911613   0.6365338  )
         3           Cl  tau(   3) = (   0.2504264  -0.0000000   0.2867819  )
         4           Nb  tau(   4) = (   0.0000000   0.0000000   0.0000000  )

   Crystallographic axes

     site n.     atom                  positions (cryst. coord.)
         1           O   tau(   1) = (  0.5000000  0.0000000  0.5000000  )
         2           Cl  tau(   2) = (  0.8447000  0.3447000  0.5000000  )
         3           Cl  tau(   3) = (  0.1553000  0.6553000  0.5000000  )
         4           Nb  tau(   4) = (  0.0000000  0.0000000  0.0000000  )

     number of k points=   171  Methfessel-Paxton smearing, width (Ry)=  0.0120
                       cart. coord. in units 2pi/alat
        k(    1) = (   0.0000000   0.0000000   0.0000000), wk =   0.0020000
        k(    2) = (   0.1996594   0.1717261   0.0000000), wk =   0.0080000
        k(    3) = (   0.3993189   0.3434523   0.0000000), wk =   0.0080000
        k(    4) = (   0.5989783   0.5151784   0.0000000), wk =   0.0080000
        k(    5) = (   0.7986377   0.6869045   0.0000000), wk =   0.0080000
        k(    6) = (  -0.9982971  -0.8586307   0.0000000), wk =   0.0040000
        k(    7) = (   0.1996594   0.0000000   0.0541527), wk =   0.0080000
        k(    8) = (   0.3993189   0.1717261   0.0541527), wk =   0.0160000
        k(    9) = (   0.5989783   0.3434523   0.0541527), wk =   0.0160000
        k(   10) = (   0.7986377   0.5151784   0.0541527), wk =   0.0160000
        k(   11) = (   0.9982971   0.6869045   0.0541527), wk =   0.0160000
        k(   12) = (  -0.7986377  -0.8586307   0.0541527), wk =   0.0160000
        k(   13) = (  -0.5989783  -0.6869045   0.0541527), wk =   0.0160000
        k(   14) = (  -0.3993189  -0.5151784   0.0541527), wk =   0.0160000
        k(   15) = (  -0.1996594  -0.3434523   0.0541527), wk =   0.0160000
        k(   16) = (   0.0000000  -0.1717261   0.0541527), wk =   0.0080000
        k(   17) = (   0.3993189   0.0000000   0.1083053), wk =   0.0080000
        k(   18) = (   0.5989783   0.1717261   0.1083053), wk =   0.0160000
        k(   19) = (   0.7986377   0.3434523   0.1083053), wk =   0.0160000
        k(   20) = (   0.9982971   0.5151784   0.1083053), wk =   0.0160000
        k(   21) = (   1.1979566   0.6869045   0.1083053), wk =   0.0160000
        k(   22) = (  -0.5989783  -0.8586307   0.1083053), wk =   0.0160000
        k(   23) = (  -0.3993189  -0.6869045   0.1083053), wk =   0.0160000
        k(   24) = (  -0.1996594  -0.5151784   0.1083053), wk =   0.0160000
        k(   25) = (   0.0000000  -0.3434523   0.1083053), wk =   0.0080000
        k(   26) = (   0.1996594  -0.1717261   0.1083053), wk =   0.0160000
        k(   27) = (   0.5989783   0.0000000   0.1624580), wk =   0.0080000
        k(   28) = (   0.7986377   0.1717261   0.1624580), wk =   0.0160000
        k(   29) = (   0.9982971   0.3434523   0.1624580), wk =   0.0160000
        k(   30) = (   1.1979566   0.5151784   0.1624580), wk =   0.0160000
        k(   31) = (   1.3976160   0.6869045   0.1624580), wk =   0.0160000
        k(   32) = (  -0.3993189  -0.8586307   0.1624580), wk =   0.0160000
        k(   33) = (  -0.1996594  -0.6869045   0.1624580), wk =   0.0160000
        k(   34) = (  -0.0000000  -0.5151784   0.1624580), wk =   0.0080000
        k(   35) = (   0.1996594  -0.3434523   0.1624580), wk =   0.0160000
        k(   36) = (   0.3993189  -0.1717261   0.1624580), wk =   0.0160000
        k(   37) = (   0.7986377   0.0000000   0.2166107), wk =   0.0080000
        k(   38) = (   0.9982971   0.1717261   0.2166107), wk =   0.0160000
        k(   39) = (   1.1979566   0.3434523   0.2166107), wk =   0.0160000
        k(   40) = (   1.3976160   0.5151784   0.2166107), wk =   0.0160000
        k(   41) = (   1.5972754   0.6869045   0.2166107), wk =   0.0160000
        k(   42) = (  -0.1996594  -0.8586307   0.2166107), wk =   0.0160000
        k(   43) = (   0.0000000  -0.6869045   0.2166107), wk =   0.0080000
        k(   44) = (   0.1996594  -0.5151784   0.2166107), wk =   0.0160000
        k(   45) = (   0.3993189  -0.3434523   0.2166107), wk =   0.0160000
        k(   46) = (   0.5989783  -0.1717261   0.2166107), wk =   0.0160000
        k(   47) = (  -0.9982971   0.0000000  -0.2707633), wk =   0.0040000
        k(   48) = (  -0.7986377   0.1717261  -0.2707633), wk =   0.0160000
        k(   49) = (  -0.5989783   0.3434523  -0.2707633), wk =   0.0160000
        k(   50) = (  -0.3993189   0.5151784  -0.2707633), wk =   0.0160000
        k(   51) = (  -0.1996594   0.6869045  -0.2707633), wk =   0.0160000
        k(   52) = (  -1.9965943  -0.8586307  -0.2707633), wk =   0.0040000
        k(   53) = (   0.3993189   0.3434523   0.1083053), wk =   0.0160000
        k(   54) = (   0.5989783   0.5151784   0.1083053), wk =   0.0160000
        k(   55) = (   0.7986377   0.6869045   0.1083053), wk =   0.0160000
        k(   56) = (   0.9982971   0.8586307   0.1083053), wk =   0.0080000
        k(   57) = (   0.0000000   0.0000000   0.1083053), wk =   0.0040000
        k(   58) = (   0.5989783   0.3434523   0.1624580), wk =   0.0160000
        k(   59) = (   0.7986377   0.5151784   0.1624580), wk =   0.0160000
        k(   60) = (   0.9982971   0.6869045   0.1624580), wk =   0.0160000
        k(   61) = (   1.1979566   0.8586307   0.1624580), wk =   0.0160000
        k(   62) = (  -0.5989783  -0.6869045   0.1624580), wk =   0.0160000
        k(   63) = (  -0.3993189  -0.5151784   0.1624580), wk =   0.0160000
        k(   64) = (   0.0000000  -0.1717261   0.1624580), wk =   0.0080000
        k(   65) = (   0.1996594   0.0000000   0.1624580), wk =   0.0080000
        k(   66) = (   0.7986377   0.3434523   0.2166107), wk =   0.0160000
        k(   67) = (   0.9982971   0.5151784   0.2166107), wk =   0.0160000
        k(   68) = (   1.1979566   0.6869045   0.2166107), wk =   0.0160000
        k(   69) = (   1.3976160   0.8586307   0.2166107), wk =   0.0160000
        k(   70) = (  -0.3993189  -0.6869045   0.2166107), wk =   0.0160000
        k(   71) = (  -0.0000000  -0.3434523   0.2166107), wk =   0.0080000
        k(   72) = (   0.1996594  -0.1717261   0.2166107), wk =   0.0160000
        k(   73) = (   0.3993189   0.0000000   0.2166107), wk =   0.0080000
        k(   74) = (   0.9982971   0.3434523   0.2707633), wk =   0.0080000
        k(   75) = (   1.1979566   0.5151784   0.2707633), wk =   0.0160000
        k(   76) = (   1.3976160   0.6869045   0.2707633), wk =   0.0160000
        k(   77) = (   1.5972754   0.8586307   0.2707633), wk =   0.0080000
        k(   78) = (   0.0000000  -0.5151784   0.2707633), wk =   0.0080000
        k(   79) = (   0.1996594  -0.3434523   0.2707633), wk =   0.0160000
        k(   80) = (   0.3993189  -0.1717261   0.2707633), wk =   0.0160000
        k(   81) = (   0.5989783   0.0000000   0.2707633), wk =   0.0080000
        k(   82) = (  -0.5989783   0.5151784  -0.2166107), wk =   0.0160000
        k(   83) = (  -1.9965943  -0.6869045  -0.2166107), wk =   0.0080000
        k(   84) = (  -1.7969349  -0.5151784  -0.2166107), wk =   0.0160000
        k(   85) = (  -1.5972754  -0.3434523  -0.2166107), wk =   0.0160000
        k(   86) = (  -1.3976160  -0.1717261  -0.2166107), wk =   0.0160000
        k(   87) = (  -1.1979566   0.0000000  -0.2166107), wk =   0.0080000
        k(   88) = (   0.0000000   0.8586307  -0.1624580), wk =   0.0080000
        k(   89) = (  -1.7969349  -0.6869045  -0.1624580), wk =   0.0160000
        k(   90) = (  -1.5972754  -0.5151784  -0.1624580), wk =   0.0160000
        k(   91) = (  -1.3976160  -0.3434523  -0.1624580), wk =   0.0160000
        k(   92) = (  -1.1979566  -0.1717261  -0.1624580), wk =   0.0160000
        k(   93) = (  -0.9982971   0.0000000  -0.1624580), wk =   0.0080000
        k(   94) = (  -0.0000000   0.6869045  -0.1083053), wk =   0.0080000
        k(   95) = (   0.1996594   0.8586307  -0.1083053), wk =   0.0160000
        k(   96) = (  -1.5972754  -0.6869045  -0.1083053), wk =   0.0160000
        k(   97) = (  -1.3976160  -0.5151784  -0.1083053), wk =   0.0160000
        k(   98) = (  -1.1979566  -0.3434523  -0.1083053), wk =   0.0160000
        k(   99) = (  -0.9982971  -0.1717261  -0.1083053), wk =   0.0160000
        k(  100) = (  -0.7986377   0.0000000  -0.1083053), wk =   0.0080000
        k(  101) = (   0.0000000   0.5151784  -0.0541527), wk =   0.0080000
        k(  102) = (   0.1996594   0.6869045  -0.0541527), wk =   0.0160000
        k(  103) = (   0.3993189   0.8586307  -0.0541527), wk =   0.0160000
        k(  104) = (  -1.3976160  -0.6869045  -0.0541527), wk =   0.0160000
        k(  105) = (  -1.1979566  -0.5151784  -0.0541527), wk =   0.0160000
        k(  106) = (  -0.9982971  -0.3434523  -0.0541527), wk =   0.0160000
        k(  107) = (  -0.7986377  -0.1717261  -0.0541527), wk =   0.0160000
        k(  108) = (  -0.5989783   0.0000000  -0.0541527), wk =   0.0080000
        k(  109) = (   0.0000000   0.3434523   0.0000000), wk =   0.0040000
        k(  110) = (   0.1996594   0.5151784   0.0000000), wk =   0.0080000
        k(  111) = (   0.3993189   0.6869045   0.0000000), wk =   0.0080000
        k(  112) = (   0.5989783   0.8586307   0.0000000), wk =   0.0080000
        k(  113) = (  -1.1979566  -0.6869045   0.0000000), wk =   0.0080000
        k(  114) = (  -0.9982971  -0.5151784   0.0000000), wk =   0.0080000
        k(  115) = (  -0.7986377  -0.3434523   0.0000000), wk =   0.0080000
        k(  116) = (  -0.5989783  -0.1717261   0.0000000), wk =   0.0080000
        k(  117) = (  -0.3993189   0.0000000   0.0000000), wk =   0.0040000
        k(  118) = (   0.7986377   0.6869045   0.2166107), wk =   0.0160000
        k(  119) = (   0.9982971   0.8586307   0.2166107), wk =   0.0080000
        k(  120) = (   0.0000000   0.0000000   0.2166107), wk =   0.0040000
        k(  121) = (   0.9982971   0.6869045   0.2707633), wk =   0.0080000
        k(  122) = (   1.1979566   0.8586307   0.2707633), wk =   0.0080000
        k(  123) = (  -0.0000000  -0.1717261   0.2707633), wk =   0.0080000
        k(  124) = (   0.1996594   0.0000000   0.2707633), wk =   0.0080000
        k(  125) = (   0.0000000  -0.3434523   0.3249160), wk =   0.0080000
        k(  126) = (   0.1996594  -0.1717261   0.3249160), wk =   0.0160000
        k(  127) = (   0.3993189   0.0000000   0.3249160), wk =   0.0080000
        k(  128) = (  -1.9965943  -0.5151784  -0.1624580), wk =   0.0080000
        k(  129) = (  -1.7969349  -0.3434523  -0.1624580), wk =   0.0160000
        k(  130) = (  -1.5972754  -0.1717261  -0.1624580), wk =   0.0160000
        k(  131) = (  -1.3976160   0.0000000  -0.1624580), wk =   0.0080000
        k(  132) = (   0.0000000   1.0303568  -0.1083053), wk =   0.0080000
        k(  133) = (  -1.7969349  -0.5151784  -0.1083053), wk =   0.0160000
        k(  134) = (  -1.5972754  -0.3434523  -0.1083053), wk =   0.0160000
        k(  135) = (  -1.3976160  -0.1717261  -0.1083053), wk =   0.0160000
        k(  136) = (  -1.1979566   0.0000000  -0.1083053), wk =   0.0080000
        k(  137) = (  -0.0000000   0.8586307  -0.0541527), wk =   0.0080000
        k(  138) = (   0.1996594   1.0303568  -0.0541527), wk =   0.0160000
        k(  139) = (  -1.5972754  -0.5151784  -0.0541527), wk =   0.0160000
        k(  140) = (  -1.3976160  -0.3434523  -0.0541527), wk =   0.0160000
        k(  141) = (  -1.1979566  -0.1717261  -0.0541527), wk =   0.0160000
        k(  142) = (  -0.9982971   0.0000000  -0.0541527), wk =   0.0080000
        k(  143) = (   0.0000000   0.6869045   0.0000000), wk =   0.0040000
        k(  144) = (   0.1996594   0.8586307   0.0000000), wk =   0.0080000
        k(  145) = (   0.3993189   1.0303568   0.0000000), wk =   0.0080000
        k(  146) = (  -1.3976160  -0.5151784   0.0000000), wk =   0.0080000
        k(  147) = (  -1.1979566  -0.3434523   0.0000000), wk =   0.0080000
        k(  148) = (  -0.9982971  -0.1717261   0.0000000), wk =   0.0080000
        k(  149) = (  -0.7986377   0.0000000   0.0000000), wk =   0.0040000
        k(  150) = (  -0.0000000   0.0000000   0.3249160), wk =   0.0040000
        k(  151) = (   0.0000000  -0.1717261   0.3790686), wk =   0.0080000
        k(  152) = (   0.1996594   0.0000000   0.3790686), wk =   0.0080000
        k(  153) = (  -1.9965943  -0.3434523  -0.1083053), wk =   0.0080000
        k(  154) = (  -1.7969349  -0.1717261  -0.1083053), wk =   0.0160000
        k(  155) = (  -1.5972754   0.0000000  -0.1083053), wk =   0.0080000
        k(  156) = (   0.0000000   1.2020829  -0.0541527), wk =   0.0080000
        k(  157) = (  -1.7969349  -0.3434523  -0.0541527), wk =   0.0160000
        k(  158) = (  -1.5972754  -0.1717261  -0.0541527), wk =   0.0160000
        k(  159) = (  -1.3976160   0.0000000  -0.0541527), wk =   0.0080000
        k(  160) = (  -0.0000000   1.0303568  -0.0000000), wk =   0.0040000
        k(  161) = (   0.1996594   1.2020829  -0.0000000), wk =   0.0080000
        k(  162) = (  -1.5972754  -0.3434523  -0.0000000), wk =   0.0080000
        k(  163) = (  -1.3976160  -0.1717261  -0.0000000), wk =   0.0080000
        k(  164) = (  -1.1979566   0.0000000  -0.0000000), wk =   0.0040000
        k(  165) = (   0.0000000   0.0000000   0.4332213), wk =   0.0040000
        k(  166) = (  -1.9965943  -0.1717261  -0.0541527), wk =   0.0080000
        k(  167) = (  -1.7969349   0.0000000  -0.0541527), wk =   0.0080000
        k(  168) = (   0.0000000   1.3738091   0.0000000), wk =   0.0040000
        k(  169) = (  -1.7969349  -0.1717261   0.0000000), wk =   0.0080000
        k(  170) = (  -1.5972754   0.0000000   0.0000000), wk =   0.0040000
        k(  171) = (  -1.9965943  -1.7172613  -0.5415266), wk =   0.0020000

                       cryst. coord.
        k(    1) = (   0.0000000   0.0000000   0.0000000), wk =   0.0020000
        k(    2) = (  -0.0000000   0.0000000   0.1000000), wk =   0.0080000
        k(    3) = (  -0.0000000   0.0000000   0.2000000), wk =   0.0080000
        k(    4) = (   0.0000000   0.0000000   0.3000000), wk =   0.0080000
        k(    5) = (  -0.0000000   0.0000000   0.4000000), wk =   0.0080000
        k(    6) = (   0.0000000   0.0000000  -0.5000000), wk =   0.0040000
        k(    7) = (  -0.0000000   0.1000000   0.0000000), wk =   0.0080000
        k(    8) = (  -0.0000000   0.1000000   0.1000000), wk =   0.0160000
        k(    9) = (  -0.0000000   0.1000000   0.2000000), wk =   0.0160000
        k(   10) = (  -0.0000000   0.1000000   0.3000000), wk =   0.0160000
        k(   11) = (  -0.0000000   0.1000000   0.4000000), wk =   0.0160000
        k(   12) = (   0.0000000   0.1000000  -0.5000000), wk =   0.0160000
        k(   13) = (   0.0000000   0.1000000  -0.4000000), wk =   0.0160000
        k(   14) = (   0.0000000   0.1000000  -0.3000000), wk =   0.0160000
        k(   15) = (   0.0000000   0.1000000  -0.2000000), wk =   0.0160000
        k(   16) = (   0.0000000   0.1000000  -0.1000000), wk =   0.0080000
        k(   17) = (  -0.0000000   0.2000000   0.0000000), wk =   0.0080000
        k(   18) = (  -0.0000000   0.2000000   0.1000000), wk =   0.0160000
        k(   19) = (  -0.0000000   0.2000000   0.2000000), wk =   0.0160000
        k(   20) = (   0.0000000   0.2000000   0.3000000), wk =   0.0160000
        k(   21) = (  -0.0000000   0.2000000   0.4000000), wk =   0.0160000
        k(   22) = (   0.0000000   0.2000000  -0.5000000), wk =   0.0160000
        k(   23) = (   0.0000000   0.2000000  -0.4000000), wk =   0.0160000
        k(   24) = (   0.0000000   0.2000000  -0.3000000), wk =   0.0160000
        k(   25) = (   0.0000000   0.2000000  -0.2000000), wk =   0.0080000
        k(   26) = (   0.0000000   0.2000000  -0.1000000), wk =   0.0160000
        k(   27) = (   0.0000000   0.3000000   0.0000000), wk =   0.0080000
        k(   28) = (  -0.0000000   0.3000000   0.1000000), wk =   0.0160000
        k(   29) = (   0.0000000   0.3000000   0.2000000), wk =   0.0160000
        k(   30) = (   0.0000000   0.3000000   0.3000000), wk =   0.0160000
        k(   31) = (  -0.0000000   0.3000000   0.4000000), wk =   0.0160000
        k(   32) = (   0.0000000   0.3000000  -0.5000000), wk =   0.0160000
        k(   33) = (   0.0000000   0.3000000  -0.4000000), wk =   0.0160000
        k(   34) = (   0.0000000   0.3000000  -0.3000000), wk =   0.0080000
        k(   35) = (   0.0000000   0.3000000  -0.2000000), wk =   0.0160000
        k(   36) = (   0.0000000   0.3000000  -0.1000000), wk =   0.0160000
        k(   37) = (  -0.0000000   0.4000000   0.0000000), wk =   0.0080000
        k(   38) = (  -0.0000000   0.4000000   0.1000000), wk =   0.0160000
        k(   39) = (  -0.0000000   0.4000000   0.2000000), wk =   0.0160000
        k(   40) = (  -0.0000000   0.4000000   0.3000000), wk =   0.0160000
        k(   41) = (  -0.0000000   0.4000000   0.4000000), wk =   0.0160000
        k(   42) = (   0.0000000   0.4000000  -0.5000000), wk =   0.0160000
        k(   43) = (   0.0000000   0.4000000  -0.4000000), wk =   0.0080000
        k(   44) = (   0.0000000   0.4000000  -0.3000000), wk =   0.0160000
        k(   45) = (   0.0000000   0.4000000  -0.2000000), wk =   0.0160000
        k(   46) = (  -0.0000000   0.4000000  -0.1000000), wk =   0.0160000
        k(   47) = (   0.0000000  -0.5000000   0.0000000), wk =   0.0040000
        k(   48) = (   0.0000000  -0.5000000   0.1000000), wk =   0.0160000
        k(   49) = (   0.0000000  -0.5000000   0.2000000), wk =   0.0160000
        k(   50) = (   0.0000000  -0.5000000   0.3000000), wk =   0.0160000
        k(   51) = (   0.0000000  -0.5000000   0.4000000), wk =   0.0160000
        k(   52) = (   0.0000000  -0.5000000  -0.5000000), wk =   0.0040000
        k(   53) = (   0.1000000   0.1000000   0.1000000), wk =   0.0160000
        k(   54) = (   0.1000000   0.1000000   0.2000000), wk =   0.0160000
        k(   55) = (   0.1000000   0.1000000   0.3000000), wk =   0.0160000
        k(   56) = (   0.1000000   0.1000000   0.4000000), wk =   0.0080000
        k(   57) = (   0.1000000   0.1000000  -0.1000000), wk =   0.0040000
        k(   58) = (   0.1000000   0.2000000   0.1000000), wk =   0.0160000
        k(   59) = (   0.1000000   0.2000000   0.2000000), wk =   0.0160000
        k(   60) = (   0.1000000   0.2000000   0.3000000), wk =   0.0160000
        k(   61) = (   0.1000000   0.2000000   0.4000000), wk =   0.0160000
        k(   62) = (   0.1000000   0.2000000  -0.5000000), wk =   0.0160000
        k(   63) = (   0.1000000   0.2000000  -0.4000000), wk =   0.0160000
        k(   64) = (   0.1000000   0.2000000  -0.2000000), wk =   0.0080000
        k(   65) = (   0.1000000   0.2000000  -0.1000000), wk =   0.0080000
        k(   66) = (   0.1000000   0.3000000   0.1000000), wk =   0.0160000
        k(   67) = (   0.1000000   0.3000000   0.2000000), wk =   0.0160000
        k(   68) = (   0.1000000   0.3000000   0.3000000), wk =   0.0160000
        k(   69) = (   0.1000000   0.3000000   0.4000000), wk =   0.0160000
        k(   70) = (   0.1000000   0.3000000  -0.5000000), wk =   0.0160000
        k(   71) = (   0.1000000   0.3000000  -0.3000000), wk =   0.0080000
        k(   72) = (   0.1000000   0.3000000  -0.2000000), wk =   0.0160000
        k(   73) = (   0.1000000   0.3000000  -0.1000000), wk =   0.0080000
        k(   74) = (   0.1000000   0.4000000   0.1000000), wk =   0.0080000
        k(   75) = (   0.1000000   0.4000000   0.2000000), wk =   0.0160000
        k(   76) = (   0.1000000   0.4000000   0.3000000), wk =   0.0160000
        k(   77) = (   0.1000000   0.4000000   0.4000000), wk =   0.0080000
        k(   78) = (   0.1000000   0.4000000  -0.4000000), wk =   0.0080000
        k(   79) = (   0.1000000   0.4000000  -0.3000000), wk =   0.0160000
        k(   80) = (   0.1000000   0.4000000  -0.2000000), wk =   0.0160000
        k(   81) = (   0.1000000   0.4000000  -0.1000000), wk =   0.0080000
        k(   82) = (   0.1000000  -0.5000000   0.2000000), wk =   0.0160000
        k(   83) = (   0.1000000  -0.5000000  -0.5000000), wk =   0.0080000
        k(   84) = (   0.1000000  -0.5000000  -0.4000000), wk =   0.0160000
        k(   85) = (   0.1000000  -0.5000000  -0.3000000), wk =   0.0160000
        k(   86) = (   0.1000000  -0.5000000  -0.2000000), wk =   0.0160000
        k(   87) = (   0.1000000  -0.5000000  -0.1000000), wk =   0.0080000
        k(   88) = (   0.1000000  -0.4000000   0.4000000), wk =   0.0080000
        k(   89) = (   0.1000000  -0.4000000  -0.5000000), wk =   0.0160000
        k(   90) = (   0.1000000  -0.4000000  -0.4000000), wk =   0.0160000
        k(   91) = (   0.1000000  -0.4000000  -0.3000000), wk =   0.0160000
        k(   92) = (   0.1000000  -0.4000000  -0.2000000), wk =   0.0160000
        k(   93) = (   0.1000000  -0.4000000  -0.1000000), wk =   0.0080000
        k(   94) = (   0.1000000  -0.3000000   0.3000000), wk =   0.0080000
        k(   95) = (   0.1000000  -0.3000000   0.4000000), wk =   0.0160000
        k(   96) = (   0.1000000  -0.3000000  -0.5000000), wk =   0.0160000
        k(   97) = (   0.1000000  -0.3000000  -0.4000000), wk =   0.0160000
        k(   98) = (   0.1000000  -0.3000000  -0.3000000), wk =   0.0160000
        k(   99) = (   0.1000000  -0.3000000  -0.2000000), wk =   0.0160000
        k(  100) = (   0.1000000  -0.3000000  -0.1000000), wk =   0.0080000
        k(  101) = (   0.1000000  -0.2000000   0.2000000), wk =   0.0080000
        k(  102) = (   0.1000000  -0.2000000   0.3000000), wk =   0.0160000
        k(  103) = (   0.1000000  -0.2000000   0.4000000), wk =   0.0160000
        k(  104) = (   0.1000000  -0.2000000  -0.5000000), wk =   0.0160000
        k(  105) = (   0.1000000  -0.2000000  -0.4000000), wk =   0.0160000
        k(  106) = (   0.1000000  -0.2000000  -0.3000000), wk =   0.0160000
        k(  107) = (   0.1000000  -0.2000000  -0.2000000), wk =   0.0160000
        k(  108) = (   0.1000000  -0.2000000  -0.1000000), wk =   0.0080000
        k(  109) = (   0.1000000  -0.1000000   0.1000000), wk =   0.0040000
        k(  110) = (   0.1000000  -0.1000000   0.2000000), wk =   0.0080000
        k(  111) = (   0.1000000  -0.1000000   0.3000000), wk =   0.0080000
        k(  112) = (   0.1000000  -0.1000000   0.4000000), wk =   0.0080000
        k(  113) = (   0.1000000  -0.1000000  -0.5000000), wk =   0.0080000
        k(  114) = (   0.1000000  -0.1000000  -0.4000000), wk =   0.0080000
        k(  115) = (   0.1000000  -0.1000000  -0.3000000), wk =   0.0080000
        k(  116) = (   0.1000000  -0.1000000  -0.2000000), wk =   0.0080000
        k(  117) = (   0.1000000  -0.1000000  -0.1000000), wk =   0.0040000
        k(  118) = (   0.2000000   0.2000000   0.2000000), wk =   0.0160000
        k(  119) = (   0.2000000   0.2000000   0.3000000), wk =   0.0080000
        k(  120) = (   0.2000000   0.2000000  -0.2000000), wk =   0.0040000
        k(  121) = (   0.2000000   0.3000000   0.2000000), wk =   0.0080000
        k(  122) = (   0.2000000   0.3000000   0.3000000), wk =   0.0080000
        k(  123) = (   0.2000000   0.3000000  -0.3000000), wk =   0.0080000
        k(  124) = (   0.2000000   0.3000000  -0.2000000), wk =   0.0080000
        k(  125) = (   0.2000000   0.4000000  -0.4000000), wk =   0.0080000
        k(  126) = (   0.2000000   0.4000000  -0.3000000), wk =   0.0160000
        k(  127) = (   0.2000000   0.4000000  -0.2000000), wk =   0.0080000
        k(  128) = (   0.2000000  -0.5000000  -0.5000000), wk =   0.0080000
        k(  129) = (   0.2000000  -0.5000000  -0.4000000), wk =   0.0160000
        k(  130) = (   0.2000000  -0.5000000  -0.3000000), wk =   0.0160000
        k(  131) = (   0.2000000  -0.5000000  -0.2000000), wk =   0.0080000
        k(  132) = (   0.2000000  -0.4000000   0.4000000), wk =   0.0080000
        k(  133) = (   0.2000000  -0.4000000  -0.5000000), wk =   0.0160000
        k(  134) = (   0.2000000  -0.4000000  -0.4000000), wk =   0.0160000
        k(  135) = (   0.2000000  -0.4000000  -0.3000000), wk =   0.0160000
        k(  136) = (   0.2000000  -0.4000000  -0.2000000), wk =   0.0080000
        k(  137) = (   0.2000000  -0.3000000   0.3000000), wk =   0.0080000
        k(  138) = (   0.2000000  -0.3000000   0.4000000), wk =   0.0160000
        k(  139) = (   0.2000000  -0.3000000  -0.5000000), wk =   0.0160000
        k(  140) = (   0.2000000  -0.3000000  -0.4000000), wk =   0.0160000
        k(  141) = (   0.2000000  -0.3000000  -0.3000000), wk =   0.0160000
        k(  142) = (   0.2000000  -0.3000000  -0.2000000), wk =   0.0080000
        k(  143) = (   0.2000000  -0.2000000   0.2000000), wk =   0.0040000
        k(  144) = (   0.2000000  -0.2000000   0.3000000), wk =   0.0080000
        k(  145) = (   0.2000000  -0.2000000   0.4000000), wk =   0.0080000
        k(  146) = (   0.2000000  -0.2000000  -0.5000000), wk =   0.0080000
        k(  147) = (   0.2000000  -0.2000000  -0.4000000), wk =   0.0080000
        k(  148) = (   0.2000000  -0.2000000  -0.3000000), wk =   0.0080000
        k(  149) = (   0.2000000  -0.2000000  -0.2000000), wk =   0.0040000
        k(  150) = (   0.3000000   0.3000000  -0.3000000), wk =   0.0040000
        k(  151) = (   0.3000000   0.4000000  -0.4000000), wk =   0.0080000
        k(  152) = (   0.3000000   0.4000000  -0.3000000), wk =   0.0080000
        k(  153) = (   0.3000000  -0.5000000  -0.5000000), wk =   0.0080000
        k(  154) = (   0.3000000  -0.5000000  -0.4000000), wk =   0.0160000
        k(  155) = (   0.3000000  -0.5000000  -0.3000000), wk =   0.0080000
        k(  156) = (   0.3000000  -0.4000000   0.4000000), wk =   0.0080000
        k(  157) = (   0.3000000  -0.4000000  -0.5000000), wk =   0.0160000
        k(  158) = (   0.3000000  -0.4000000  -0.4000000), wk =   0.0160000
        k(  159) = (   0.3000000  -0.4000000  -0.3000000), wk =   0.0080000
        k(  160) = (   0.3000000  -0.3000000   0.3000000), wk =   0.0040000
        k(  161) = (   0.3000000  -0.3000000   0.4000000), wk =   0.0080000
        k(  162) = (   0.3000000  -0.3000000  -0.5000000), wk =   0.0080000
        k(  163) = (   0.3000000  -0.3000000  -0.4000000), wk =   0.0080000
        k(  164) = (   0.3000000  -0.3000000  -0.3000000), wk =   0.0040000
        k(  165) = (   0.4000000   0.4000000  -0.4000000), wk =   0.0040000
        k(  166) = (   0.4000000  -0.5000000  -0.5000000), wk =   0.0080000
        k(  167) = (   0.4000000  -0.5000000  -0.4000000), wk =   0.0080000
        k(  168) = (   0.4000000  -0.4000000   0.4000000), wk =   0.0040000
        k(  169) = (   0.4000000  -0.4000000  -0.5000000), wk =   0.0080000
        k(  170) = (   0.4000000  -0.4000000  -0.4000000), wk =   0.0040000
        k(  171) = (  -0.5000000  -0.5000000  -0.5000000), wk =   0.0020000

     Dense  grid:   171331 G-vectors     FFT dimensions: ( 108, 108, 108)

     Smooth grid:    43317 G-vectors     FFT dimensions: (  72,  72,  72)

     Dynamical RAM for                 wfc:       0.04 MB

     Dynamical RAM for     wfc (w. buffer):       6.17 MB

     Dynamical RAM for           str. fact:       0.16 MB

     Dynamical RAM for           local pot:       0.00 MB

     Dynamical RAM for          nlocal pot:       0.07 MB

     Dynamical RAM for                qrad:       6.37 MB

     Dynamical RAM for          rho,v,vnew:       0.96 MB

     Dynamical RAM for               rhoin:       0.32 MB

     Dynamical RAM for            rho*nmix:       0.87 MB

     Dynamical RAM for           G-vectors:       0.21 MB

     Dynamical RAM for          h,s,v(r/c):       0.08 MB

     Dynamical RAM for          <psi|beta>:       0.01 MB

     Dynamical RAM for                 psi:       0.07 MB

     Dynamical RAM for                hpsi:       0.07 MB

     Dynamical RAM for                spsi:       0.07 MB

     Dynamical RAM for      wfcinit/wfcrot:       0.10 MB

     Dynamical RAM for           addusdens:      10.24 MB

     Dynamical RAM for          addusforce:      10.39 MB

     Dynamical RAM for         addusstress:      10.95 MB

     Estimated static dynamical RAM per process >      16.70 MB

     Estimated max dynamical RAM per process >      27.64 MB

     Estimated total dynamical RAM >       1.30 GB

     Initial potential from superposition of free atoms

     starting charge   32.99867, renormalised to   33.00000
     Starting wfcs are   25 randomized atomic wfcs
     Checking if some PAW data can be deallocated... 
       PAW data deallocated on   36 nodes for type:  1
       PAW data deallocated on   24 nodes for type:  2
       PAW data deallocated on   36 nodes for type:  3

     total cpu time spent up to now is        2.9 secs

     Self-consistent Calculation

     iteration #  1     ecut=    70.00 Ry     beta= 0.70
     Davidson diagonalization with overlap
     ethr =  1.00E-02,  avg # of iterations =  2.2

     total cpu time spent up to now is        7.9 secs

     total energy              =    -534.52902085 Ry
     estimated scf accuracy    <       0.75991264 Ry

     iteration #  2     ecut=    70.00 Ry     beta= 0.70
     Davidson diagonalization with overlap
     ethr =  2.30E-03,  avg # of iterations =  3.6

     total cpu time spent up to now is       13.9 secs

     total energy              =    -533.59175130 Ry
     estimated scf accuracy    <       8.53812086 Ry

     iteration #  3     ecut=    70.00 Ry     beta= 0.70
     Davidson diagonalization with overlap
     ethr =  2.30E-03,  avg # of iterations =  3.4

     total cpu time spent up to now is       19.5 secs

     total energy              =    -534.97398253 Ry
     estimated scf accuracy    <       0.12685967 Ry

     iteration #  4     ecut=    70.00 Ry     beta= 0.70
     Davidson diagonalization with overlap
     ethr =  3.84E-04,  avg # of iterations =  1.3

     total cpu time spent up to now is       24.0 secs

     total energy              =    -534.96644652 Ry
     estimated scf accuracy    <       0.06122974 Ry

     iteration #  5     ecut=    70.00 Ry     beta= 0.70
     Davidson diagonalization with overlap
     ethr =  1.86E-04,  avg # of iterations =  1.5

     total cpu time spent up to now is       28.5 secs

     total energy              =    -534.96316637 Ry
     estimated scf accuracy    <       0.02337950 Ry

     iteration #  6     ecut=    70.00 Ry     beta= 0.70
     Davidson diagonalization with overlap
     ethr =  7.08E-05,  avg # of iterations =  2.0

     total cpu time spent up to now is       33.1 secs

     total energy              =    -534.96556377 Ry
     estimated scf accuracy    <       0.00080369 Ry

     iteration #  7     ecut=    70.00 Ry     beta= 0.70
     Davidson diagonalization with overlap
     ethr =  2.44E-06,  avg # of iterations =  3.2

     total cpu time spent up to now is       38.9 secs

     total energy              =    -534.96580167 Ry
     estimated scf accuracy    <       0.00014787 Ry

     iteration #  8     ecut=    70.00 Ry     beta= 0.70
     Davidson diagonalization with overlap
     ethr =  4.48E-07,  avg # of iterations =  1.5

     total cpu time spent up to now is       43.4 secs

     total energy              =    -534.96579693 Ry
     estimated scf accuracy    <       0.00003678 Ry

     iteration #  9     ecut=    70.00 Ry     beta= 0.70
     Davidson diagonalization with overlap
     ethr =  1.11E-07,  avg # of iterations =  2.0

     total cpu time spent up to now is       48.3 secs

     total energy              =    -534.96580523 Ry
     estimated scf accuracy    <       0.00000110 Ry

     iteration # 10     ecut=    70.00 Ry     beta= 0.70
     Davidson diagonalization with overlap
     ethr =  3.35E-09,  avg # of iterations =  3.3

     total cpu time spent up to now is       53.9 secs

     total energy              =    -534.96580557 Ry
     estimated scf accuracy    <       0.00000001 Ry

     iteration # 11     ecut=    70.00 Ry     beta= 0.70
     Davidson diagonalization with overlap
     ethr =  4.02E-11,  avg # of iterations =  4.9

     total cpu time spent up to now is       61.4 secs

     total energy              =    -534.96580558 Ry
     estimated scf accuracy    <       0.00000002 Ry

     iteration # 12     ecut=    70.00 Ry     beta= 0.70
     Davidson diagonalization with overlap
     ethr =  4.02E-11,  avg # of iterations =  2.5

     total cpu time spent up to now is       66.4 secs

     total energy              =    -534.96580559 Ry
     estimated scf accuracy    <          5.5E-10 Ry

     iteration # 13     ecut=    70.00 Ry     beta= 0.70
     Davidson diagonalization with overlap
     ethr =  1.67E-12,  avg # of iterations =  2.1

     total cpu time spent up to now is       71.3 secs

     End of self-consistent calculation

          k = 0.0000 0.0000 0.0000 (  5399 PWs)   bands (ev):

   -49.8703 -26.1485 -25.7923 -25.7118 -12.4405  -9.4961  -8.8060   0.6416
     2.4918   2.7194   2.8782   2.9565   3.4302   3.9408   4.1891   4.2876
     5.5270   7.1789   7.3233   8.6715   9.3624

     occupation numbers 
     1.0000   1.0000   1.0000   1.0000   1.0000   1.0000   1.0000   1.0000
     1.0000   1.0000   1.0000   1.0000   1.0000   1.0000   1.0000   1.0000
     1.0000  -0.0000  -0.0000  -0.0000  -0.0000

          k = 0.1997 0.1717 0.0000 (  5409 PWs)   bands (ev):

   -49.8686 -26.1649 -25.7880 -25.7320 -12.3140  -9.4255  -8.8108   0.7781
     2.2260   2.3508   2.5849   3.1335   3.2696   3.7439   3.8830   4.0607
     5.8261   7.3899   7.4800   8.7310   9.8420

     occupation numbers 
     1.0000   1.0000   1.0000   1.0000   1.0000   1.0000   1.0000   1.0000
     1.0000   1.0000   1.0000   1.0000   1.0000   1.0000   1.0000   1.0000
     1.0000  -0.0000  -0.0000  -0.0000  -0.0000

          k = 0.3993 0.3435 0.0000 (  5398 PWs)   bands (ev):

   -49.8641 -26.2068 -25.7844 -25.7768 -11.9701  -9.2337  -8.8252   1.1443
     1.6406   1.8232   2.0558   2.3860   2.7101   3.1670   3.8720   4.0001
     6.4489   7.8525   7.9276   8.9934  10.7722

     occupation numbers 
     1.0000   1.0000   1.0000   1.0000   1.0000   1.0000   1.0000   1.0000
     1.0000   1.0000   1.0000   1.0000   1.0000   1.0000   1.0000   1.0000
     1.0336  -0.0000  -0.0000  -0.0000  -0.0000

          k = 0.5990 0.5152 0.0000 (  5404 PWs)   bands (ev):

   -49.8586 -26.2570 -25.8481 -25.7629 -11.5140  -8.9800  -8.8465   0.5266
     1.4155   1.6638   1.7288   1.8197   1.8797   2.6935   3.7392   4.0088
     7.2487   8.4190   8.5704   9.3680  11.3276

     occupation numbers 
     1.0000   1.0000   1.0000   1.0000   1.0000   1.0000   1.0000   1.0000
     1.0000   1.0000   1.0000   1.0000   1.0000   1.0000   1.0000   1.0000
    -0.0000  -0.0000  -0.0000  -0.0000  -0.0000

          k = 0.7986 0.6869 0.0000 (  5396 PWs)   bands (ev):

   -49.8541 -26.2963 -25.8989 -25.7518 -11.1128  -8.8665  -8.7577  -0.3130
     0.8194   1.1723   1.6809   1.7853   2.2221   2.3354   3.4485   3.9492
     8.0783   8.9294   9.1356   9.6582  11.3705

     occupation numbers 
     1.0000   1.0000   1.0000   1.0000   1.0000   1.0000   1.0000   1.0000
     1.0000   1.0000   1.0000   1.0000   1.0000   1.0000   1.0000   1.0000
    -0.0000  -0.0000  -0.0000  -0.0000  -0.0000

          k =-0.9983-0.8586 0.0000 (  5392 PWs)   bands (ev):

   -49.8524 -26.3111 -25.9181 -25.7475 -10.9500  -8.8748  -8.6678  -0.6321
     0.5800   0.9706   1.7535   1.8545   1.9619   2.6015   3.2784   3.8761
     8.4849   9.1493   9.3395   9.7846  11.4008

     occupation numbers 
     1.0000   1.0000   1.0000   1.0000   1.0000   1.0000   1.0000   1.0000
     1.0000   1.0000   1.0000   1.0000   1.0000   1.0000   1.0000   1.0000
    -0.0000  -0.0000  -0.0000  -0.0000  -0.0000

          k = 0.1997 0.0000 0.0542 (  5404 PWs)   bands (ev):

   -49.8689 -26.1469 -25.7887 -25.7326 -12.4293  -9.4380  -8.8145   0.7657
     2.3424   2.6812   2.9198   3.0010   3.2278   3.8732   3.9721   4.1353
     5.8143   7.1209   7.2849   8.7201   9.6246

     occupation numbers 
     1.0000   1.0000   1.0000   1.0000   1.0000   1.0000   1.0000   1.0000
     1.0000   1.0000   1.0000   1.0000   1.0000   1.0000   1.0000   1.0000
     1.0000  -0.0003  -0.0000  -0.0000  -0.0000

          k = 0.3993 0.1717 0.0542 (  5408 PWs)   bands (ev):

   -49.8650 -26.1605 -25.7860 -25.7785 -12.2851  -9.2734  -8.8268   1.0787
     2.0481   2.2937   2.5386   2.6170   3.1363   3.2165   3.8522   4.0526
     6.4167   7.2376   7.3649   8.9795  10.2784

     occupation numbers 
     1.0000   1.0000   1.0000   1.0000   1.0000   1.0000   1.0000   1.0000
     1.0000   1.0000   1.0000   1.0000   1.0000   1.0000   1.0000   1.0000
     1.0257  -0.0000  -0.0000  -0.0000  -0.0000

          k = 0.5990 0.3435 0.0542 (  5404 PWs)   bands (ev):

   -49.8596 -26.2012 -25.8503 -25.7650 -11.9353  -9.0331  -8.8459   1.4009
     1.5910   1.7923   1.9292   2.0010   2.2204   2.8035   3.8404   4.1036
     7.1756   7.7050   7.8173   9.4081  10.9621

     occupation numbers 
     1.0000   1.0000   1.0000   1.0000   1.0000   1.0000   1.0000   1.0000
     1.0000   1.0000   1.0000   1.0000   1.0000   1.0000   1.0000   1.0000
    -0.0001  -0.0000  -0.0000  -0.0000  -0.0000

          k = 0.7986 0.5152 0.0542 (  5404 PWs)   bands (ev):

   -49.8550 -26.2522 -25.9007 -25.7534 -11.4869  -8.8732  -8.7952   0.5479
     1.1226   1.1348   1.7022   1.8742   2.3337   2.3616   3.5920   4.0706
     7.9840   8.3409   8.5081   9.7210  11.2366

     occupation numbers 
     1.0000   1.0000   1.0000   1.0000   1.0000   1.0000   1.0000   1.0000
     1.0000   1.0000   1.0000   1.0000   1.0000   1.0000   1.0000   1.0000
    -0.0000  -0.0000  -0.0000  -0.0000  -0.0000

          k = 0.9983 0.6869 0.0542 (  5401 PWs)   bands (ev):

   -49.8527 -26.2944 -25.9188 -25.7481 -11.1029  -8.8827  -8.6766  -0.3052
     0.6792   0.9482   1.6076   1.9518   2.1073   2.6190   3.3261   3.9197
     8.4775   8.8833   9.1067   9.7748  11.3188

     occupation numbers 
     1.0000   1.0000   1.0000   1.0000   1.0000   1.0000   1.0000   1.0000
     1.0000   1.0000   1.0000   1.0000   1.0000   1.0000   1.0000   1.0000
    -0.0000  -0.0000  -0.0000  -0.0000  -0.0000

          k =-0.7986-0.8586 0.0542 (  5403 PWs)   bands (ev):

   -49.8538 -26.3130 -25.8982 -25.7511 -10.9596  -8.8787  -8.7273  -0.6391
     0.6996   1.1610   1.4950   1.8292   2.2985   2.4369   3.3826   3.8448
     8.1147   9.1852   9.3723   9.5912  11.3311

     occupation numbers 
     1.0000   1.0000   1.0000   1.0000   1.0000   1.0000   1.0000   1.0000
     1.0000   1.0000   1.0000   1.0000   1.0000   1.0000   1.0000   1.0000
    -0.0000  -0.0000  -0.0000  -0.0000  -0.0000

          k =-0.5990-0.6869 0.0542 (  5418 PWs)   bands (ev):

   -49.8577 -26.3014 -25.8463 -25.7613 -11.1385  -8.9252  -8.8588  -0.3329
     1.1475   1.4041   1.7369   1.7608   1.9257   2.7253   3.6348   3.8391
     7.3087   9.0318   9.1617   9.3195  11.4420

     occupation numbers 
     1.0000   1.0000   1.0000   1.0000   1.0000   1.0000   1.0000   1.0000
     1.0000   1.0000   1.0000   1.0000   1.0000   1.0000   1.0000   1.0000
    -0.0000  -0.0000  -0.0000  -0.0000  -0.0000

          k =-0.3993-0.5152 0.0542 (  5426 PWs)   bands (ev):

   -49.8631 -26.2630 -25.7823 -25.7747 -11.5473  -9.1729  -8.8364   0.4985
     1.2758   1.4215   1.9101   2.0536   2.6101   3.1588   3.7660   3.8731
     6.5091   8.5880   8.6232   9.0021  11.1481

     occupation numbers 
     1.0000   1.0000   1.0000   1.0000   1.0000   1.0000   1.0000   1.0000
     1.0000   1.0000   1.0000   1.0000   1.0000   1.0000   1.0000   1.0000
     1.0225  -0.0000  -0.0000  -0.0000  -0.0000

          k =-0.1997-0.3435 0.0542 (  5413 PWs)   bands (ev):

   -49.8677 -26.2114 -25.7863 -25.7304 -11.9982  -9.3786  -8.8188   0.8494
     1.6099   1.6800   2.3603   2.7935   3.3757   3.5437   3.8024   3.9118
     5.8713   8.0193   8.0345   8.7564  10.2980

     occupation numbers 
     1.0000   1.0000   1.0000   1.0000   1.0000   1.0000   1.0000   1.0000
     1.0000   1.0000   1.0000   1.0000   1.0000   1.0000   1.0000   1.0000
     1.0000  -0.0000  -0.0000  -0.0000  -0.0000

          k = 0.0000-0.1717 0.0542 (  5422 PWs)   bands (ev):

   -49.8700 -26.1665 -25.7917 -25.7112 -12.3250  -9.4764  -8.8115   0.6758
     2.1942   2.5065   2.5758   3.2935   3.3169   3.8284   3.9972   4.2074
     5.5467   7.4612   7.5243   8.6907   9.5947

     occupation numbers 
     1.0000   1.0000   1.0000   1.0000   1.0000   1.0000   1.0000   1.0000
     1.0000   1.0000   1.0000   1.0000   1.0000   1.0000   1.0000   1.0000
     1.0000  -0.0000  -0.0000  -0.0000  -0.0000

          k = 0.3993 0.0000 0.1083 (  5423 PWs)   bands (ev):

   -49.8653 -26.1427 -25.7866 -25.7792 -12.4001  -9.2820  -8.8350   1.0644
     2.0622   2.4192   2.6478   2.9789   3.1878   3.5182   3.8269   3.9873
     6.4267   6.9830   7.1614   8.9427  10.0084

     occupation numbers 
     1.0000   1.0000   1.0000   1.0000   1.0000   1.0000   1.0000   1.0000
     1.0000   1.0000   1.0000   1.0000   1.0000   1.0000   1.0000   1.0000
     1.0285  -0.0101  -0.0001  -0.0000  -0.0000

          k = 0.5990 0.1717 0.1083 (  5405 PWs)   bands (ev):

   -49.8605 -26.1552 -25.8520 -25.7667 -12.2494  -9.0719  -8.8490   1.3255
     1.6854   1.8961   2.2338   2.6541   2.9538   3.1337   3.8207   3.9994
     7.0136   7.1842   7.2767   9.3918  10.3876

     occupation numbers 
     1.0000   1.0000   1.0000   1.0000   1.0000   1.0000   1.0000   1.0000
     1.0000   1.0000   1.0000   1.0000   1.0000   1.0000   1.0000   1.0000
    -0.0055  -0.0000  -0.0000  -0.0000  -0.0000

          k = 0.7986 0.3435 0.1083 (  5408 PWs)   bands (ev):

   -49.8560 -26.1966 -25.9030 -25.7554 -11.9071  -8.9046  -8.8168   1.0298
     1.4277   1.6270   1.7873   1.9608   2.4979   2.7791   3.7562   4.0990
     7.4699   7.7106   8.0858   9.7412  10.8183

     occupation numbers 
     1.0000   1.0000   1.0000   1.0000   1.0000   1.0000   1.0000   1.0000
     1.0000   1.0000   1.0000   1.0000   1.0000   1.0000   1.0000   1.0000
    -0.0000  -0.0000  -0.0000  -0.0000  -0.0000

          k = 0.9983 0.5152 0.1083 (  5407 PWs)   bands (ev):

   -49.8536 -26.2503 -25.9207 -25.7497 -11.4765  -8.9032  -8.6993   0.5502
     0.8674   1.0060   1.4829   1.9725   2.4600   2.7010   3.4658   4.0098
     8.1990   8.4797   8.4910   9.7633  11.0722

     occupation numbers 
     1.0000   1.0000   1.0000   1.0000   1.0000   1.0000   1.0000   1.0000
     1.0000   1.0000   1.0000   1.0000   1.0000   1.0000   1.0000   1.0000
    -0.0000  -0.0000  -0.0000  -0.0000  -0.0000

          k = 1.1980 0.6869 0.1083 (  5411 PWs)   bands (ev):

   -49.8541 -26.2963 -25.8989 -25.7518 -11.1126  -8.9039  -8.7170  -0.3131
     0.7844   1.1024   1.3861   1.9054   2.4475   2.5739   3.4198   3.8255
     8.1306   8.9202   9.1380   9.5314  11.2079

     occupation numbers 
     1.0000   1.0000   1.0000   1.0000   1.0000   1.0000   1.0000   1.0000
     1.0000   1.0000   1.0000   1.0000   1.0000   1.0000   1.0000   1.0000
    -0.0000  -0.0000  -0.0000  -0.0000  -0.0000

          k =-0.5990-0.8586 0.1083 (  5422 PWs)   bands (ev):

   -49.8574 -26.3182 -25.8457 -25.7607 -10.9845  -8.8895  -8.8778  -0.6572
     1.0057   1.2858   1.6877   1.7083   2.1122   2.8020   3.6111   3.6938
     7.3507   9.1411   9.3378   9.4447  11.4278

     occupation numbers 
     1.0000   1.0000   1.0000   1.0000   1.0000   1.0000   1.0000   1.0000
     1.0000   1.0000   1.0000   1.0000   1.0000   1.0000   1.0000   1.0000
    -0.0000  -0.0000  -0.0000  -0.0000  -0.0000

          k =-0.3993-0.6869 0.1083 (  5437 PWs)   bands (ev):

   -49.8622 -26.3076 -25.7807 -25.7731 -11.1698  -9.1060  -8.8653  -0.3568
     1.1123   1.4231   1.6207   1.9879   2.5797   3.1217   3.5872   3.8329
     6.5673   8.8779   9.2101   9.2941  11.3539

     occupation numbers 
     1.0000   1.0000   1.0000   1.0000   1.0000   1.0000   1.0000   1.0000
     1.0000   1.0000   1.0000   1.0000   1.0000   1.0000   1.0000   1.0000
     0.9288  -0.0000  -0.0000  -0.0000  -0.0000

          k =-0.1997-0.5152 0.1083 (  5432 PWs)   bands (ev):

   -49.8667 -26.2678 -25.7842 -25.7285 -11.5740  -9.3091  -8.8427   0.4744
     0.9578   1.2750   2.3021   2.4403   3.1110   3.5160   3.6412   3.9280
     5.9264   8.6779   8.7699   8.8276  10.7191

     occupation numbers 
     1.0000   1.0000   1.0000   1.0000   1.0000   1.0000   1.0000   1.0000
     1.0000   1.0000   1.0000   1.0000   1.0000   1.0000   1.0000   1.0000
     1.0000  -0.0000  -0.0000  -0.0000  -0.0000

          k = 0.0000-0.3435 0.1083 (  5422 PWs)   bands (ev):

   -49.8691 -26.2131 -25.7900 -25.7097 -12.0088  -9.4220  -8.8293   0.7636
     1.5917   1.6505   2.5459   3.0253   3.2853   3.5851   3.9164   4.0829
     5.5875   8.0538   8.1209   8.7412  10.0721

     occupation numbers 
     1.0000   1.0000   1.0000   1.0000   1.0000   1.0000   1.0000   1.0000
     1.0000   1.0000   1.0000   1.0000   1.0000   1.0000   1.0000   1.0000
     1.0000  -0.0000  -0.0000  -0.0000  -0.0000

          k = 0.1997-0.1717 0.1083 (  5408 PWs)   bands (ev):

   -49.8686 -26.1649 -25.7881 -25.7320 -12.3138  -9.4124  -8.8271   0.8195
     2.2360   2.3517   2.5872   3.1140   3.2438   3.6641   3.9130   4.0597
     5.8409   7.3863   7.4935   8.7287   9.8940

     occupation numbers 
     1.0000   1.0000   1.0000   1.0000   1.0000   1.0000   1.0000   1.0000
     1.0000   1.0000   1.0000   1.0000   1.0000   1.0000   1.0000   1.0000
     1.0000  -0.0000  -0.0000  -0.0000  -0.0000

          k = 0.5990 0.0000 0.1625 (  5413 PWs)   bands (ev):

   -49.8608 -26.1374 -25.8527 -25.7673 -12.3641  -9.0870  -8.8492   1.2695
     1.6056   1.9596   2.3374   3.0563   3.3856   3.4659   3.7136   3.7910
     6.8430   6.9427   7.2270   9.3293  10.0494

     occupation numbers 
     1.0000   1.0000   1.0000   1.0000   1.0000   1.0000   1.0000   1.0000
     1.0000   1.0000   1.0000   1.0000   1.0000   1.0000   1.0000   1.0000
    -0.0309  -0.0195  -0.0000  -0.0000  -0.0000

          k = 0.7986 0.1717 0.1625 (  5411 PWs)   bands (ev):

   -49.8568 -26.1508 -25.9048 -25.7571 -12.2205  -8.9442  -8.8187   0.9611
     1.4238   1.8724   2.0031   2.7874   2.9265   3.3123   3.8002   3.9433
     6.9428   7.0039   8.0476   9.6942  10.2374

     occupation numbers 
     1.0000   1.0000   1.0000   1.0000   1.0000   1.0000   1.0000   1.0000
     1.0000   1.0000   1.0000   1.0000   1.0000   1.0000   1.0000   1.0000
    -0.0194  -0.0067  -0.0000  -0.0000  -0.0000

          k = 0.9983 0.3435 0.1625 (  5414 PWs)   bands (ev):

   -49.8546 -26.1949 -25.9230 -25.7518 -11.8962  -8.9283  -8.7269   0.7626
     1.3461   1.4699   1.7608   1.9707   2.7348   3.0228   3.6666   4.0343
     7.4553   7.6652   8.4651   9.7412  10.6546

     occupation numbers 
     1.0000   1.0000   1.0000   1.0000   1.0000   1.0000   1.0000   1.0000
     1.0000   1.0000   1.0000   1.0000   1.0000   1.0000   1.0000   1.0000
    -0.0000  -0.0000  -0.0000  -0.0000  -0.0000

          k = 1.1980 0.5152 0.1625 (  5408 PWs)   bands (ev):

   -49.8550 -26.2522 -25.9007 -25.7534 -11.4867  -8.9351  -8.7280   0.5459
     0.9989   1.1065   1.3255   2.0324   2.6052   2.7249   3.5578   3.9050
     8.1169   8.2735   8.5139   9.5039  10.9843

     occupation numbers 
     1.0000   1.0000   1.0000   1.0000   1.0000   1.0000   1.0000   1.0000
     1.0000   1.0000   1.0000   1.0000   1.0000   1.0000   1.0000   1.0000
    -0.0000  -0.0000  -0.0000  -0.0000  -0.0000

          k = 1.3976 0.6869 0.1625 (  5433 PWs)   bands (ev):

   -49.8578 -26.3014 -25.8464 -25.7613 -11.1382  -8.9344  -8.8480  -0.3334
     1.0728   1.2933   1.6177   1.7108   2.2979   2.8703   3.6281   3.7109
     7.3643   8.9667   9.1964   9.2260  11.3337

     occupation numbers 
     1.0000   1.0000   1.0000   1.0000   1.0000   1.0000   1.0000   1.0000
     1.0000   1.0000   1.0000   1.0000   1.0000   1.0000   1.0000   1.0000
    -0.0000  -0.0000  -0.0000  -0.0000  -0.0000

          k =-0.3993-0.8586 0.1625 (  5436 PWs)   bands (ev):

   -49.8619 -26.3245 -25.7801 -25.7724 -11.0148  -9.0546  -8.9039  -0.6795
     1.0216   1.3708   1.6966   1.8855   2.5928   3.0567   3.5012   3.8513
     6.6034   8.8581   9.4545   9.5085  11.4171

     occupation numbers 
     1.0000   1.0000   1.0000   1.0000   1.0000   1.0000   1.0000   1.0000
     1.0000   1.0000   1.0000   1.0000   1.0000   1.0000   1.0000   1.0000
     0.8097  -0.0000  -0.0000  -0.0000  -0.0000

          k =-0.1997-0.6869 0.1625 (  5441 PWs)   bands (ev):

   -49.8658 -26.3127 -25.7825 -25.7270 -11.1948  -9.2366  -8.8816  -0.3759
     0.8565   1.2557   2.0323   2.3344   2.8928   3.4651   3.5380   3.9543
     5.9731   8.7987   9.3077   9.3680  11.0062

     occupation numbers 
     1.0000   1.0000   1.0000   1.0000   1.0000   1.0000   1.0000   1.0000
     1.0000   1.0000   1.0000   1.0000   1.0000   1.0000   1.0000   1.0000
     1.0000  -0.0000  -0.0000  -0.0000  -0.0000

          k =-0.0000-0.5152 0.1625 (  5437 PWs)   bands (ev):

   -49.8681 -26.2696 -25.7879 -25.7079 -11.5840  -9.3467  -8.8609   0.4628
     0.8633   1.2682   2.5962   2.7019   2.7641   3.5328   3.9603   3.9947
     5.6343   8.7294   8.8010   8.8639  10.5295

     occupation numbers 
     1.0000   1.0000   1.0000   1.0000   1.0000   1.0000   1.0000   1.0000
     1.0000   1.0000   1.0000   1.0000   1.0000   1.0000   1.0000   1.0000
     1.0000  -0.0000  -0.0000  -0.0000  -0.0000

          k = 0.1997-0.3435 0.1625 (  5412 PWs)   bands (ev):

   -49.8677 -26.2114 -25.7864 -25.7304 -11.9978  -9.3538  -8.8487   0.9158
     1.6033   1.7344   2.3498   2.7896   3.1599   3.5578   3.7241   4.0411
     5.8900   8.0277   8.0350   8.7578  10.3911

     occupation numbers 
     1.0000   1.0000   1.0000   1.0000   1.0000   1.0000   1.0000   1.0000
     1.0000   1.0000   1.0000   1.0000   1.0000   1.0000   1.0000   1.0000
     1.0000  -0.0000  -0.0000  -0.0000  -0.0000

          k = 0.3993-0.1717 0.1625 (  5413 PWs)   bands (ev):

   -49.8650 -26.1605 -25.7860 -25.7785 -12.2848  -9.2563  -8.8463   1.1076
     2.0631   2.2420   2.4987   2.6210   3.1101   3.2887   3.8516   4.0518
     6.4526   7.2171   7.3839   8.9058  10.2853

     occupation numbers 
     1.0000   1.0000   1.0000   1.0000   1.0000   1.0000   1.0000   1.0000
     1.0000   1.0000   1.0000   1.0000   1.0000   1.0000   1.0000   1.0000
     1.0342  -0.0000  -0.0000  -0.0000  -0.0000

          k = 0.7986 0.0000 0.2166 (  5400 PWs)   bands (ev):

   -49.8572 -26.1332 -25.9055 -25.7577 -12.3350  -8.9709  -8.8064   0.9129
     1.3391   2.0094   2.0549   3.1689   3.4371   3.5106   3.7073   3.8132
     6.6906   6.7520   8.0458   9.5858   9.9427

     occupation numbers 
     1.0000   1.0000   1.0000   1.0000   1.0000   1.0000   1.0000   1.0000
     1.0000   1.0000   1.0000   1.0000   1.0000   1.0000   1.0000   1.0000
     0.3866   0.1237  -0.0000  -0.0000  -0.0000

          k = 0.9983 0.1717 0.2166 (  5416 PWs)   bands (ev):

   -49.8555 -26.1492 -25.9249 -25.7534 -12.2094  -8.9484  -8.7489   0.7072
     1.3402   1.8387   1.9515   2.8563   2.9829   3.4794   3.8519   3.8572
     6.8863   6.9316   8.4478   9.6546  10.1872

     occupation numbers 
     1.0000   1.0000   1.0000   1.0000   1.0000   1.0000   1.0000   1.0000
     1.0000   1.0000   1.0000   1.0000   1.0000   1.0000   1.0000   1.0000
    -0.0339  -0.0225  -0.0000  -0.0000  -0.0000

          k = 1.1980 0.3435 0.2166 (  5413 PWs)   bands (ev):

   -49.8560 -26.1966 -25.9030 -25.7555 -11.9069  -8.9627  -8.7535   0.9292
     1.2797   1.4784   1.7720   2.1213   2.7491   2.9910   3.7354   3.9969
     7.4946   7.7104   8.1085   9.5179  10.6164

     occupation numbers 
     1.0000   1.0000   1.0000   1.0000   1.0000   1.0000   1.0000   1.0000
     1.0000   1.0000   1.0000   1.0000   1.0000   1.0000   1.0000   1.0000
    -0.0000  -0.0000  -0.0000  -0.0000  -0.0000

          k = 1.3976 0.5152 0.2166 (  5427 PWs)   bands (ev):

   -49.8586 -26.2570 -25.8481 -25.7630 -11.5136  -8.9884  -8.8356   0.5226
     1.3094   1.3428   1.5738   1.8560   2.4268   2.9263   3.6734   3.8985
     7.3427   8.3865   8.5874   9.1623  11.1358

     occupation numbers 
     1.0000   1.0000   1.0000   1.0000   1.0000   1.0000   1.0000   1.0000
     1.0000   1.0000   1.0000   1.0000   1.0000   1.0000   1.0000   1.0000
    -0.0000  -0.0000  -0.0000  -0.0000  -0.0000

          k = 1.5973 0.6869 0.2166 (  5435 PWs)   bands (ev):

   -49.8622 -26.3076 -25.7807 -25.7731 -11.1694  -9.0633  -8.9107  -0.3575
     1.0957   1.4541   1.6708   1.9558   2.5828   3.0797   3.4910   3.9306
     6.6050   8.8268   9.2368   9.2682  11.3554

     occupation numbers 
     1.0000   1.0000   1.0000   1.0000   1.0000   1.0000   1.0000   1.0000
     1.0000   1.0000   1.0000   1.0000   1.0000   1.0000   1.0000   1.0000
     0.8033  -0.0000  -0.0000  -0.0000  -0.0000

          k =-0.1997-0.8586 0.2166 (  5439 PWs)   bands (ev):

   -49.8655 -26.3296 -25.7819 -25.7264 -11.0388  -9.1913  -8.9164  -0.6975
     0.7765   1.4004   1.8546   2.2591   2.8216   3.4289   3.5070   3.9721
     5.9956   8.8154   9.5347   9.5937  11.1262

     occupation numbers 
     1.0000   1.0000   1.0000   1.0000   1.0000   1.0000   1.0000   1.0000
     1.0000   1.0000   1.0000   1.0000   1.0000   1.0000   1.0000   1.0000
     1.0000  -0.0000  -0.0000  -0.0000  -0.0000

          k = 0.0000-0.6869 0.2166 (  5440 PWs)   bands (ev):

   -49.8672 -26.3146 -25.7862 -25.7063 -11.2041  -9.2747  -8.9003  -0.3833
     0.7538   1.2605   2.3264   2.4675   2.6418   3.4635   3.9407   3.9737
     5.6724   8.8542   9.3055   9.4392  10.8427

     occupation numbers 
     1.0000   1.0000   1.0000   1.0000   1.0000   1.0000   1.0000   1.0000
     1.0000   1.0000   1.0000   1.0000   1.0000   1.0000   1.0000   1.0000
     1.0000  -0.0000  -0.0000  -0.0000  -0.0000

          k = 0.1997-0.5152 0.2166 (  5436 PWs)   bands (ev):

   -49.8667 -26.2678 -25.7843 -25.7285 -11.5736  -9.2771  -8.8801   0.4707
     0.9949   1.4060   2.1843   2.4761   2.9429   3.5243   3.5688   4.0347
     5.9454   8.7127   8.7556   8.8155  10.8161

     occupation numbers 
     1.0000   1.0000   1.0000   1.0000   1.0000   1.0000   1.0000   1.0000
     1.0000   1.0000   1.0000   1.0000   1.0000   1.0000   1.0000   1.0000
     1.0000  -0.0000  -0.0000  -0.0000  -0.0000

          k = 0.3993-0.3435 0.2166 (  5410 PWs)   bands (ev):

   -49.8641 -26.2068 -25.7844 -25.7768 -11.9696  -9.2009  -8.8618   1.1782
     1.6141   1.9054   2.0248   2.3370   2.6371   3.2667   3.7225   4.1078
     6.5086   7.8353   7.9519   8.8837  10.7858

     occupation numbers 
     1.0000   1.0000   1.0000   1.0000   1.0000   1.0000   1.0000   1.0000
     1.0000   1.0000   1.0000   1.0000   1.0000   1.0000   1.0000   1.0000
     1.0229  -0.0000  -0.0000  -0.0000  -0.0000

          k = 0.5990-0.1717 0.2166 (  5417 PWs)   bands (ev):

   -49.8605 -26.1552 -25.8520 -25.7667 -12.2492  -9.0751  -8.8442   1.2568
     1.5454   1.9269   2.3082   2.6846   3.0213   3.2126   3.8036   4.0160
     7.0156   7.1806   7.2922   9.2528  10.2994

     occupation numbers 
     1.0000   1.0000   1.0000   1.0000   1.0000   1.0000   1.0000   1.0000
     1.0000   1.0000   1.0000   1.0000   1.0000   1.0000   1.0000   1.0000
    -0.0052  -0.0000  -0.0000  -0.0000  -0.0000

          k =-0.9983 0.0000-0.2708 (  5412 PWs)   bands (ev):

   -49.8558 -26.1315 -25.9256 -25.7540 -12.3239  -8.9560  -8.7573   0.6853
     1.3281   1.9180   2.0338   3.3102   3.3387   3.4765   3.7582   3.9317
     6.5693   6.7218   8.4389   9.5290  10.0194

     occupation numbers 
     1.0000   1.0000   1.0000   1.0000   1.0000   1.0000   1.0000   1.0000
     1.0000   1.0000   1.0000   1.0000   1.0000   1.0000   1.0000   1.0000
     0.9234   0.2395  -0.0000  -0.0000  -0.0000

          k =-0.7986 0.1717-0.2708 (  5411 PWs)   bands (ev):

   -49.8568 -26.1508 -25.9048 -25.7571 -12.2204  -8.9769  -8.7828   0.9034
     1.2905   1.8729   2.1110   2.7970   3.0034   3.3960   3.7763   3.9612
     6.9267   6.9970   8.0730   9.5512  10.1514

     occupation numbers 
     1.0000   1.0000   1.0000   1.0000   1.0000   1.0000   1.0000   1.0000
     1.0000   1.0000   1.0000   1.0000   1.0000   1.0000   1.0000   1.0000
    -0.0239  -0.0077  -0.0000  -0.0000  -0.0000

          k =-0.5990 0.3435-0.2708 (  5418 PWs)   bands (ev):

   -49.8596 -26.2012 -25.8503 -25.7650 -11.9349  -9.0393  -8.8371   1.2756
     1.4559   1.6384   1.8471   2.1260   2.5751   3.0015   3.7803   4.0607
     7.2783   7.6527   7.8273   9.1897  10.7831

     occupation numbers 
     1.0000   1.0000   1.0000   1.0000   1.0000   1.0000   1.0000   1.0000
     1.0000   1.0000   1.0000   1.0000   1.0000   1.0000   1.0000   1.0000
    -0.0000  -0.0000  -0.0000  -0.0000  -0.0000

          k =-0.3993 0.5152-0.2708 (  5420 PWs)   bands (ev):

   -49.8631 -26.2630 -25.7823 -25.7748 -11.5467  -9.1286  -8.8847   0.4935
     1.2389   1.6191   1.7367   2.1377   2.5346   3.2058   3.5524   4.0401
     6.5695   8.5600   8.6675   8.8967  11.1574

     occupation numbers 
     1.0000   1.0000   1.0000   1.0000   1.0000   1.0000   1.0000   1.0000
     1.0000   1.0000   1.0000   1.0000   1.0000   1.0000   1.0000   1.0000
     0.9230  -0.0000  -0.0000  -0.0000  -0.0000

          k =-0.1997 0.6869-0.2708 (  5433 PWs)   bands (ev):

   -49.8658 -26.3127 -25.7825 -25.7270 -11.1945  -9.2090  -8.9127  -0.3764
     0.8527   1.4227   1.9058   2.3192   2.8352   3.4405   3.5274   4.0013
     5.9855   8.8108   9.2982   9.3703  11.0662

     occupation numbers 
     1.0000   1.0000   1.0000   1.0000   1.0000   1.0000   1.0000   1.0000
     1.0000   1.0000   1.0000   1.0000   1.0000   1.0000   1.0000   1.0000
     1.0000  -0.0000  -0.0000  -0.0000  -0.0000

          k =-1.9966-0.8586-0.2708 (  5440 PWs)   bands (ev):

   -49.8669 -26.3316 -25.7855 -25.7058 -11.0479  -9.2422  -8.9214  -0.7043
     0.6797   1.3364   2.1354   2.3850   2.6589   3.4368   3.9218   3.9708
     5.6870   8.8738   9.5355   9.6595  10.9537

     occupation numbers 
     1.0000   1.0000   1.0000   1.0000   1.0000   1.0000   1.0000   1.0000
     1.0000   1.0000   1.0000   1.0000   1.0000   1.0000   1.0000   1.0000
     1.0000  -0.0000  -0.0000  -0.0000  -0.0000

          k = 0.3993 0.3435 0.1083 (  5406 PWs)   bands (ev):

   -49.8641 -26.2068 -25.7844 -25.7768 -11.9700  -9.2253  -8.8347   1.1516
     1.6337   1.8476   2.0476   2.3902   2.6563   3.2102   3.8181   4.0426
     6.4650   7.8457   7.9369   8.9608  10.7791

     occupation numbers 
     1.0000   1.0000   1.0000   1.0000   1.0000   1.0000   1.0000   1.0000
     1.0000   1.0000   1.0000   1.0000   1.0000   1.0000   1.0000   1.0000
     1.0354  -0.0000  -0.0000  -0.0000  -0.0000

          k = 0.5990 0.5152 0.1083 (  5414 PWs)   bands (ev):

   -49.8586 -26.2570 -25.8481 -25.7630 -11.5140  -8.9813  -8.8448   0.5260
     1.3966   1.6033   1.6914   1.7676   2.0403   2.7347   3.7301   3.9933
     7.2619   8.4089   8.5740   9.3427  11.3050

     occupation numbers 
     1.0000   1.0000   1.0000   1.0000   1.0000   1.0000   1.0000   1.0000
     1.0000   1.0000   1.0000   1.0000   1.0000   1.0000   1.0000   1.0000
    -0.0000  -0.0000  -0.0000  -0.0000  -0.0000

          k = 0.7986 0.6869 0.1083 (  5400 PWs)   bands (ev):

   -49.8541 -26.2963 -25.8989 -25.7518 -11.1128  -8.8716  -8.7522  -0.3130
     0.8191   1.1518   1.6948   1.7439   2.2488   2.3784   3.4402   3.9393
     8.0846   8.9235   9.1360   9.6466  11.3620

     occupation numbers 
     1.0000   1.0000   1.0000   1.0000   1.0000   1.0000   1.0000   1.0000
     1.0000   1.0000   1.0000   1.0000   1.0000   1.0000   1.0000   1.0000
    -0.0000  -0.0000  -0.0000  -0.0000  -0.0000

          k = 0.9983 0.8586 0.1083 (  5390 PWs)   bands (ev):

   -49.8524 -26.3111 -25.9181 -25.7475 -10.9500  -8.8748  -8.6678  -0.6321
     0.5879   0.9524   1.7704   1.8762   1.9382   2.6088   3.2474   3.8963
     8.4862   9.1503   9.3450   9.7658  11.3879

     occupation numbers 
     1.0000   1.0000   1.0000   1.0000   1.0000   1.0000   1.0000   1.0000
     1.0000   1.0000   1.0000   1.0000   1.0000   1.0000   1.0000   1.0000
    -0.0000  -0.0000  -0.0000  -0.0000  -0.0000

          k = 0.0000 0.0000 0.1083 (  5407 PWs)   bands (ev):

   -49.8703 -26.1485 -25.7924 -25.7118 -12.4403  -9.4814  -8.8247   0.6920
     2.5075   2.7028   2.8452   3.0080   3.4229   3.8591   4.1581   4.2631
     5.5391   7.1790   7.3431   8.7052   9.4222

     occupation numbers 
     1.0000   1.0000   1.0000   1.0000   1.0000   1.0000   1.0000   1.0000
     1.0000   1.0000   1.0000   1.0000   1.0000   1.0000   1.0000   1.0000
     1.0000  -0.0000  -0.0000  -0.0000  -0.0000

          k = 0.5990 0.3435 0.1625 (  5408 PWs)   bands (ev):

   -49.8596 -26.2012 -25.8503 -25.7650 -11.9351  -9.0355  -8.8425   1.3501
     1.5402   1.7101   1.8843   2.0533   2.3822   2.8854   3.8183   4.0883
     7.2128   7.6822   7.8225   9.3265  10.8955

     occupation numbers 
     1.0000   1.0000   1.0000   1.0000   1.0000   1.0000   1.0000   1.0000
     1.0000   1.0000   1.0000   1.0000   1.0000   1.0000   1.0000   1.0000
    -0.0000  -0.0000  -0.0000  -0.0000  -0.0000

          k = 0.7986 0.5152 0.1625 (  5413 PWs)   bands (ev):

   -49.8550 -26.2522 -25.9007 -25.7534 -11.4869  -8.8943  -8.7729   0.5473
     1.0943   1.1156   1.6052   1.8928   2.4094   2.4727   3.5791   4.0378
     8.0149   8.3221   8.5091   9.6692  11.1818

     occupation numbers 
     1.0000   1.0000   1.0000   1.0000   1.0000   1.0000   1.0000   1.0000
     1.0000   1.0000   1.0000   1.0000   1.0000   1.0000   1.0000   1.0000
    -0.0000  -0.0000  -0.0000  -0.0000  -0.0000

          k = 0.9983 0.6869 0.1625 (  5401 PWs)   bands (ev):

   -49.8527 -26.2944 -25.9188 -25.7481 -11.1029  -8.8827  -8.6766  -0.3052
     0.6951   0.9167   1.6598   1.8973   2.1212   2.6429   3.2811   3.9464
     8.4822   8.8819   9.1125   9.7487  11.3075

     occupation numbers 
     1.0000   1.0000   1.0000   1.0000   1.0000   1.0000   1.0000   1.0000
     1.0000   1.0000   1.0000   1.0000   1.0000   1.0000   1.0000   1.0000
    -0.0000  -0.0000  -0.0000  -0.0000  -0.0000

          k = 1.1980 0.8586 0.1625 (  5405 PWs)   bands (ev):

   -49.8538 -26.3130 -25.8982 -25.7511 -10.9596  -8.8787  -8.7273  -0.6391
     0.7053   1.1347   1.5585   1.7669   2.3075   2.4555   3.3689   3.8502
     8.1159   9.1703   9.3764   9.5968  11.3533

     occupation numbers 
     1.0000   1.0000   1.0000   1.0000   1.0000   1.0000   1.0000   1.0000
     1.0000   1.0000   1.0000   1.0000   1.0000   1.0000   1.0000   1.0000
    -0.0000  -0.0000  -0.0000  -0.0000  -0.0000

          k =-0.5990-0.6869 0.1625 (  5425 PWs)   bands (ev):

   -49.8578 -26.3014 -25.8463 -25.7613 -11.1384  -8.9276  -8.8560  -0.3330
     1.1197   1.4292   1.6272   1.7198   2.0802   2.7639   3.6309   3.8092
     7.3214   8.9867   9.1827   9.3168  11.4357

     occupation numbers 
     1.0000   1.0000   1.0000   1.0000   1.0000   1.0000   1.0000   1.0000
     1.0000   1.0000   1.0000   1.0000   1.0000   1.0000   1.0000   1.0000
    -0.0000  -0.0000  -0.0000  -0.0000  -0.0000

          k =-0.3993-0.5152 0.1625 (  5423 PWs)   bands (ev):

   -49.8631 -26.2630 -25.7823 -25.7747 -11.5471  -9.1577  -8.8532   0.4966
     1.2421   1.5127   1.8277   2.1278   2.5419   3.1954   3.6561   3.9643
     6.5316   8.5699   8.6503   8.9574  11.1547

     occupation numbers 
     1.0000   1.0000   1.0000   1.0000   1.0000   1.0000   1.0000   1.0000
     1.0000   1.0000   1.0000   1.0000   1.0000   1.0000   1.0000   1.0000
     0.9993  -0.0000  -0.0000  -0.0000  -0.0000

          k = 0.0000-0.1717 0.1625 (  5415 PWs)   bands (ev):

   -49.8700 -26.1665 -25.7917 -25.7112 -12.3246  -9.4478  -8.8476   0.7716
     2.2137   2.5358   2.5724   3.2179   3.3074   3.6592   4.0436   4.1589
     5.5601   7.4610   7.5457   8.7517   9.7151

     occupation numbers 
     1.0000   1.0000   1.0000   1.0000   1.0000   1.0000   1.0000   1.0000
     1.0000   1.0000   1.0000   1.0000   1.0000   1.0000   1.0000   1.0000
     1.0000  -0.0000  -0.0000  -0.0000  -0.0000

          k = 0.1997 0.0000 0.1625 (  5414 PWs)   bands (ev):

   -49.8689 -26.1469 -25.7887 -25.7326 -12.4289  -9.4117  -8.8470   0.8510
     2.3564   2.6394   2.8624   3.0938   3.1942   3.7448   4.0000   4.0830
     5.8481   7.1105   7.3201   8.7182   9.7126

     occupation numbers 
     1.0000   1.0000   1.0000   1.0000   1.0000   1.0000   1.0000   1.0000
     1.0000   1.0000   1.0000   1.0000   1.0000   1.0000   1.0000   1.0000
     1.0000  -0.0004  -0.0000  -0.0000  -0.0000

          k = 0.7986 0.3435 0.2166 (  5405 PWs)   bands (ev):

   -49.8560 -26.1966 -25.9030 -25.7554 -11.9070  -8.9367  -8.7824   0.9758
     1.3718   1.5561   1.7749   2.0181   2.6303   2.8748   3.7431   4.0591
     7.4830   7.7101   8.0919   9.6376  10.7335

     occupation numbers 
     1.0000   1.0000   1.0000   1.0000   1.0000   1.0000   1.0000   1.0000
     1.0000   1.0000   1.0000   1.0000   1.0000   1.0000   1.0000   1.0000
    -0.0000  -0.0000  -0.0000  -0.0000  -0.0000

          k = 0.9983 0.5152 0.2166 (  5399 PWs)   bands (ev):

   -49.8536 -26.2503 -25.9207 -25.7497 -11.4765  -8.9032  -8.6993   0.5497
     0.8627   0.9970   1.5526   1.8916   2.4469   2.7602   3.4304   4.0250
     8.2140   8.4770   8.4841   9.7395  11.0820

     occupation numbers 
     1.0000   1.0000   1.0000   1.0000   1.0000   1.0000   1.0000   1.0000
     1.0000   1.0000   1.0000   1.0000   1.0000   1.0000   1.0000   1.0000
    -0.0000  -0.0000  -0.0000  -0.0000  -0.0000

          k = 1.1980 0.6869 0.2166 (  5408 PWs)   bands (ev):

   -49.8541 -26.2963 -25.8989 -25.7518 -11.1127  -8.8953  -8.7265  -0.3131
     0.8022   1.0920   1.4887   1.8437   2.3914   2.5368   3.4126   3.8686
     8.1181   8.9106   9.1388   9.5701  11.2714

     occupation numbers 
     1.0000   1.0000   1.0000   1.0000   1.0000   1.0000   1.0000   1.0000
     1.0000   1.0000   1.0000   1.0000   1.0000   1.0000   1.0000   1.0000
    -0.0000  -0.0000  -0.0000  -0.0000  -0.0000

          k = 1.3976 0.8586 0.2166 (  5428 PWs)   bands (ev):

   -49.8574 -26.3182 -25.8457 -25.7607 -10.9845  -8.8894  -8.8779  -0.6572
     0.9965   1.3305   1.6391   1.6849   2.1551   2.7995   3.6304   3.6698
     7.3504   9.1015   9.3879   9.4380  11.4572

     occupation numbers 
     1.0000   1.0000   1.0000   1.0000   1.0000   1.0000   1.0000   1.0000
     1.0000   1.0000   1.0000   1.0000   1.0000   1.0000   1.0000   1.0000
    -0.0000  -0.0000  -0.0000  -0.0000  -0.0000

          k =-0.3993-0.6869 0.2166 (  5435 PWs)   bands (ev):

   -49.8622 -26.3076 -25.7807 -25.7731 -11.1696  -9.0893  -8.8833  -0.3571
     1.0917   1.4814   1.6075   1.9868   2.5661   3.1003   3.5493   3.8807
     6.5841   8.8540   9.2308   9.2735  11.3552

     occupation numbers 
     1.0000   1.0000   1.0000   1.0000   1.0000   1.0000   1.0000   1.0000
     1.0000   1.0000   1.0000   1.0000   1.0000   1.0000   1.0000   1.0000
     0.8794  -0.0000  -0.0000  -0.0000  -0.0000

          k =-0.0000-0.3435 0.2166 (  5407 PWs)   bands (ev):

   -49.8691 -26.2131 -25.7900 -25.7097 -12.0083  -9.3820  -8.8782   0.8788
     1.5918   1.7243   2.5825   2.9726   3.0208   3.4772   4.0182   4.0803
     5.5971   8.0533   8.1201   8.8128  10.2389

     occupation numbers 
     1.0000   1.0000   1.0000   1.0000   1.0000   1.0000   1.0000   1.0000
     1.0000   1.0000   1.0000   1.0000   1.0000   1.0000   1.0000   1.0000
     1.0000  -0.0000  -0.0000  -0.0000  -0.0000

          k = 0.1997-0.1717 0.2166 (  5419 PWs)   bands (ev):

   -49.8686 -26.1649 -25.7881 -25.7320 -12.3134  -9.3741  -8.8735   0.9401
     2.2437   2.3605   2.5900   3.0362   3.1915   3.5696   3.8897   4.0614
     5.8770   7.3799   7.5243   8.7400  10.0112

     occupation numbers 
     1.0000   1.0000   1.0000   1.0000   1.0000   1.0000   1.0000   1.0000
     1.0000   1.0000   1.0000   1.0000   1.0000   1.0000   1.0000   1.0000
     1.0000  -0.0000  -0.0000  -0.0000  -0.0000

          k = 0.3993 0.0000 0.2166 (  5420 PWs)   bands (ev):

   -49.8653 -26.1427 -25.7866 -25.7792 -12.3997  -9.2568  -8.8633   1.1129
     2.0790   2.2640   2.6828   2.9248   3.2868   3.5388   3.8687   3.9407
     6.4774   6.9509   7.1874   8.8420  10.0055

     occupation numbers 
     1.0000   1.0000   1.0000   1.0000   1.0000   1.0000   1.0000   1.0000
     1.0000   1.0000   1.0000   1.0000   1.0000   1.0000   1.0000   1.0000
     1.0350  -0.0173  -0.0000  -0.0000  -0.0000

          k = 0.9983 0.3435 0.2708 (  5412 PWs)   bands (ev):

   -49.8546 -26.1948 -25.9230 -25.7518 -11.8962  -8.9283  -8.7269   0.7520
     1.3488   1.5284   1.7539   1.9094   2.7295   3.0580   3.6517   4.0369
     7.4599   7.6659   8.4617   9.7214  10.6762

     occupation numbers 
     1.0000   1.0000   1.0000   1.0000   1.0000   1.0000   1.0000   1.0000
     1.0000   1.0000   1.0000   1.0000   1.0000   1.0000   1.0000   1.0000
    -0.0000  -0.0000  -0.0000  -0.0000  -0.0000

          k = 1.1980 0.5152 0.2708 (  5417 PWs)   bands (ev):

   -49.8550 -26.2522 -25.9007 -25.7534 -11.4868  -8.9174  -8.7477   0.5465
     1.0410   1.1077   1.4572   1.9620   2.5019   2.6214   3.5623   3.9781
     8.0666   8.2940   8.5113   9.5860  11.0878

     occupation numbers 
     1.0000   1.0000   1.0000   1.0000   1.0000   1.0000   1.0000   1.0000
     1.0000   1.0000   1.0000   1.0000   1.0000   1.0000   1.0000   1.0000
    -0.0000  -0.0000  -0.0000  -0.0000  -0.0000

          k = 1.3976 0.6869 0.2708 (  5433 PWs)   bands (ev):

   -49.8578 -26.3014 -25.8463 -25.7613 -11.1383  -8.9311  -8.8518  -0.3332
     1.0905   1.3775   1.6378   1.6648   2.2126   2.8194   3.6277   3.7604
     7.3425   8.9558   9.1964   9.2873  11.3993

     occupation numbers 
     1.0000   1.0000   1.0000   1.0000   1.0000   1.0000   1.0000   1.0000
     1.0000   1.0000   1.0000   1.0000   1.0000   1.0000   1.0000   1.0000
    -0.0000  -0.0000  -0.0000  -0.0000  -0.0000

          k = 1.5973 0.8586 0.2708 (  5434 PWs)   bands (ev):

   -49.8619 -26.3245 -25.7801 -25.7724 -11.0148  -9.0547  -8.9039  -0.6795
     1.0115   1.3907   1.6968   1.8763   2.5997   3.0304   3.5257   3.8457
     6.6037   8.8567   9.4631   9.5000  11.4165

     occupation numbers 
     1.0000   1.0000   1.0000   1.0000   1.0000   1.0000   1.0000   1.0000
     1.0000   1.0000   1.0000   1.0000   1.0000   1.0000   1.0000   1.0000
     0.8086  -0.0000  -0.0000  -0.0000  -0.0000

          k = 0.0000-0.5152 0.2708 (  5427 PWs)   bands (ev):

   -49.8681 -26.2696 -25.7879 -25.7079 -11.5835  -9.3016  -8.9140   0.4583
     0.9424   1.4153   2.4750   2.6284   2.7020   3.4073   3.9350   4.1101
     5.6428   8.7177   8.8469   8.8784  10.6846

     occupation numbers 
     1.0000   1.0000   1.0000   1.0000   1.0000   1.0000   1.0000   1.0000
     1.0000   1.0000   1.0000   1.0000   1.0000   1.0000   1.0000   1.0000
     1.0000  -0.0000  -0.0000  -0.0000  -0.0000

          k = 0.1997-0.3435 0.2708 (  5416 PWs)   bands (ev):

   -49.8677 -26.2114 -25.7864 -25.7304 -11.9973  -9.3063  -8.9046   1.0394
     1.6053   1.8210   2.2873   2.7808   2.9770   3.4706   3.6489   4.1620
     5.9205   8.0339   8.0362   8.7820  10.5252

     occupation numbers 
     1.0000   1.0000   1.0000   1.0000   1.0000   1.0000   1.0000   1.0000
     1.0000   1.0000   1.0000   1.0000   1.0000   1.0000   1.0000   1.0000
     1.0000  -0.0000  -0.0000  -0.0000  -0.0000

          k = 0.3993-0.1717 0.2708 (  5416 PWs)   bands (ev):

   -49.8650 -26.1605 -25.7860 -25.7786 -12.2844  -9.2244  -8.8817   1.1689
     1.9888   2.2265   2.4597   2.6310   3.1426   3.3297   3.8213   4.0652
     6.5137   7.1942   7.4033   8.8065  10.2737

     occupation numbers 
[...]

   -49.8700 -26.1665 -25.7918 -25.7112 -12.3234  -9.3159  -9.0033   1.1896
     2.2424   2.5475   2.6489   2.7557   3.2602   3.4980   3.9920   4.0045
     5.5865   7.4607   7.6271   8.9479  10.0697

     occupation numbers 
     1.0000   1.0000   1.0000   1.0000   1.0000   1.0000   1.0000   1.0000
     1.0000   1.0000   1.0000   1.0000   1.0000   1.0000   1.0000   1.0000
     1.0000  -0.0000  -0.0000  -0.0000  -0.0000

          k = 0.1997 0.0000 0.3791 (  5421 PWs)   bands (ev):

   -49.8689 -26.1469 -25.7888 -25.7326 -12.4279  -9.2926  -8.9857   1.2391
     2.1398   2.6333   2.7931   3.0647   3.3220   3.5788   3.8714   3.9042
     5.9259   7.0925   7.4165   8.7972   9.8942

     occupation numbers 
     1.0000   1.0000   1.0000   1.0000   1.0000   1.0000   1.0000   1.0000
     1.0000   1.0000   1.0000   1.0000   1.0000   1.0000   1.0000   1.0000
     1.0000  -0.0007  -0.0000  -0.0000  -0.0000

          k =-1.9966-0.3435-0.1083 (  5424 PWs)   bands (ev):

   -49.8691 -26.2131 -25.7901 -25.7097 -12.0071  -9.2366  -9.0435   1.2145
     1.6547   1.9017   2.3618   2.6806   3.0034   3.1687   3.8676   4.2737
     5.6177   8.0795   8.1190   8.9718  10.5883

     occupation numbers 
     1.0000   1.0000   1.0000   1.0000   1.0000   1.0000   1.0000   1.0000
     1.0000   1.0000   1.0000   1.0000   1.0000   1.0000   1.0000   1.0000
     1.0000  -0.0000  -0.0000  -0.0000  -0.0000

          k =-1.7969-0.1717-0.1083 (  5427 PWs)   bands (ev):

   -49.8686 -26.1649 -25.7882 -25.7320 -12.3123  -9.2404  -9.0252   1.3566
     1.9983   2.4557   2.5452   2.9318   3.0945   3.4859   3.7578   4.0291
     5.9426   7.3717   7.5821   8.8313  10.1930

     occupation numbers 
     1.0000   1.0000   1.0000   1.0000   1.0000   1.0000   1.0000   1.0000
     1.0000   1.0000   1.0000   1.0000   1.0000   1.0000   1.0000   1.0000
     1.0000  -0.0000  -0.0000  -0.0000  -0.0000

          k =-1.5973 0.0000-0.1083 (  5431 PWs)   bands (ev):

   -49.8653 -26.1427 -25.7866 -25.7792 -12.3990  -9.1802  -8.9471   1.3108
     1.7477   2.3124   2.6735   2.8572   3.5144   3.6451   3.7763   3.8634
     6.6000   6.8995   7.2253   8.6840   9.9333

     occupation numbers 
     1.0000   1.0000   1.0000   1.0000   1.0000   1.0000   1.0000   1.0000
     1.0000   1.0000   1.0000   1.0000   1.0000   1.0000   1.0000   1.0000
     0.8227  -0.0312  -0.0000  -0.0000  -0.0000

          k = 0.0000 1.2021-0.0542 (  5423 PWs)   bands (ev):

   -49.8681 -26.2696 -25.7879 -25.7078 -11.5827  -9.1692  -9.0592   0.4530
     1.2462   1.4277   2.3353   2.6888   2.6998   2.9337   3.8339   4.3481
     5.6526   8.7237   8.8591   8.9638  10.8881

     occupation numbers 
     1.0000   1.0000   1.0000   1.0000   1.0000   1.0000   1.0000   1.0000
     1.0000   1.0000   1.0000   1.0000   1.0000   1.0000   1.0000   1.0000
     1.0000  -0.0000  -0.0000  -0.0000  -0.0000

          k =-1.7969-0.3435-0.0542 (  5422 PWs)   bands (ev):

   -49.8677 -26.2114 -25.7864 -25.7304 -11.9964  -9.1634  -9.0609   1.3186
     1.7043   1.9018   2.0003   2.7127   2.9583   3.2678   3.5048   4.2880
     5.9689   8.0342   8.0372   8.8638  10.7045

     occupation numbers 
     1.0000   1.0000   1.0000   1.0000   1.0000   1.0000   1.0000   1.0000
     1.0000   1.0000   1.0000   1.0000   1.0000   1.0000   1.0000   1.0000
     1.0000  -0.0000  -0.0000  -0.0000  -0.0000

          k =-1.5973-0.1717-0.0542 (  5421 PWs)   bands (ev):

   -49.8650 -26.1605 -25.7860 -25.7786 -12.2838  -9.1503  -8.9617   1.3806
     1.6440   2.2766   2.4956   2.6133   3.2873   3.3316   3.6962   4.1008
     6.6198   7.1719   7.4155   8.6902  10.2077

     occupation numbers 
     1.0000   1.0000   1.0000   1.0000   1.0000   1.0000   1.0000   1.0000
     1.0000   1.0000   1.0000   1.0000   1.0000   1.0000   1.0000   1.0000
     0.7404  -0.0001  -0.0000  -0.0000  -0.0000

          k =-1.3976 0.0000-0.0542 (  5419 PWs)   bands (ev):

   -49.8608 -26.1374 -25.8527 -25.7674 -12.3635  -9.0962  -8.8348   1.1148
     1.2833   2.0541   2.5476   2.9641   3.6142   3.6338   3.7904   3.8739
     6.7336   6.9324   7.3795   8.8710   9.7880

     occupation numbers 
     1.0000   1.0000   1.0000   1.0000   1.0000   1.0000   1.0000   1.0000
     1.0000   1.0000   1.0000   1.0000   1.0000   1.0000   1.0000   1.0000
     0.1907  -0.0223  -0.0000  -0.0000  -0.0000

          k =-0.0000 1.0304-0.0000 (  5410 PWs)   bands (ev):

   -49.8672 -26.3146 -25.7862 -25.7063 -11.2035  -9.1876  -8.9969  -0.3847
     0.9822   1.1658   2.4664   2.5272   2.6850   2.7891   3.8672   4.2835
     5.6747   8.9261   9.3081   9.4379  10.9408

     occupation numbers 
     1.0000   1.0000   1.0000   1.0000   1.0000   1.0000   1.0000   1.0000
     1.0000   1.0000   1.0000   1.0000   1.0000   1.0000   1.0000   1.0000
     1.0000  -0.0000  -0.0000  -0.0000  -0.0000

          k = 0.1997 1.2021-0.0000 (  5432 PWs)   bands (ev):

   -49.8667 -26.2678 -25.7843 -25.7285 -11.5726  -9.1037  -9.0676   0.4628
     1.3862   1.3993   2.0363   2.4013   2.9638   3.1273   3.4048   4.3106
     5.9904   8.6405   8.7832   8.9224  11.0242

     occupation numbers 
     1.0000   1.0000   1.0000   1.0000   1.0000   1.0000   1.0000   1.0000
     1.0000   1.0000   1.0000   1.0000   1.0000   1.0000   1.0000   1.0000
     1.0000  -0.0000  -0.0000  -0.0000  -0.0000

          k =-1.5973-0.3435-0.0000 (  5423 PWs)   bands (ev):

   -49.8641 -26.2068 -25.7844 -25.7769 -11.9688  -9.0999  -8.9699   1.4131
     1.4333   1.8225   2.1025   2.1552   2.9347   3.1754   3.5216   4.2174
     6.6345   7.8388   7.9395   8.7400  10.7353

     occupation numbers 
     1.0000   1.0000   1.0000   1.0000   1.0000   1.0000   1.0000   1.0000
     1.0000   1.0000   1.0000   1.0000   1.0000   1.0000   1.0000   1.0000
     0.6722  -0.0000  -0.0000  -0.0000  -0.0000

          k =-1.3976-0.1717-0.0000 (  5411 PWs)   bands (ev):

   -49.8605 -26.1552 -25.8520 -25.7667 -12.2486  -9.0829  -8.8322   1.1284
     1.2946   1.9229   2.4731   2.7031   3.1972   3.4613   3.7400   4.0493
     6.9881   7.1866   7.3913   8.8767  10.0576

     occupation numbers 
     1.0000   1.0000   1.0000   1.0000   1.0000   1.0000   1.0000   1.0000
     1.0000   1.0000   1.0000   1.0000   1.0000   1.0000   1.0000   1.0000
    -0.0092  -0.0000  -0.0000  -0.0000  -0.0000

          k =-1.1980 0.0000-0.0000 (  5426 PWs)   bands (ev):

   -49.8572 -26.1332 -25.9055 -25.7577 -12.3348  -9.0248  -8.7451   0.8316
     1.0559   1.9919   2.3461   3.1162   3.4852   3.6393   3.7752   3.9451
     6.6677   6.6754   8.1257   9.3452   9.6643

     occupation numbers 
     1.0000   1.0000   1.0000   1.0000   1.0000   1.0000   1.0000   1.0000
     1.0000   1.0000   1.0000   1.0000   1.0000   1.0000   1.0000   1.0000
     0.5046   0.4647  -0.0000  -0.0000  -0.0000

          k = 0.0000 0.0000 0.4332 (  5427 PWs)   bands (ev):

   -49.8703 -26.1485 -25.7925 -25.7118 -12.4386  -9.2863  -9.0539   1.3247
     2.2663   2.6723   2.7595   3.3234   3.3265   3.3448   3.8262   4.0687
     5.5779   7.1798   7.5060   8.9889   9.8586

     occupation numbers 
     1.0000   1.0000   1.0000   1.0000   1.0000   1.0000   1.0000   1.0000
     1.0000   1.0000   1.0000   1.0000   1.0000   1.0000   1.0000   1.0000
     1.0000  -0.0000  -0.0000  -0.0000  -0.0000

          k =-1.9966-0.1717-0.0542 (  5435 PWs)   bands (ev):

   -49.8700 -26.1665 -25.7918 -25.7112 -12.3230  -9.2289  -9.0975   1.4076
     2.1631   2.5088   2.6316   2.6929   3.2370   3.4787   3.9578   3.9640
     5.5904   7.4606   7.6551   9.0084  10.1664

     occupation numbers 
     1.0000   1.0000   1.0000   1.0000   1.0000   1.0000   1.0000   1.0000
     1.0000   1.0000   1.0000   1.0000   1.0000   1.0000   1.0000   1.0000
     1.0000  -0.0000  -0.0000  -0.0000  -0.0000

          k =-1.7969 0.0000-0.0542 (  5430 PWs)   bands (ev):

   -49.8689 -26.1469 -25.7888 -25.7326 -12.4275  -9.2216  -9.0627   1.4854
     1.8951   2.6913   2.7798   3.0106   3.4217   3.5537   3.7693   3.8599
     5.9419   7.0892   7.4435   8.8416   9.9249

     occupation numbers 
     1.0000   1.0000   1.0000   1.0000   1.0000   1.0000   1.0000   1.0000
     1.0000   1.0000   1.0000   1.0000   1.0000   1.0000   1.0000   1.0000
     1.0000  -0.0008  -0.0000  -0.0000  -0.0000

          k = 0.0000 1.3738 0.0000 (  5420 PWs)   bands (ev):

   -49.8691 -26.2131 -25.7901 -25.7097 -12.0070  -9.1529  -9.1305   1.2867
     1.7134   1.9110   2.2364   2.7009   2.9984   3.1053   3.8407   4.2971
     5.6209   8.0871   8.1189   8.9989  10.6449

     occupation numbers 
     1.0000   1.0000   1.0000   1.0000   1.0000   1.0000   1.0000   1.0000
     1.0000   1.0000   1.0000   1.0000   1.0000   1.0000   1.0000   1.0000
     1.0000  -0.0000  -0.0000  -0.0000  -0.0000

          k =-1.7969-0.1717 0.0000 (  5442 PWs)   bands (ev):

   -49.8686 -26.1649 -25.7882 -25.7320 -12.3121  -9.1882  -9.0804   1.5153
     1.8493   2.4903   2.5207   2.9559   3.0583   3.4751   3.7324   4.0201
     5.9517   7.3707   7.5913   8.8542  10.2143

     occupation numbers 
     1.0000   1.0000   1.0000   1.0000   1.0000   1.0000   1.0000   1.0000
     1.0000   1.0000   1.0000   1.0000   1.0000   1.0000   1.0000   1.0000
     1.0000  -0.0000  -0.0000  -0.0000  -0.0000

          k =-1.5973 0.0000 0.0000 (  5430 PWs)   bands (ev):

   -49.8653 -26.1427 -25.7866 -25.7793 -12.3988  -9.1607  -8.9678   1.3966
     1.6303   2.3389   2.6655   2.8486   3.5903   3.6806   3.7082   3.8407
     6.6219   6.8923   7.2303   8.6652   9.9136

     occupation numbers 
     1.0000   1.0000   1.0000   1.0000   1.0000   1.0000   1.0000   1.0000
     1.0000   1.0000   1.0000   1.0000   1.0000   1.0000   1.0000   1.0000
     0.7310  -0.0328  -0.0000  -0.0000  -0.0000

          k =-1.9966-1.7173-0.5415 (  5430 PWs)   bands (ev):

   -49.8703 -26.1485 -25.7925 -25.7118 -12.4384  -9.2220  -9.1222   1.4815
     2.1146   2.6982   2.7541   3.3042   3.3092   3.3848   3.7623   4.0477
     5.5780   7.1799   7.5248   9.0224   9.9001

     occupation numbers 
     1.0000   1.0000   1.0000   1.0000   1.0000   1.0000   1.0000   1.0000
     1.0000   1.0000   1.0000   1.0000   1.0000   1.0000   1.0000   1.0000
     1.0000  -0.0000  -0.0000  -0.0000  -0.0000

     the Fermi energy is     6.6685 ev

!    total energy              =    -534.96580559 Ry

     total all-electron energy =     -9636.856048 Ry
     estimated scf accuracy    <          2.9E-11 Ry
     smearing contrib. (-TS)   =      -0.00010205 Ry
     internal energy E=F+TS    =    -534.96570354 Ry

     The total energy is F=E-TS. E is the sum of the following terms:
     one-electron contribution =     -93.92658864 Ry
     hartree contribution      =      61.19756230 Ry
     xc contribution           =     -39.53679060 Ry
     ewald contribution        =    -135.48921389 Ry
     one-center paw contrib.   =    -327.21067270 Ry
      -> PAW hartree energy AE =      29.11827052 Ry
      -> PAW hartree energy PS =     -29.08818853 Ry
      -> PAW xc energy AE      =     -17.04228226 Ry
      -> PAW xc energy PS      =       7.41809177 Ry
      -> total E_H with PAW    =      61.22764429 Ry
      -> total E_XC with PAW   =     -49.16098109 Ry

     convergence has been achieved in  13 iterations

     Forces acting on atoms (cartesian axes, Ry/au):

     atom    1 type  1   force =    -0.00000000   -0.00000000    0.00000000
     atom    2 type  2   force =     0.00000000    0.00000000    0.03576631
     atom    3 type  2   force =     0.00000000    0.00000000   -0.03576631
     atom    4 type  3   force =     0.00000000    0.00000000    0.00000000
     The non-local contrib.  to forces
     atom    1 type  1   force =     0.00000000    0.00000000    0.00000000
     atom    2 type  2   force =     0.00000000    0.00000000    0.07688422
     atom    3 type  2   force =     0.00000000    0.00000000   -0.07688422
     atom    4 type  3   force =    -0.00000000   -0.00000000    0.00000000
     The ionic contribution  to forces
     atom    1 type  1   force =    -0.00000000   -0.00000000    0.00000000
     atom    2 type  2   force =     0.00000001    0.00000000  -10.07462875
     atom    3 type  2   force =    -0.00000001   -0.00000000   10.07462875
     atom    4 type  3   force =    -0.00000000   -0.00000000    0.00000000
     The local contribution  to forces
     atom    1 type  1   force =     0.00000000    0.00000000    0.00000000
     atom    2 type  2   force =     0.00000002   -0.00000003   10.03220636
     atom    3 type  2   force =    -0.00000002    0.00000003  -10.03220636
     atom    4 type  3   force =    -0.00000000    0.00000000    0.00000000
     The core correction contribution to forces
     atom    1 type  1   force =     0.00000000    0.00000000    0.00000000
     atom    2 type  2   force =    -0.00000000    0.00000000    0.00130263
     atom    3 type  2   force =     0.00000000   -0.00000000   -0.00130263
     atom    4 type  3   force =     0.00000000    0.00000000    0.00000000
     The Hubbard contrib.    to forces
     atom    1 type  1   force =     0.00000000    0.00000000    0.00000000
     atom    2 type  2   force =     0.00000000    0.00000000    0.00000000
     atom    3 type  2   force =     0.00000000    0.00000000    0.00000000
     atom    4 type  3   force =     0.00000000    0.00000000    0.00000000
     The SCF correction term to forces
     atom    1 type  1   force =     0.00000000    0.00000000   -0.00000000
     atom    2 type  2   force =    -0.00000000    0.00000000    0.00000185
     atom    3 type  2   force =     0.00000000   -0.00000000   -0.00000185
     atom    4 type  3   force =     0.00000000    0.00000000   -0.00000000

     Total force =     0.050581     Total SCF correction =     0.000003


     Computing stress (Cartesian axis) and pressure

          total   stress  (Ry/bohr**3)                   (kbar)     P=      -39.57
  -0.00028449  -0.00000000   0.00000000          -41.85       -0.00        0.00
   0.00000000  -0.00026155  -0.00000000            0.00      -38.48       -0.00
   0.00000000  -0.00000000  -0.00026089            0.00       -0.00      -38.38

     kinetic stress (kbar)  14779.07      0.00      0.00
                               -0.00  14772.84      0.00
                               -0.00      0.00  14794.35

     local   stress (kbar) -18929.30      0.00      0.00
                                0.00 -24136.16      0.00
                                0.00      0.00   4069.63

     nonloc. stress (kbar)   8008.48      0.00      0.00
                                0.00   7932.11      0.00
                                0.00      0.00   8006.73

     hartree stress (kbar)   8385.34     -0.00     -0.00
                               -0.00  10085.08      0.00
                               -0.00      0.00  -2040.49

     exc-cor stress (kbar)  -1130.80      0.00     -0.00
                                0.00  -1122.11     -0.00
                               -0.00     -0.00  -1130.37

     corecor stress (kbar)  -2029.51     -0.00      0.00
                               -0.00  -2028.79      0.00
                                0.00      0.00  -2029.52

     ewald   stress (kbar)  -9125.13      0.00     -0.00
                                0.00  -5541.44     -0.00
                               -0.00     -0.00 -21708.70

     hubbard stress (kbar)      0.00      0.00      0.00
                                0.00      0.00      0.00
                                0.00      0.00      0.00

     DFT-D   stress (kbar)      0.00      0.00      0.00
                                0.00      0.00      0.00
                                0.00      0.00      0.00

     XDM     stress (kbar)      0.00      0.00      0.00
                                0.00      0.00      0.00
                                0.00      0.00      0.00

     dft-nl  stress (kbar)      0.00      0.00      0.00
                                0.00      0.00      0.00
                                0.00      0.00      0.00

     TS-vdW  stress (kbar)      0.00      0.00      0.00
                                0.00      0.00      0.00
                                0.00      0.00      0.00



     Writing output data file /zfs_data/gutierre/Scratch/Cl2NbO/convergence/cutoff/10x10x10/70/tmp/Cl2NbO.save/
 
     init_run     :      2.51s CPU      2.60s WALL (       1 calls)
     electrons    :     66.27s CPU     68.44s WALL (       1 calls)
     forces       :      0.42s CPU      0.42s WALL (       1 calls)
     stress       :      0.97s CPU      0.98s WALL (       1 calls)

     Called by init_run:
     wfcinit      :      1.96s CPU      2.03s WALL (       1 calls)
     wfcinit:atom :      0.01s CPU      0.01s WALL (     171 calls)
     wfcinit:wfcr :      1.90s CPU      1.96s WALL (     171 calls)
     potinit      :      0.19s CPU      0.20s WALL (       1 calls)
     hinit0       :      0.24s CPU      0.25s WALL (       1 calls)

     Called by electrons:
     c_bands      :     53.26s CPU     55.05s WALL (      13 calls)
     sum_band     :     11.31s CPU     11.65s WALL (      13 calls)
     v_of_rho     :      0.50s CPU      0.51s WALL (      14 calls)
     v_h          :      0.04s CPU      0.04s WALL (      14 calls)
     v_xc         :      0.52s CPU      0.53s WALL (      16 calls)
     newd         :      0.46s CPU      0.47s WALL (      14 calls)
     PAW_pot      :      0.72s CPU      0.74s WALL (      14 calls)
     mix_rho      :      0.07s CPU      0.07s WALL (      13 calls)

     Called by c_bands:
     init_us_2    :      0.54s CPU      0.56s WALL (    4959 calls)
     cegterg      :     51.81s CPU     53.51s WALL (    2223 calls)

     Called by sum_band:
     sum_band:wei :      0.08s CPU      0.08s WALL (      13 calls)
     sum_band:loo :     10.71s CPU     11.04s WALL (      13 calls)
     sum_band:buf :      0.05s CPU      0.05s WALL (    2223 calls)
     sum_band:ini :      0.24s CPU      0.25s WALL (    2223 calls)
     sum_band:cal :      0.29s CPU      0.30s WALL (    2223 calls)
     sum_band:bec :      0.05s CPU      0.05s WALL (    2223 calls)
     addusdens    :      0.46s CPU      0.47s WALL (      13 calls)
     addusd:skk   :      0.00s CPU      0.00s WALL (      39 calls)
     addusd:dgemm :      0.14s CPU      0.15s WALL (      39 calls)
     addusd:qvan2 :      0.30s CPU      0.30s WALL (      39 calls)

     Called by *egterg:
     cdiaghg      :      4.30s CPU      4.53s WALL (    7948 calls)
     cegterg:over :      0.69s CPU      0.72s WALL (    5725 calls)
     cegterg:upda :      0.21s CPU      0.22s WALL (    5725 calls)
     cegterg:last :      0.34s CPU      0.35s WALL (    4352 calls)
     h_psi        :     46.92s CPU     48.39s WALL (    8119 calls)
     s_psi        :      0.27s CPU      0.28s WALL (    8119 calls)
     g_psi        :      0.05s CPU      0.06s WALL (    5725 calls)

     Called by h_psi:
     h_psi:calbec :      0.94s CPU      0.97s WALL (    8119 calls)
     vloc_psi     :     45.44s CPU     46.86s WALL (    8119 calls)
     add_vuspsi   :      0.39s CPU      0.41s WALL (    8119 calls)

     General routines
     calbec       :      1.24s CPU      1.28s WALL (   11197 calls)
     fft          :      0.35s CPU      0.36s WALL (     205 calls)
     ffts         :      0.01s CPU      0.01s WALL (      27 calls)
     fftw         :     50.66s CPU     52.25s WALL (  280273 calls)
     interpolate  :      0.03s CPU      0.03s WALL (      14 calls)
 
     Parallel routines
     fft_scatt_xy :      5.85s CPU      6.01s WALL (  280505 calls)
     fft_scatt_yz :     25.65s CPU     26.44s WALL (  280505 calls)

     PAW routines
     PAW_pot      :      0.72s CPU      0.74s WALL (      14 calls)
     PAW_symme    :      0.01s CPU      0.01s WALL (      27 calls)
 
     PWSCF        :   1m11.25s CPU   1m14.44s WALL

 
   This run was terminated on:  15:55:20  18May2022            

=------------------------------------------------------------------------------=
   JOB DONE.
=------------------------------------------------------------------------------=
