
     Program PWSCF v.6.7MaX starts on 18May2022 at 15:54: 6 

     This program is part of the open-source Quantum ESPRESSO suite
     for quantum simulation of materials; please cite
         "P. Giannozzi et al., J. Phys.:Condens. Matter 21 395502 (2009);
         "P. Giannozzi et al., J. Phys.:Condens. Matter 29 465901 (2017);
          URL http://www.quantum-espresso.org", 
     in publications or presentations arising from this work. More details at
     http://www.quantum-espresso.org/quote

     Parallel version (MPI), running on    48 processors

     MPI processes distributed on     1 nodes
     R & G space division:  proc/nbgrp/npool/nimage =      48
     Waiting for input...
     Reading input from standard input

     Current dimensions of program PWSCF are:
     Max number of different atomic species (ntypx) = 10
     Max number of k-points (npk) =  40000
     Max angular momentum in pseudopotentials (lmaxx) =  3
     file O.pbe-nl-kjpaw_psl.1.0.0.UPF: wavefunction(s)  2S 2P renormalized
     file Cl.pbe-nl-kjpaw_psl.1.0.0.UPF: wavefunction(s)  3S renormalized
     file Nb.pbe-spn-kjpaw_psl.1.0.0.UPF: wavefunction(s)  4S 4P 4D renormalized

     Subspace diagonalization in iterative solution of the eigenvalue problem:
     a serial algorithm will be used

     Message from routine setup:
     using ibrav=0 with symmetry is DISCOURAGED, use correct ibrav instead
 
     Parallelization info
     --------------------
     sticks:   dense  smooth     PW     G-vecs:    dense   smooth      PW
     Min          94      37     13                 2156      543     113
     Max          95      38     14                 2157      546     114
     Sum        4529    1805    631               103495    26127    5459
 


     bravais-lattice index     =            0
     lattice parameter (alat)  =      12.6717  a.u.
     unit-cell volume          =     547.9313 (a.u.)^3
     number of atoms/cell      =            4
     number of atomic types    =            3
     number of electrons       =        33.00
     number of Kohn-Sham states=           21
     kinetic-energy cutoff     =      50.0000  Ry
     charge density cutoff     =     500.0000  Ry
     scf convergence threshold =      1.0E-10
     mixing beta               =       0.7000
     number of iterations used =            8  plain     mixing
     Exchange-correlation= SLA  PW   PBX  PBC
                           (   1   4   3   4   0   0   0)

     celldm(1)=  12.671676  celldm(2)=   0.000000  celldm(3)=   0.000000
     celldm(4)=   0.000000  celldm(5)=   0.000000  celldm(6)=   0.000000

     crystal axes: (cart. coord. in units of alat)
               a(1) = (  -0.250426   0.291161   0.923316 )  
               a(2) = (   0.250426  -0.291161   0.923316 )  
               a(3) = (   0.250426   0.291161  -0.923316 )  

     reciprocal axes: (cart. coord. in units 2 pi/alat)
               b(1) = (  0.000000  1.717261  0.541527 )  
               b(2) = (  1.996594  0.000000  0.541527 )  
               b(3) = (  1.996594  1.717261  0.000000 )  


     PseudoPot. # 1 for O  read from file:
     /zfs_data/gutierre/Scratch/Cl2NbO/convergence/cutoff/8x8x8/50/pseudo/O.pbe-nl-kjpaw_psl.1.0.0.UPF
     MD5 check sum: df3ddea38124b4e5de5e1084591730e4
     Pseudo is Projector augmented-wave + core cor, Zval =  6.0
     Generated using 'atomic' code by A. Dal Corso  v.6.7MaX
     Shape of augmentation charge: PSQ
     Using radial grid of 1095 points,  4 beta functions with: 
                l(1) =   0
                l(2) =   0
                l(3) =   1
                l(4) =   1
     Q(r) pseudized with 0 coefficients 


     PseudoPot. # 2 for Cl read from file:
     /zfs_data/gutierre/Scratch/Cl2NbO/convergence/cutoff/8x8x8/50/pseudo/Cl.pbe-nl-kjpaw_psl.1.0.0.UPF
     MD5 check sum: 8cf6bde52c08f6236e0f72a8870677af
     Pseudo is Projector augmented-wave + core cor, Zval =  7.0
     Generated using 'atomic' code by A. Dal Corso  v.6.7MaX
     Shape of augmentation charge: PSQ
     Using radial grid of 1157 points,  4 beta functions with: 
                l(1) =   0
                l(2) =   0
                l(3) =   1
                l(4) =   1
     Q(r) pseudized with 0 coefficients 


     PseudoPot. # 3 for Nb read from file:
     /zfs_data/gutierre/Scratch/Cl2NbO/convergence/cutoff/8x8x8/50/pseudo/Nb.pbe-spn-kjpaw_psl.1.0.0.UPF
     MD5 check sum: 1ec1a3aa7bf3cbf7f7e0d720422bce7a
     Pseudo is Projector augmented-wave + core cor, Zval = 13.0
     Generated using 'atomic' code by A. Dal Corso  v.6.7MaX
     Shape of augmentation charge: PSQ
     Using radial grid of 1227 points,  6 beta functions with: 
                l(1) =   0
                l(2) =   0
                l(3) =   1
                l(4) =   1
                l(5) =   2
                l(6) =   2
     Q(r) pseudized with 0 coefficients 


     atomic species   valence    mass     pseudopotential
        O              6.00    15.99940     O ( 1.00)
        Cl             7.00    35.45150     Cl( 1.00)
        Nb            13.00    92.90637     Nb( 1.00)

      8 Sym. Ops., with inversion, found


                                    s                        frac. trans.

      isym =  1     identity                                     

 cryst.   s( 1) = (     1          0          0      )
                  (     0          1          0      )
                  (     0          0          1      )

 cart.    s( 1) = (  1.0000000  0.0000000  0.0000000 )
                  (  0.0000000  1.0000000  0.0000000 )
                  (  0.0000000  0.0000000  1.0000000 )


      isym =  2     180 deg rotation - cart. axis [0,0,1]        

 cryst.   s( 2) = (     0          1          0      )
                  (     1          0          0      )
                  (    -1         -1         -1      )

 cart.    s( 2) = ( -1.0000000  0.0000000  0.0000000 )
                  (  0.0000000 -1.0000000  0.0000000 )
                  (  0.0000000  0.0000000  1.0000000 )


      isym =  3     180 deg rotation - cart. axis [0,1,0]        

 cryst.   s( 3) = (     0          0          1      )
                  (    -1         -1         -1      )
                  (     1          0          0      )

 cart.    s( 3) = ( -1.0000000  0.0000000  0.0000000 )
                  (  0.0000000  1.0000000  0.0000000 )
                  (  0.0000000  0.0000000 -1.0000000 )


      isym =  4     180 deg rotation - cart. axis [1,0,0]        

 cryst.   s( 4) = (    -1         -1         -1      )
                  (     0          0          1      )
                  (     0          1          0      )

 cart.    s( 4) = (  1.0000000  0.0000000  0.0000000 )
                  (  0.0000000 -1.0000000  0.0000000 )
                  (  0.0000000  0.0000000 -1.0000000 )


      isym =  5     inversion                                    

 cryst.   s( 5) = (    -1          0          0      )
                  (     0         -1          0      )
                  (     0          0         -1      )

 cart.    s( 5) = ( -1.0000000  0.0000000  0.0000000 )
                  (  0.0000000 -1.0000000  0.0000000 )
                  (  0.0000000  0.0000000 -1.0000000 )


      isym =  6     inv. 180 deg rotation - cart. axis [0,0,1]   

 cryst.   s( 6) = (     0         -1          0      )
                  (    -1          0          0      )
                  (     1          1          1      )

 cart.    s( 6) = (  1.0000000  0.0000000  0.0000000 )
                  (  0.0000000  1.0000000  0.0000000 )
                  (  0.0000000  0.0000000 -1.0000000 )


      isym =  7     inv. 180 deg rotation - cart. axis [0,1,0]   

 cryst.   s( 7) = (     0          0         -1      )
                  (     1          1          1      )
                  (    -1          0          0      )

 cart.    s( 7) = (  1.0000000  0.0000000  0.0000000 )
                  (  0.0000000 -1.0000000  0.0000000 )
                  (  0.0000000  0.0000000  1.0000000 )


      isym =  8     inv. 180 deg rotation - cart. axis [1,0,0]   

 cryst.   s( 8) = (     1          1          1      )
                  (     0          0         -1      )
                  (     0         -1          0      )

 cart.    s( 8) = ( -1.0000000  0.0000000  0.0000000 )
                  (  0.0000000  1.0000000  0.0000000 )
                  (  0.0000000  0.0000000  1.0000000 )


   Cartesian axes

     site n.     atom                  positions (alat units)
         1           O   tau(   1) = (   0.0000000   0.2911613   0.0000000  )
         2           Cl  tau(   2) = (  -0.0000000   0.2911613   0.6365338  )
         3           Cl  tau(   3) = (   0.2504264  -0.0000000   0.2867819  )
         4           Nb  tau(   4) = (   0.0000000   0.0000000   0.0000000  )

   Crystallographic axes

     site n.     atom                  positions (cryst. coord.)
         1           O   tau(   1) = (  0.5000000  0.0000000  0.5000000  )
         2           Cl  tau(   2) = (  0.8447000  0.3447000  0.5000000  )
         3           Cl  tau(   3) = (  0.1553000  0.6553000  0.5000000  )
         4           Nb  tau(   4) = (  0.0000000  0.0000000  0.0000000  )

     number of k points=    95  Methfessel-Paxton smearing, width (Ry)=  0.0120
                       cart. coord. in units 2pi/alat
        k(    1) = (   0.0000000   0.0000000   0.0000000), wk =   0.0039062
        k(    2) = (   0.2495743   0.2146577   0.0000000), wk =   0.0156250
        k(    3) = (   0.4991486   0.4293153   0.0000000), wk =   0.0156250
        k(    4) = (   0.7487229   0.6439730   0.0000000), wk =   0.0156250
        k(    5) = (  -0.9982971  -0.8586307   0.0000000), wk =   0.0078125
        k(    6) = (   0.2495743   0.0000000   0.0676908), wk =   0.0156250
        k(    7) = (   0.4991486   0.2146577   0.0676908), wk =   0.0312500
        k(    8) = (   0.7487229   0.4293153   0.0676908), wk =   0.0312500
        k(    9) = (   0.9982971   0.6439730   0.0676908), wk =   0.0312500
        k(   10) = (  -0.7487229  -0.8586307   0.0676908), wk =   0.0312500
        k(   11) = (  -0.4991486  -0.6439730   0.0676908), wk =   0.0312500
        k(   12) = (  -0.2495743  -0.4293153   0.0676908), wk =   0.0312500
        k(   13) = (   0.0000000  -0.2146577   0.0676908), wk =   0.0156250
        k(   14) = (   0.4991486   0.0000000   0.1353817), wk =   0.0156250
        k(   15) = (   0.7487229   0.2146577   0.1353817), wk =   0.0312500
        k(   16) = (   0.9982971   0.4293153   0.1353817), wk =   0.0312500
        k(   17) = (   1.2478714   0.6439730   0.1353817), wk =   0.0312500
        k(   18) = (  -0.4991486  -0.8586307   0.1353817), wk =   0.0312500
        k(   19) = (  -0.2495743  -0.6439730   0.1353817), wk =   0.0312500
        k(   20) = (   0.0000000  -0.4293153   0.1353817), wk =   0.0156250
        k(   21) = (   0.2495743  -0.2146577   0.1353817), wk =   0.0312500
        k(   22) = (   0.7487229   0.0000000   0.2030725), wk =   0.0156250
        k(   23) = (   0.9982971   0.2146577   0.2030725), wk =   0.0312500
        k(   24) = (   1.2478714   0.4293153   0.2030725), wk =   0.0312500
        k(   25) = (   1.4974457   0.6439730   0.2030725), wk =   0.0312500
        k(   26) = (  -0.2495743  -0.8586307   0.2030725), wk =   0.0312500
        k(   27) = (   0.0000000  -0.6439730   0.2030725), wk =   0.0156250
        k(   28) = (   0.2495743  -0.4293153   0.2030725), wk =   0.0312500
        k(   29) = (   0.4991486  -0.2146577   0.2030725), wk =   0.0312500
        k(   30) = (  -0.9982971   0.0000000  -0.2707633), wk =   0.0078125
        k(   31) = (  -0.7487229   0.2146577  -0.2707633), wk =   0.0312500
        k(   32) = (  -0.4991486   0.4293153  -0.2707633), wk =   0.0312500
        k(   33) = (  -0.2495743   0.6439730  -0.2707633), wk =   0.0312500
        k(   34) = (  -1.9965943  -0.8586307  -0.2707633), wk =   0.0078125
        k(   35) = (   0.4991486   0.4293153   0.1353817), wk =   0.0312500
        k(   36) = (   0.7487229   0.6439730   0.1353817), wk =   0.0312500
        k(   37) = (   0.9982971   0.8586307   0.1353817), wk =   0.0156250
        k(   38) = (   0.0000000   0.0000000   0.1353817), wk =   0.0078125
        k(   39) = (   0.7487229   0.4293153   0.2030725), wk =   0.0312500
        k(   40) = (   0.9982971   0.6439730   0.2030725), wk =   0.0312500
        k(   41) = (   1.2478714   0.8586307   0.2030725), wk =   0.0312500
        k(   42) = (  -0.4991486  -0.6439730   0.2030725), wk =   0.0312500
        k(   43) = (   0.0000000  -0.2146577   0.2030725), wk =   0.0156250
        k(   44) = (   0.2495743   0.0000000   0.2030725), wk =   0.0156250
        k(   45) = (   0.9982971   0.4293153   0.2707633), wk =   0.0156250
        k(   46) = (   1.2478714   0.6439730   0.2707633), wk =   0.0312500
        k(   47) = (   1.4974457   0.8586307   0.2707633), wk =   0.0156250
        k(   48) = (   0.0000000  -0.4293153   0.2707633), wk =   0.0156250
        k(   49) = (   0.2495743  -0.2146577   0.2707633), wk =   0.0312500
        k(   50) = (   0.4991486   0.0000000   0.2707633), wk =   0.0156250
        k(   51) = (  -1.9965943  -0.6439730  -0.2030725), wk =   0.0156250
        k(   52) = (  -1.7470200  -0.4293153  -0.2030725), wk =   0.0312500
        k(   53) = (  -1.4974457  -0.2146577  -0.2030725), wk =   0.0312500
        k(   54) = (  -1.2478714   0.0000000  -0.2030725), wk =   0.0156250
        k(   55) = (   0.0000000   0.8586307  -0.1353817), wk =   0.0156250
        k(   56) = (  -1.7470200  -0.6439730  -0.1353817), wk =   0.0312500
        k(   57) = (  -1.4974457  -0.4293153  -0.1353817), wk =   0.0312500
        k(   58) = (  -1.2478714  -0.2146577  -0.1353817), wk =   0.0312500
        k(   59) = (  -0.9982971   0.0000000  -0.1353817), wk =   0.0156250
        k(   60) = (   0.0000000   0.6439730  -0.0676908), wk =   0.0156250
        k(   61) = (   0.2495743   0.8586307  -0.0676908), wk =   0.0312500
        k(   62) = (  -1.4974457  -0.6439730  -0.0676908), wk =   0.0312500
        k(   63) = (  -1.2478714  -0.4293153  -0.0676908), wk =   0.0312500
        k(   64) = (  -0.9982971  -0.2146577  -0.0676908), wk =   0.0312500
        k(   65) = (  -0.7487229   0.0000000  -0.0676908), wk =   0.0156250
        k(   66) = (   0.0000000   0.4293153   0.0000000), wk =   0.0078125
        k(   67) = (   0.2495743   0.6439730   0.0000000), wk =   0.0156250
        k(   68) = (   0.4991486   0.8586307   0.0000000), wk =   0.0156250
        k(   69) = (  -1.2478714  -0.6439730   0.0000000), wk =   0.0156250
        k(   70) = (  -0.9982971  -0.4293153   0.0000000), wk =   0.0156250
        k(   71) = (  -0.7487229  -0.2146577   0.0000000), wk =   0.0156250
        k(   72) = (  -0.4991486   0.0000000   0.0000000), wk =   0.0078125
        k(   73) = (   0.9982971   0.8586307   0.2707633), wk =   0.0078125
        k(   74) = (   0.0000000   0.0000000   0.2707633), wk =   0.0078125
        k(   75) = (   0.0000000  -0.2146577   0.3384542), wk =   0.0156250
        k(   76) = (   0.2495743   0.0000000   0.3384542), wk =   0.0156250
        k(   77) = (  -1.9965943  -0.4293153  -0.1353817), wk =   0.0156250
        k(   78) = (  -1.7470200  -0.2146577  -0.1353817), wk =   0.0312500
        k(   79) = (  -1.4974457   0.0000000  -0.1353817), wk =   0.0156250
        k(   80) = (   0.0000000   1.0732883  -0.0676908), wk =   0.0156250
        k(   81) = (  -1.7470200  -0.4293153  -0.0676908), wk =   0.0312500
        k(   82) = (  -1.4974457  -0.2146577  -0.0676908), wk =   0.0312500
        k(   83) = (  -1.2478714   0.0000000  -0.0676908), wk =   0.0156250
        k(   84) = (   0.0000000   0.8586307   0.0000000), wk =   0.0078125
        k(   85) = (   0.2495743   1.0732883   0.0000000), wk =   0.0156250
        k(   86) = (  -1.4974457  -0.4293153   0.0000000), wk =   0.0156250
        k(   87) = (  -1.2478714  -0.2146577   0.0000000), wk =   0.0156250
        k(   88) = (  -0.9982971   0.0000000   0.0000000), wk =   0.0078125
        k(   89) = (   0.0000000   0.0000000   0.4061450), wk =   0.0078125
        k(   90) = (  -1.9965943  -0.2146577  -0.0676908), wk =   0.0156250
        k(   91) = (  -1.7470200   0.0000000  -0.0676908), wk =   0.0156250
        k(   92) = (   0.0000000   1.2879460   0.0000000), wk =   0.0078125
        k(   93) = (  -1.7470200  -0.2146577   0.0000000), wk =   0.0156250
        k(   94) = (  -1.4974457   0.0000000   0.0000000), wk =   0.0078125
        k(   95) = (  -1.9965943  -1.7172613  -0.5415266), wk =   0.0039062

                       cryst. coord.
        k(    1) = (   0.0000000   0.0000000   0.0000000), wk =   0.0039062
        k(    2) = (   0.0000000   0.0000000   0.1250000), wk =   0.0156250
        k(    3) = (   0.0000000   0.0000000   0.2500000), wk =   0.0156250
        k(    4) = (  -0.0000000   0.0000000   0.3750000), wk =   0.0156250
        k(    5) = (   0.0000000   0.0000000  -0.5000000), wk =   0.0078125
        k(    6) = (   0.0000000   0.1250000   0.0000000), wk =   0.0156250
        k(    7) = (   0.0000000   0.1250000   0.1250000), wk =   0.0312500
        k(    8) = (   0.0000000   0.1250000   0.2500000), wk =   0.0312500
        k(    9) = (  -0.0000000   0.1250000   0.3750000), wk =   0.0312500
        k(   10) = (   0.0000000   0.1250000  -0.5000000), wk =   0.0312500
        k(   11) = (   0.0000000   0.1250000  -0.3750000), wk =   0.0312500
        k(   12) = (   0.0000000   0.1250000  -0.2500000), wk =   0.0312500
        k(   13) = (   0.0000000   0.1250000  -0.1250000), wk =   0.0156250
        k(   14) = (   0.0000000   0.2500000   0.0000000), wk =   0.0156250
        k(   15) = (   0.0000000   0.2500000   0.1250000), wk =   0.0312500
        k(   16) = (   0.0000000   0.2500000   0.2500000), wk =   0.0312500
        k(   17) = (  -0.0000000   0.2500000   0.3750000), wk =   0.0312500
        k(   18) = (   0.0000000   0.2500000  -0.5000000), wk =   0.0312500
        k(   19) = (   0.0000000   0.2500000  -0.3750000), wk =   0.0312500
        k(   20) = (   0.0000000   0.2500000  -0.2500000), wk =   0.0156250
        k(   21) = (   0.0000000   0.2500000  -0.1250000), wk =   0.0312500
        k(   22) = (   0.0000000   0.3750000   0.0000000), wk =   0.0156250
        k(   23) = (   0.0000000   0.3750000   0.1250000), wk =   0.0312500
        k(   24) = (  -0.0000000   0.3750000   0.2500000), wk =   0.0312500
        k(   25) = (  -0.0000000   0.3750000   0.3750000), wk =   0.0312500
        k(   26) = (   0.0000000   0.3750000  -0.5000000), wk =   0.0312500
        k(   27) = (   0.0000000   0.3750000  -0.3750000), wk =   0.0156250
        k(   28) = (   0.0000000   0.3750000  -0.2500000), wk =   0.0312500
        k(   29) = (   0.0000000   0.3750000  -0.1250000), wk =   0.0312500
        k(   30) = (   0.0000000  -0.5000000   0.0000000), wk =   0.0078125
        k(   31) = (   0.0000000  -0.5000000   0.1250000), wk =   0.0312500
        k(   32) = (   0.0000000  -0.5000000   0.2500000), wk =   0.0312500
        k(   33) = (   0.0000000  -0.5000000   0.3750000), wk =   0.0312500
        k(   34) = (   0.0000000  -0.5000000  -0.5000000), wk =   0.0078125
        k(   35) = (   0.1250000   0.1250000   0.1250000), wk =   0.0312500
        k(   36) = (   0.1250000   0.1250000   0.2500000), wk =   0.0312500
        k(   37) = (   0.1250000   0.1250000   0.3750000), wk =   0.0156250
        k(   38) = (   0.1250000   0.1250000  -0.1250000), wk =   0.0078125
        k(   39) = (   0.1250000   0.2500000   0.1250000), wk =   0.0312500
        k(   40) = (   0.1250000   0.2500000   0.2500000), wk =   0.0312500
        k(   41) = (   0.1250000   0.2500000   0.3750000), wk =   0.0312500
        k(   42) = (   0.1250000   0.2500000  -0.5000000), wk =   0.0312500
        k(   43) = (   0.1250000   0.2500000  -0.2500000), wk =   0.0156250
        k(   44) = (   0.1250000   0.2500000  -0.1250000), wk =   0.0156250
        k(   45) = (   0.1250000   0.3750000   0.1250000), wk =   0.0156250
        k(   46) = (   0.1250000   0.3750000   0.2500000), wk =   0.0312500
        k(   47) = (   0.1250000   0.3750000   0.3750000), wk =   0.0156250
        k(   48) = (   0.1250000   0.3750000  -0.3750000), wk =   0.0156250
        k(   49) = (   0.1250000   0.3750000  -0.2500000), wk =   0.0312500
        k(   50) = (   0.1250000   0.3750000  -0.1250000), wk =   0.0156250
        k(   51) = (   0.1250000  -0.5000000  -0.5000000), wk =   0.0156250
        k(   52) = (   0.1250000  -0.5000000  -0.3750000), wk =   0.0312500
        k(   53) = (   0.1250000  -0.5000000  -0.2500000), wk =   0.0312500
        k(   54) = (   0.1250000  -0.5000000  -0.1250000), wk =   0.0156250
        k(   55) = (   0.1250000  -0.3750000   0.3750000), wk =   0.0156250
        k(   56) = (   0.1250000  -0.3750000  -0.5000000), wk =   0.0312500
        k(   57) = (   0.1250000  -0.3750000  -0.3750000), wk =   0.0312500
        k(   58) = (   0.1250000  -0.3750000  -0.2500000), wk =   0.0312500
        k(   59) = (   0.1250000  -0.3750000  -0.1250000), wk =   0.0156250
        k(   60) = (   0.1250000  -0.2500000   0.2500000), wk =   0.0156250
        k(   61) = (   0.1250000  -0.2500000   0.3750000), wk =   0.0312500
        k(   62) = (   0.1250000  -0.2500000  -0.5000000), wk =   0.0312500
        k(   63) = (   0.1250000  -0.2500000  -0.3750000), wk =   0.0312500
        k(   64) = (   0.1250000  -0.2500000  -0.2500000), wk =   0.0312500
        k(   65) = (   0.1250000  -0.2500000  -0.1250000), wk =   0.0156250
        k(   66) = (   0.1250000  -0.1250000   0.1250000), wk =   0.0078125
        k(   67) = (   0.1250000  -0.1250000   0.2500000), wk =   0.0156250
        k(   68) = (   0.1250000  -0.1250000   0.3750000), wk =   0.0156250
        k(   69) = (   0.1250000  -0.1250000  -0.5000000), wk =   0.0156250
        k(   70) = (   0.1250000  -0.1250000  -0.3750000), wk =   0.0156250
        k(   71) = (   0.1250000  -0.1250000  -0.2500000), wk =   0.0156250
        k(   72) = (   0.1250000  -0.1250000  -0.1250000), wk =   0.0078125
        k(   73) = (   0.2500000   0.2500000   0.2500000), wk =   0.0078125
        k(   74) = (   0.2500000   0.2500000  -0.2500000), wk =   0.0078125
        k(   75) = (   0.2500000   0.3750000  -0.3750000), wk =   0.0156250
        k(   76) = (   0.2500000   0.3750000  -0.2500000), wk =   0.0156250
        k(   77) = (   0.2500000  -0.5000000  -0.5000000), wk =   0.0156250
        k(   78) = (   0.2500000  -0.5000000  -0.3750000), wk =   0.0312500
        k(   79) = (   0.2500000  -0.5000000  -0.2500000), wk =   0.0156250
        k(   80) = (   0.2500000  -0.3750000   0.3750000), wk =   0.0156250
        k(   81) = (   0.2500000  -0.3750000  -0.5000000), wk =   0.0312500
        k(   82) = (   0.2500000  -0.3750000  -0.3750000), wk =   0.0312500
        k(   83) = (   0.2500000  -0.3750000  -0.2500000), wk =   0.0156250
        k(   84) = (   0.2500000  -0.2500000   0.2500000), wk =   0.0078125
        k(   85) = (   0.2500000  -0.2500000   0.3750000), wk =   0.0156250
        k(   86) = (   0.2500000  -0.2500000  -0.5000000), wk =   0.0156250
        k(   87) = (   0.2500000  -0.2500000  -0.3750000), wk =   0.0156250
        k(   88) = (   0.2500000  -0.2500000  -0.2500000), wk =   0.0078125
        k(   89) = (   0.3750000   0.3750000  -0.3750000), wk =   0.0078125
        k(   90) = (   0.3750000  -0.5000000  -0.5000000), wk =   0.0156250
        k(   91) = (   0.3750000  -0.5000000  -0.3750000), wk =   0.0156250
        k(   92) = (   0.3750000  -0.3750000   0.3750000), wk =   0.0078125
        k(   93) = (   0.3750000  -0.3750000  -0.5000000), wk =   0.0156250
        k(   94) = (   0.3750000  -0.3750000  -0.3750000), wk =   0.0078125
        k(   95) = (  -0.5000000  -0.5000000  -0.5000000), wk =   0.0039062

     Dense  grid:   103495 G-vectors     FFT dimensions: (  96,  96,  96)

     Smooth grid:    26127 G-vectors     FFT dimensions: (  60,  60,  60)

     Dynamical RAM for                 wfc:       0.02 MB

     Dynamical RAM for     wfc (w. buffer):       2.09 MB

     Dynamical RAM for           str. fact:       0.10 MB

     Dynamical RAM for           local pot:       0.00 MB

     Dynamical RAM for          nlocal pot:       0.04 MB

     Dynamical RAM for                qrad:       5.38 MB

     Dynamical RAM for          rho,v,vnew:       0.52 MB

     Dynamical RAM for               rhoin:       0.17 MB

     Dynamical RAM for            rho*nmix:       0.53 MB

     Dynamical RAM for           G-vectors:       0.13 MB

     Dynamical RAM for          h,s,v(r/c):       0.08 MB

     Dynamical RAM for          <psi|beta>:       0.01 MB

     Dynamical RAM for                 psi:       0.04 MB

     Dynamical RAM for                hpsi:       0.04 MB

     Dynamical RAM for                spsi:       0.04 MB

     Dynamical RAM for      wfcinit/wfcrot:       0.07 MB

     Dynamical RAM for           addusdens:       6.19 MB

     Dynamical RAM for          addusforce:       6.28 MB

     Dynamical RAM for         addusstress:       6.62 MB

     Estimated static dynamical RAM per process >       9.80 MB

     Estimated max dynamical RAM per process >      16.42 MB

     Estimated total dynamical RAM >     787.97 MB

     Initial potential from superposition of free atoms

     starting charge   32.99867, renormalised to   33.00000
     Starting wfcs are   25 randomized atomic wfcs
     Checking if some PAW data can be deallocated... 
       PAW data deallocated on   36 nodes for type:  1
       PAW data deallocated on   24 nodes for type:  2
       PAW data deallocated on   36 nodes for type:  3

     total cpu time spent up to now is        1.5 secs

     Self-consistent Calculation

     iteration #  1     ecut=    50.00 Ry     beta= 0.70
     Davidson diagonalization with overlap
     ethr =  1.00E-02,  avg # of iterations =  2.2

     total cpu time spent up to now is        3.5 secs

     total energy              =    -534.51811251 Ry
     estimated scf accuracy    <       0.76379258 Ry

     iteration #  2     ecut=    50.00 Ry     beta= 0.70
     Davidson diagonalization with overlap
     ethr =  2.31E-03,  avg # of iterations =  3.6

     total cpu time spent up to now is        6.1 secs

     total energy              =    -533.64079931 Ry
     estimated scf accuracy    <       8.29096851 Ry

     iteration #  3     ecut=    50.00 Ry     beta= 0.70
     Davidson diagonalization with overlap
     ethr =  2.31E-03,  avg # of iterations =  3.4

     total cpu time spent up to now is        8.3 secs

     total energy              =    -534.96625451 Ry
     estimated scf accuracy    <       0.12288566 Ry

     iteration #  4     ecut=    50.00 Ry     beta= 0.70
     Davidson diagonalization with overlap
     ethr =  3.72E-04,  avg # of iterations =  1.3

     total cpu time spent up to now is       10.2 secs

     total energy              =    -534.96044869 Ry
     estimated scf accuracy    <       0.05824145 Ry

     iteration #  5     ecut=    50.00 Ry     beta= 0.70
     Davidson diagonalization with overlap
     ethr =  1.76E-04,  avg # of iterations =  1.5

     total cpu time spent up to now is       12.0 secs

     total energy              =    -534.95611858 Ry
     estimated scf accuracy    <       0.02406009 Ry

     iteration #  6     ecut=    50.00 Ry     beta= 0.70
     Davidson diagonalization with overlap
     ethr =  7.29E-05,  avg # of iterations =  1.9

     total cpu time spent up to now is       13.9 secs

     total energy              =    -534.95887652 Ry
     estimated scf accuracy    <       0.00055649 Ry

     iteration #  7     ecut=    50.00 Ry     beta= 0.70
     Davidson diagonalization with overlap
     ethr =  1.69E-06,  avg # of iterations =  3.4

     total cpu time spent up to now is       16.3 secs

     total energy              =    -534.95905685 Ry
     estimated scf accuracy    <       0.00017075 Ry

     iteration #  8     ecut=    50.00 Ry     beta= 0.70
     Davidson diagonalization with overlap
     ethr =  5.17E-07,  avg # of iterations =  1.2

     total cpu time spent up to now is       18.1 secs

     total energy              =    -534.95905795 Ry
     estimated scf accuracy    <       0.00002718 Ry

     iteration #  9     ecut=    50.00 Ry     beta= 0.70
     Davidson diagonalization with overlap
     ethr =  8.24E-08,  avg # of iterations =  2.4

     total cpu time spent up to now is       20.2 secs

     total energy              =    -534.95906431 Ry
     estimated scf accuracy    <       0.00000074 Ry

     iteration # 10     ecut=    50.00 Ry     beta= 0.70
     Davidson diagonalization with overlap
     ethr =  2.25E-09,  avg # of iterations =  2.9

     total cpu time spent up to now is       22.4 secs

     total energy              =    -534.95906453 Ry
     estimated scf accuracy    <          7.5E-09 Ry

     iteration # 11     ecut=    50.00 Ry     beta= 0.70
     Davidson diagonalization with overlap
     ethr =  2.28E-11,  avg # of iterations =  4.9

     total cpu time spent up to now is       25.5 secs

     total energy              =    -534.95906453 Ry
     estimated scf accuracy    <       0.00000002 Ry

     iteration # 12     ecut=    50.00 Ry     beta= 0.70
     Davidson diagonalization with overlap
     ethr =  2.28E-11,  avg # of iterations =  2.4

     total cpu time spent up to now is       27.6 secs

     End of self-consistent calculation

          k = 0.0000 0.0000 0.0000 (  3265 PWs)   bands (ev):

   -49.8215 -26.0546 -25.7898 -25.7121 -12.3817  -9.5183  -8.8291   0.6178
     2.4664   2.7387   2.8741   3.0057   3.4604   3.9438   4.2029   4.2839
     5.5100   7.2177   7.3590   8.6596   9.3914

     occupation numbers 
     1.0000   1.0000   1.0000   1.0000   1.0000   1.0000   1.0000   1.0000
     1.0000   1.0000   1.0000   1.0000   1.0000   1.0000   1.0000   1.0000
     1.0000  -0.0015  -0.0000  -0.0000  -0.0000

          k = 0.2496 0.2147 0.0000 (  3273 PWs)   bands (ev):

   -49.8190 -26.0797 -25.7832 -25.7431 -12.1865  -9.4097  -8.8368   0.8294
     2.1231   2.2565   2.4452   2.9955   3.2935   3.5043   3.8847   4.0364
     5.9435   7.5277   7.6037   8.7632  10.0952

     occupation numbers 
     1.0000   1.0000   1.0000   1.0000   1.0000   1.0000   1.0000   1.0000
     1.0000   1.0000   1.0000   1.0000   1.0000   1.0000   1.0000   1.0000
     1.0000  -0.0000  -0.0000  -0.0000  -0.0000

          k = 0.4991 0.4293 0.0000 (  3258 PWs)   bands (ev):

   -49.8124 -26.1385 -25.8171 -25.7673 -11.6876  -9.1322  -8.8590   1.1118
     1.4026   1.7341   1.8978   2.0080   2.1874   2.9244   3.8469   4.0146
     6.8140   8.1667   8.2780   9.1698  11.1606

     occupation numbers 
     1.0000   1.0000   1.0000   1.0000   1.0000   1.0000   1.0000   1.0000
     1.0000   1.0000   1.0000   1.0000   1.0000   1.0000   1.0000   1.0000
     0.5310  -0.0000  -0.0000  -0.0000  -0.0000

          k = 0.7487 0.6440 0.0000 (  3263 PWs)   bands (ev):

   -49.8061 -26.1949 -25.8897 -25.7514 -11.1379  -8.8862  -8.8277  -0.0699
     0.9788   1.2647   1.6660   1.7799   2.1876   2.3116   3.5240   3.9769
     7.8704   8.8556   9.0636   9.5839  11.4054

     occupation numbers 
     1.0000   1.0000   1.0000   1.0000   1.0000   1.0000   1.0000   1.0000
     1.0000   1.0000   1.0000   1.0000   1.0000   1.0000   1.0000   1.0000
    -0.0000  -0.0000  -0.0000  -0.0000  -0.0000

          k =-0.9983-0.8586 0.0000 (  3258 PWs)   bands (ev):

   -49.8035 -26.2177 -25.9193 -25.7448 -10.8906  -8.8989  -8.6911  -0.5587
     0.6059   0.9562   1.7517   1.8303   1.9847   2.5738   3.2699   3.8814
     8.4687   9.1871   9.3799   9.7728  11.4351

     occupation numbers 
     1.0000   1.0000   1.0000   1.0000   1.0000   1.0000   1.0000   1.0000
     1.0000   1.0000   1.0000   1.0000   1.0000   1.0000   1.0000   1.0000
    -0.0000  -0.0000  -0.0000  -0.0000  -0.0000

          k = 0.2496 0.0000 0.0677 (  3274 PWs)   bands (ev):

   -49.8195 -26.0521 -25.7842 -25.7441 -12.3644  -9.4290  -8.8421   0.8075
     2.2502   2.6647   2.9518   3.0605   3.1034   3.8021   3.9345   4.1218
     5.9278   7.1274   7.2985   8.7433   9.7705

     occupation numbers 
     1.0000   1.0000   1.0000   1.0000   1.0000   1.0000   1.0000   1.0000
     1.0000   1.0000   1.0000   1.0000   1.0000   1.0000   1.0000   1.0000
     1.0000  -0.0114  -0.0001  -0.0000  -0.0000

          k = 0.4991 0.2147 0.0677 (  3272 PWs)   bands (ev):

   -49.8138 -26.0735 -25.8195 -25.7696 -12.1455  -9.1893  -8.8607   1.2364
     1.9037   2.0836   2.2418   2.4867   2.8930   3.0662   3.8710   4.0713
     6.7627   7.3242   7.4427   9.1734  10.5593

     occupation numbers 
     1.0000   1.0000   1.0000   1.0000   1.0000   1.0000   1.0000   1.0000
     1.0000   1.0000   1.0000   1.0000   1.0000   1.0000   1.0000   1.0000
     0.7777  -0.0001  -0.0000  -0.0000  -0.0000

          k = 0.7487 0.4293 0.0677 (  3269 PWs)   bands (ev):

   -49.8074 -26.1318 -25.8923 -25.7537 -11.6482  -8.9110  -8.8643   1.0925
     1.2407   1.4436   1.6816   1.9139   2.2628   2.5440   3.7140   4.1152
     7.7223   8.0675   8.1749   9.6609  11.1448

     occupation numbers 
     1.0000   1.0000   1.0000   1.0000   1.0000   1.0000   1.0000   1.0000
     1.0000   1.0000   1.0000   1.0000   1.0000   1.0000   1.0000   1.0000
    -0.0000  -0.0000  -0.0000  -0.0000  -0.0000

          k = 0.9983 0.6440 0.0677 (  3270 PWs)   bands (ev):

   -49.8041 -26.1920 -25.9205 -25.7457 -11.1224  -8.9110  -8.7045  -0.0572
     0.7507   0.9312   1.5597   1.9426   2.2128   2.6039   3.3448   3.9465
     8.4566   8.7828   9.0229   9.7576  11.3082

     occupation numbers 
     1.0000   1.0000   1.0000   1.0000   1.0000   1.0000   1.0000   1.0000
     1.0000   1.0000   1.0000   1.0000   1.0000   1.0000   1.0000   1.0000
    -0.0000  -0.0000  -0.0000  -0.0000  -0.0000

          k =-0.7487-0.8586 0.0677 (  3271 PWs)   bands (ev):

   -49.8057 -26.2207 -25.8887 -25.7504 -10.9054  -8.9048  -8.7820  -0.5695
     0.7920   1.2457   1.4382   1.8066   2.3314   2.4033   3.4332   3.8243
     7.9217   9.2382   9.4280   9.4939  11.3673

     occupation numbers 
     1.0000   1.0000   1.0000   1.0000   1.0000   1.0000   1.0000   1.0000
     1.0000   1.0000   1.0000   1.0000   1.0000   1.0000   1.0000   1.0000
    -0.0000  -0.0000  -0.0000  -0.0000  -0.0000

          k =-0.4991-0.6440 0.0677 (  3266 PWs)   bands (ev):

   -49.8114 -26.2021 -25.8148 -25.7649 -11.1747  -9.0564  -8.8773  -0.0991
     1.3250   1.4620   1.5723   1.8796   2.1367   2.9324   3.7163   3.8079
     6.8904   8.9732   9.0574   9.2258  11.4384

     occupation numbers 
     1.0000   1.0000   1.0000   1.0000   1.0000   1.0000   1.0000   1.0000
     1.0000   1.0000   1.0000   1.0000   1.0000   1.0000   1.0000   1.0000
     0.1698  -0.0000  -0.0000  -0.0000  -0.0000

          k =-0.2496-0.4293 0.0677 (  3264 PWs)   bands (ev):

   -49.8177 -26.1452 -25.7808 -25.7410 -11.7268  -9.3414  -8.8504   0.9179
     1.1343   1.4958   2.2533   2.5214   3.1841   3.4098   3.7294   3.9173
     6.0080   8.3771   8.4064   8.7972  10.6550

     occupation numbers 
     1.0000   1.0000   1.0000   1.0000   1.0000   1.0000   1.0000   1.0000
     1.0000   1.0000   1.0000   1.0000   1.0000   1.0000   1.0000   1.0000
     1.0000  -0.0000  -0.0000  -0.0000  -0.0000

          k = 0.0000-0.2147 0.0677 (  3273 PWs)   bands (ev):

   -49.8211 -26.0823 -25.7889 -25.7112 -12.2035  -9.4880  -8.8378   0.6704
     2.0637   2.4336   2.4889   3.2955   3.3583   3.7550   3.9575   4.1607
     5.5390   7.6430   7.6688   8.6888   9.7280

     occupation numbers 
     1.0000   1.0000   1.0000   1.0000   1.0000   1.0000   1.0000   1.0000
     1.0000   1.0000   1.0000   1.0000   1.0000   1.0000   1.0000   1.0000
     1.0000  -0.0000  -0.0000  -0.0000  -0.0000

          k = 0.4991 0.0000 0.1354 (  3263 PWs)   bands (ev):

   -49.8142 -26.0460 -25.8205 -25.7706 -12.3228  -9.2061  -8.8684   1.1843
     1.9257   2.0256   2.4816   3.0511   3.3274   3.4640   3.7866   3.9102
     6.7918   6.9405   7.0987   9.1148  10.1202

     occupation numbers 
     1.0000   1.0000   1.0000   1.0000   1.0000   1.0000   1.0000   1.0000
     1.0000   1.0000   1.0000   1.0000   1.0000   1.0000   1.0000   1.0000
     0.6434   0.0276  -0.0182  -0.0000  -0.0000

          k = 0.7487 0.2147 0.1354 (  3271 PWs)   bands (ev):

   -49.8086 -26.0672 -25.8948 -25.7560 -12.1046  -8.9713  -8.8633   1.0790
     1.4590   1.8258   2.0188   2.6192   2.7666   3.1411   3.8341   4.0172
     7.0957   7.2314   7.8547   9.6510  10.4641

     occupation numbers 
     1.0000   1.0000   1.0000   1.0000   1.0000   1.0000   1.0000   1.0000
     1.0000   1.0000   1.0000   1.0000   1.0000   1.0000   1.0000   1.0000
    -0.0190  -0.0011  -0.0000  -0.0000  -0.0000

          k = 0.9983 0.4293 0.1354 (  3276 PWs)   bands (ev):

   -49.8053 -26.1290 -25.9231 -25.7480 -11.6317  -8.9397  -8.7362   0.7678
     1.2176   1.2422   1.4292   1.9527   2.6351   2.8150   3.5545   4.0460
     7.8553   8.1238   8.4589   9.7415  10.9224

     occupation numbers 
     1.0000   1.0000   1.0000   1.0000   1.0000   1.0000   1.0000   1.0000
     1.0000   1.0000   1.0000   1.0000   1.0000   1.0000   1.0000   1.0000
    -0.0000  -0.0000  -0.0000  -0.0000  -0.0000

          k = 1.2479 0.6440 0.1354 (  3281 PWs)   bands (ev):

   -49.8064 -26.1950 -25.8897 -25.7514 -11.1377  -8.9420  -8.7679  -0.0703
     0.9225   1.1576   1.3365   1.9095   2.5131   2.5807   3.5046   3.8075
     7.9383   8.8400   9.0689   9.4207  11.2087

     occupation numbers 
     1.0000   1.0000   1.0000   1.0000   1.0000   1.0000   1.0000   1.0000
     1.0000   1.0000   1.0000   1.0000   1.0000   1.0000   1.0000   1.0000
    -0.0000  -0.0000  -0.0000  -0.0000  -0.0000

          k =-0.4991-0.8586 0.1354 (  3276 PWs)   bands (ev):

   -49.8110 -26.2281 -25.8138 -25.7640 -10.9404  -8.9909  -8.9202  -0.5952
     1.1767   1.2222   1.7244   1.8031   2.1818   2.9638   3.5805   3.7482
     6.9444   8.9703   9.4234   9.5217  11.4853

     occupation numbers 
     1.0000   1.0000   1.0000   1.0000   1.0000   1.0000   1.0000   1.0000
     1.0000   1.0000   1.0000   1.0000   1.0000   1.0000   1.0000   1.0000
     0.0203  -0.0000  -0.0000  -0.0000  -0.0000

          k =-0.2496-0.6440 0.1354 (  3259 PWs)   bands (ev):

   -49.8164 -26.2092 -25.7784 -25.7388 -11.2110  -9.2517  -8.8899  -0.1273
     0.9550   1.2492   2.0120   2.2602   2.9746   3.3204   3.5290   3.9379
     6.0766   8.7775   9.2243   9.2566  11.0590

     occupation numbers 
     1.0000   1.0000   1.0000   1.0000   1.0000   1.0000   1.0000   1.0000
     1.0000   1.0000   1.0000   1.0000   1.0000   1.0000   1.0000   1.0000
     1.0000  -0.0000  -0.0000  -0.0000  -0.0000

          k = 0.0000-0.4293 0.1354 (  3279 PWs)   bands (ev):

   -49.8200 -26.1480 -25.7865 -25.7091 -11.7428  -9.4083  -8.8666   0.7819
     1.1108   1.4398   2.5455   2.9055   3.0151   3.5521   3.9535   4.0107
     5.5942   8.4276   8.5375   8.7602  10.3302

     occupation numbers 
     1.0000   1.0000   1.0000   1.0000   1.0000   1.0000   1.0000   1.0000
     1.0000   1.0000   1.0000   1.0000   1.0000   1.0000   1.0000   1.0000
     1.0000  -0.0000  -0.0000  -0.0000  -0.0000

          k = 0.2496-0.2147 0.1354 (  3276 PWs)   bands (ev):

   -49.8190 -26.0797 -25.7833 -25.7431 -12.1863  -9.3906  -8.8599   0.8855
     2.1386   2.2514   2.4562   2.9591   3.2061   3.4984   3.8620   4.0674
     5.9670   7.5216   7.6212   8.7451  10.1610

     occupation numbers 
     1.0000   1.0000   1.0000   1.0000   1.0000   1.0000   1.0000   1.0000
     1.0000   1.0000   1.0000   1.0000   1.0000   1.0000   1.0000   1.0000
     1.0000  -0.0000  -0.0000  -0.0000  -0.0000

          k = 0.7487 0.0000 0.2031 (  3297 PWs)   bands (ev):

   -49.8094 -26.0400 -25.8959 -25.7570 -12.2814  -9.0094  -8.8479   1.0099
     1.3344   1.9970   2.0977   3.1708   3.4422   3.5802   3.7309   3.7615
     6.7843   6.7987   7.8423   9.5542   9.9901

     occupation numbers 
     1.0000   1.0000   1.0000   1.0000   1.0000   1.0000   1.0000   1.0000
     1.0000   1.0000   1.0000   1.0000   1.0000   1.0000   1.0000   1.0000
     0.6802   0.6092  -0.0000  -0.0000  -0.0000

          k = 0.9983 0.2147 0.2031 (  3287 PWs)   bands (ev):

   -49.8066 -26.0646 -25.9258 -25.7504 -12.0876  -8.9681  -8.7674   0.6973
     1.3344   1.7693   1.9307   2.6886   2.9053   3.4034   3.8049   3.9318
     7.0353   7.1238   8.4354   9.6822  10.3255

     occupation numbers 
     1.0000   1.0000   1.0000   1.0000   1.0000   1.0000   1.0000   1.0000
     1.0000   1.0000   1.0000   1.0000   1.0000   1.0000   1.0000   1.0000
    -0.0343  -0.0122  -0.0000  -0.0000  -0.0000

          k = 1.2479 0.4293 0.2031 (  3276 PWs)   bands (ev):

   -49.8075 -26.1318 -25.8923 -25.7537 -11.6479  -8.9842  -8.7854   1.0051
     1.1832   1.2999   1.3956   2.0985   2.6517   2.8097   3.6931   3.9544
     7.8618   7.9940   8.1795   9.4129  10.8818

     occupation numbers 
     1.0000   1.0000   1.0000   1.0000   1.0000   1.0000   1.0000   1.0000
     1.0000   1.0000   1.0000   1.0000   1.0000   1.0000   1.0000   1.0000
    -0.0000  -0.0000  -0.0000  -0.0000  -0.0000

          k = 1.4974 0.6440 0.2031 (  3274 PWs)   bands (ev):

   -49.8114 -26.2021 -25.8148 -25.7649 -11.1743  -9.0215  -8.9130  -0.1003
     1.2558   1.3220   1.6943   1.8494   2.2873   3.0116   3.5567   3.8713
     6.9489   8.8641   9.1234   9.1586  11.3746

     occupation numbers 
     1.0000   1.0000   1.0000   1.0000   1.0000   1.0000   1.0000   1.0000
     1.0000   1.0000   1.0000   1.0000   1.0000   1.0000   1.0000   1.0000
     0.0127  -0.0000  -0.0000  -0.0000  -0.0000

          k =-0.2496-0.8586 0.2031 (  3276 PWs)   bands (ev):

   -49.8161 -26.2354 -25.7775 -25.7379 -10.9748  -9.1874  -8.9372  -0.6208
     0.8399   1.4214   1.7757   2.1705   2.8883   3.2256   3.4811   3.9654
     6.1135   8.7919   9.5736   9.6033  11.2216

     occupation numbers 
     1.0000   1.0000   1.0000   1.0000   1.0000   1.0000   1.0000   1.0000
     1.0000   1.0000   1.0000   1.0000   1.0000   1.0000   1.0000   1.0000
     1.0000  -0.0000  -0.0000  -0.0000  -0.0000

          k = 0.0000-0.6440 0.2031 (  3280 PWs)   bands (ev):

   -49.8188 -26.2122 -25.7841 -25.7070 -11.2257  -9.3137  -8.9139  -0.1394
     0.7872   1.2401   2.4076   2.5613   2.6087   3.4596   3.9249   3.9868
     5.6481   8.8308   9.2269   9.3633  10.7959

     occupation numbers 
     1.0000   1.0000   1.0000   1.0000   1.0000   1.0000   1.0000   1.0000
     1.0000   1.0000   1.0000   1.0000   1.0000   1.0000   1.0000   1.0000
     1.0000  -0.0000  -0.0000  -0.0000  -0.0000

          k = 0.2496-0.4293 0.2031 (  3259 PWs)   bands (ev):

   -49.8176 -26.1452 -25.7808 -25.7409 -11.7263  -9.3070  -8.8907   0.9631
     1.1589   1.5911   2.1779   2.5430   2.9616   3.4657   3.5789   4.0759
     6.0375   8.3959   8.4047   8.7730  10.7562

     occupation numbers 
     1.0000   1.0000   1.0000   1.0000   1.0000   1.0000   1.0000   1.0000
     1.0000   1.0000   1.0000   1.0000   1.0000   1.0000   1.0000   1.0000
     1.0000  -0.0000  -0.0000  -0.0000  -0.0000

          k = 0.4991-0.2147 0.2031 (  3270 PWs)   bands (ev):

   -49.8138 -26.0735 -25.8195 -25.7697 -12.1452  -9.1751  -8.8754   1.2094
     1.8886   1.9450   2.3091   2.5196   2.9340   3.1639   3.8432   4.0833
     6.8179   7.2901   7.4570   9.0419  10.5033

     occupation numbers 
     1.0000   1.0000   1.0000   1.0000   1.0000   1.0000   1.0000   1.0000
     1.0000   1.0000   1.0000   1.0000   1.0000   1.0000   1.0000   1.0000
     0.5105  -0.0002  -0.0000  -0.0000  -0.0000

          k =-0.9983 0.0000-0.2708 (  3288 PWs)   bands (ev):

   -49.8072 -26.0375 -25.9268 -25.7513 -12.2643  -8.9798  -8.7802   0.6634
     1.3142   1.8921   2.0441   3.3084   3.4100   3.5020   3.7839   3.9228
     6.6079   6.7482   8.4229   9.5465  10.0366

     occupation numbers 
     1.0000   1.0000   1.0000   1.0000   1.0000   1.0000   1.0000   1.0000
     1.0000   1.0000   1.0000   1.0000   1.0000   1.0000   1.0000   1.0000
     1.0347   0.8350  -0.0000  -0.0000  -0.0000

          k =-0.7487 0.2147-0.2708 (  3282 PWs)   bands (ev):

   -49.8087 -26.0672 -25.8948 -25.7560 -12.1044  -9.0121  -8.8185   0.9977
     1.2703   1.8251   2.1591   2.6376   2.8954   3.2522   3.8088   4.0114
     7.0848   7.2255   7.8847   9.4699  10.3322

     occupation numbers 
     1.0000   1.0000   1.0000   1.0000   1.0000   1.0000   1.0000   1.0000
     1.0000   1.0000   1.0000   1.0000   1.0000   1.0000   1.0000   1.0000
    -0.0220  -0.0012  -0.0000  -0.0000  -0.0000

          k =-0.4991 0.4293-0.2708 (  3272 PWs)   bands (ev):

   -49.8126 -26.1385 -25.8171 -25.7673 -11.6871  -9.1055  -8.8866   1.0936
     1.3103   1.6916   1.8870   1.9369   2.4034   3.0832   3.6944   4.0593
     6.8973   8.1379   8.3012   8.9971  11.0673

     occupation numbers 
     1.0000   1.0000   1.0000   1.0000   1.0000   1.0000   1.0000   1.0000
     1.0000   1.0000   1.0000   1.0000   1.0000   1.0000   1.0000   1.0000
     0.1449  -0.0000  -0.0000  -0.0000  -0.0000

          k =-0.2496 0.6440-0.2708 (  3265 PWs)   bands (ev):

   -49.8165 -26.2092 -25.7785 -25.7388 -11.2106  -9.2151  -8.9310  -0.1285
     0.9476   1.4652   1.8448   2.2694   2.8839   3.2759   3.5017   4.0213
     6.0986   8.7825   9.2129   9.2591  11.1275

     occupation numbers 
     1.0000   1.0000   1.0000   1.0000   1.0000   1.0000   1.0000   1.0000
     1.0000   1.0000   1.0000   1.0000   1.0000   1.0000   1.0000   1.0000
     1.0000  -0.0000  -0.0000  -0.0000  -0.0000

          k =-1.9966-0.8586-0.2708 (  3268 PWs)   bands (ev):

   -49.8182 -26.2384 -25.7830 -25.7061 -10.9888  -9.2658  -8.9446  -0.6314
     0.6872   1.3331   2.1205   2.4353   2.6333   3.4183   3.8951   3.9835
     5.6705   8.8609   9.5777   9.7012  10.9673

     occupation numbers 
     1.0000   1.0000   1.0000   1.0000   1.0000   1.0000   1.0000   1.0000
     1.0000   1.0000   1.0000   1.0000   1.0000   1.0000   1.0000   1.0000
     1.0000  -0.0000  -0.0000  -0.0000  -0.0000

          k = 0.4991 0.4293 0.1354 (  3267 PWs)   bands (ev):

   -49.8126 -26.1385 -25.8171 -25.7673 -11.6874  -9.1250  -8.8665   1.1060
     1.3672   1.7516   1.8362   2.0671   2.1928   2.9859   3.7955   4.0348
     6.8375   8.1535   8.2882   9.1198  11.1375

     occupation numbers 
     1.0000   1.0000   1.0000   1.0000   1.0000   1.0000   1.0000   1.0000
     1.0000   1.0000   1.0000   1.0000   1.0000   1.0000   1.0000   1.0000
     0.4100  -0.0000  -0.0000  -0.0000  -0.0000

          k = 0.7487 0.6440 0.1354 (  3264 PWs)   bands (ev):

   -49.8062 -26.1949 -25.8897 -25.7514 -11.1379  -8.9014  -8.8118  -0.0700
     0.9718   1.2303   1.6451   1.7370   2.2844   2.3600   3.5182   3.9496
     7.8826   8.8438   9.0637   9.5647  11.3866

     occupation numbers 
     1.0000   1.0000   1.0000   1.0000   1.0000   1.0000   1.0000   1.0000
     1.0000   1.0000   1.0000   1.0000   1.0000   1.0000   1.0000   1.0000
    -0.0000  -0.0000  -0.0000  -0.0000  -0.0000

          k = 0.9983 0.8586 0.1354 (  3260 PWs)   bands (ev):

   -49.8035 -26.2177 -25.9193 -25.7448 -10.8906  -8.8989  -8.6911  -0.5588
     0.6201   0.9264   1.7750   1.8623   1.9505   2.5854   3.2262   3.9095
     8.4704   9.1888   9.3892   9.7447  11.4166

     occupation numbers 
     1.0000   1.0000   1.0000   1.0000   1.0000   1.0000   1.0000   1.0000
     1.0000   1.0000   1.0000   1.0000   1.0000   1.0000   1.0000   1.0000
    -0.0000  -0.0000  -0.0000  -0.0000  -0.0000

          k = 0.0000 0.0000 0.1354 (  3271 PWs)   bands (ev):

   -49.8216 -26.0546 -25.7899 -25.7121 -12.3814  -9.4955  -8.8581   0.6962
     2.4906   2.7077   2.8469   3.0608   3.4470   3.8242   4.1562   4.2484
     5.5280   7.2179   7.3889   8.7106   9.4839

     occupation numbers 
     1.0000   1.0000   1.0000   1.0000   1.0000   1.0000   1.0000   1.0000
     1.0000   1.0000   1.0000   1.0000   1.0000   1.0000   1.0000   1.0000
     1.0000  -0.0015  -0.0000  -0.0000  -0.0000

          k = 0.7487 0.4293 0.2031 (  3267 PWs)   bands (ev):

   -49.8074 -26.1318 -25.8923 -25.7537 -11.6481  -8.9529  -8.8201   1.0543
     1.2106   1.4145   1.4971   1.9894   2.4698   2.6484   3.7017   4.0564
     7.7755   8.0365   8.1764   9.5607  11.0391

     occupation numbers 
     1.0000   1.0000   1.0000   1.0000   1.0000   1.0000   1.0000   1.0000
     1.0000   1.0000   1.0000   1.0000   1.0000   1.0000   1.0000   1.0000
    -0.0000  -0.0000  -0.0000  -0.0000  -0.0000

          k = 0.9983 0.6440 0.2031 (  3268 PWs)   bands (ev):

   -49.8041 -26.1920 -25.9205 -25.7457 -11.1224  -8.9110  -8.7045  -0.0572
     0.7834   0.8787   1.6407   1.8548   2.2260   2.6429   3.2913   3.9762
     8.4648   8.7786   9.0295   9.7264  11.2994

     occupation numbers 
     1.0000   1.0000   1.0000   1.0000   1.0000   1.0000   1.0000   1.0000
     1.0000   1.0000   1.0000   1.0000   1.0000   1.0000   1.0000   1.0000
    -0.0000  -0.0000  -0.0000  -0.0000  -0.0000

          k = 1.2479 0.8586 0.2031 (  3270 PWs)   bands (ev):

   -49.8057 -26.2207 -25.8887 -25.7504 -10.9054  -8.9048  -8.7820  -0.5694
     0.7955   1.2127   1.5393   1.7000   2.3657   2.4124   3.4297   3.8187
     7.9226   9.2014   9.4329   9.5249  11.4056

     occupation numbers 
     1.0000   1.0000   1.0000   1.0000   1.0000   1.0000   1.0000   1.0000
     1.0000   1.0000   1.0000   1.0000   1.0000   1.0000   1.0000   1.0000
    -0.0000  -0.0000  -0.0000  -0.0000  -0.0000

          k =-0.4991-0.6440 0.2031 (  3270 PWs)   bands (ev):

   -49.8114 -26.2021 -25.8148 -25.7649 -11.1745  -9.0440  -8.8901  -0.0996
     1.2926   1.3915   1.6115   1.9268   2.1594   2.9738   3.6288   3.8549
     6.9139   8.9010   9.1193   9.1911  11.4206

     occupation numbers 
     1.0000   1.0000   1.0000   1.0000   1.0000   1.0000   1.0000   1.0000
     1.0000   1.0000   1.0000   1.0000   1.0000   1.0000   1.0000   1.0000
     0.0914  -0.0000  -0.0000  -0.0000  -0.0000

          k = 0.0000-0.2147 0.2031 (  3277 PWs)   bands (ev):

   -49.8211 -26.0823 -25.7889 -25.7112 -12.2029  -9.4441  -8.8925   0.8145
     2.1037   2.4315   2.5326   3.1527   3.2813   3.5642   4.0599   4.0902
     5.5553   7.6425   7.6916   8.7763   9.9115

     occupation numbers 
     1.0000   1.0000   1.0000   1.0000   1.0000   1.0000   1.0000   1.0000
     1.0000   1.0000   1.0000   1.0000   1.0000   1.0000   1.0000   1.0000
     1.0000  -0.0000  -0.0000  -0.0000  -0.0000

          k = 0.2496 0.0000 0.2031 (  3255 PWs)   bands (ev):

   -49.8193 -26.0521 -25.7842 -25.7440 -12.3639  -9.3908  -8.8882   0.9259
     2.2557   2.5890   2.8871   3.0474   3.1773   3.7002   3.9613   4.0501
     5.9808   7.1076   7.3450   8.7149   9.8688

     occupation numbers 
     1.0000   1.0000   1.0000   1.0000   1.0000   1.0000   1.0000   1.0000
     1.0000   1.0000   1.0000   1.0000   1.0000   1.0000   1.0000   1.0000
     1.0000  -0.0159  -0.0000  -0.0000  -0.0000

          k = 0.9983 0.4293 0.2708 (  3280 PWs)   bands (ev):

   -49.8054 -26.1290 -25.9231 -25.7480 -11.6317  -8.9397  -8.7362   0.7548
     1.2173   1.2407   1.5067   1.8627   2.6225   2.8736   3.5277   4.0542
     7.8640   8.1253   8.4523   9.7191  10.9414

     occupation numbers 
     1.0000   1.0000   1.0000   1.0000   1.0000   1.0000   1.0000   1.0000
     1.0000   1.0000   1.0000   1.0000   1.0000   1.0000   1.0000   1.0000
    -0.0000  -0.0000  -0.0000  -0.0000  -0.0000

          k = 1.2479 0.6440 0.2708 (  3271 PWs)   bands (ev):

   -49.8062 -26.1949 -25.8897 -25.7514 -11.1378  -8.9250  -8.7866  -0.0701
     0.9514   1.1732   1.4845   1.8160   2.4252   2.4747   3.5074   3.8814
     7.9113   8.8291   9.0657   9.5042  11.3143

     occupation numbers 
     1.0000   1.0000   1.0000   1.0000   1.0000   1.0000   1.0000   1.0000
     1.0000   1.0000   1.0000   1.0000   1.0000   1.0000   1.0000   1.0000
    -0.0000  -0.0000  -0.0000  -0.0000  -0.0000

          k = 1.4974 0.8586 0.2708 (  3280 PWs)   bands (ev):

   -49.8110 -26.2281 -25.8138 -25.7640 -10.9404  -8.9909  -8.9202  -0.5952
     1.1925   1.2059   1.7105   1.8115   2.1967   2.9517   3.5722   3.7599
     6.9441   8.9604   9.4434   9.5128  11.4970

     occupation numbers 
     1.0000   1.0000   1.0000   1.0000   1.0000   1.0000   1.0000   1.0000
     1.0000   1.0000   1.0000   1.0000   1.0000   1.0000   1.0000   1.0000
     0.0209  -0.0000  -0.0000  -0.0000  -0.0000

          k = 0.0000-0.4293 0.2708 (  3270 PWs)   bands (ev):

   -49.8199 -26.1480 -25.7865 -25.7091 -11.7421  -9.3503  -8.9360   0.8953
     1.1439   1.5758   2.5933   2.6239   2.9014   3.3875   3.9275   4.1561
     5.6064   8.4184   8.5363   8.8485  10.5481

     occupation numbers 
     1.0000   1.0000   1.0000   1.0000   1.0000   1.0000   1.0000   1.0000
     1.0000   1.0000   1.0000   1.0000   1.0000   1.0000   1.0000   1.0000
     1.0000  -0.0000  -0.0000  -0.0000  -0.0000

          k = 0.2496-0.2147 0.2708 (  3260 PWs)   bands (ev):

   -49.8188 -26.0797 -25.7832 -25.7431 -12.1856  -9.3361  -8.9241   1.0466
     2.1091   2.2765   2.4715   2.8383   3.1168   3.4573   3.7865   4.1160
     6.0220   7.5135   7.6513   8.7350  10.2847

     occupation numbers 
     1.0000   1.0000   1.0000   1.0000   1.0000   1.0000   1.0000   1.0000
     1.0000   1.0000   1.0000   1.0000   1.0000   1.0000   1.0000   1.0000
     1.0000  -0.0000  -0.0000  -0.0000  -0.0000

          k = 0.4991 0.0000 0.2708 (  3267 PWs)   bands (ev):

   -49.8142 -26.0461 -25.8205 -25.7706 -12.3224  -9.1866  -8.8886   1.1669
     1.7862   2.0248   2.5654   2.9862   3.4480   3.5444   3.8501   3.8673
     6.8595   6.8906   7.1128   8.9320  10.0419

     occupation numbers 
     1.0000   1.0000   1.0000   1.0000   1.0000   1.0000   1.0000   1.0000
     1.0000   1.0000   1.0000   1.0000   1.0000   1.0000   1.0000   1.0000
     0.3018   0.1691  -0.0147  -0.0000  -0.0000

          k =-1.9966-0.6440-0.2031 (  3268 PWs)   bands (ev):

   -49.8187 -26.2122 -25.7840 -25.7070 -11.2252  -9.2634  -8.9712  -0.1409
     0.8497   1.3903   2.2010   2.5608   2.6387   3.2648   3.8726   4.1473
     5.6544   8.8826   9.2180   9.3627  10.9155

     occupation numbers 
     1.0000   1.0000   1.0000   1.0000   1.0000   1.0000   1.0000   1.0000
     1.0000   1.0000   1.0000   1.0000   1.0000   1.0000   1.0000   1.0000
     1.0000  -0.0000  -0.0000  -0.0000  -0.0000

          k =-1.7470-0.4293-0.2031 (  3262 PWs)   bands (ev):

   -49.8177 -26.1452 -25.7809 -25.7409 -11.7257  -9.2425  -8.9637   1.0127
     1.2527   1.7357   1.9995   2.5352   2.8808   3.3844   3.4250   4.2218
     6.0798   8.3820   8.4122   8.7893  10.8770

     occupation numbers 
     1.0000   1.0000   1.0000   1.0000   1.0000   1.0000   1.0000   1.0000
     1.0000   1.0000   1.0000   1.0000   1.0000   1.0000   1.0000   1.0000
     1.0000  -0.0000  -0.0000  -0.0000  -0.0000

          k =-1.4974-0.2147-0.2031 (  3271 PWs)   bands (ev):

   -49.8138 -26.0734 -25.8195 -25.7697 -12.1448  -9.1523  -8.8989   1.1984
     1.6797   1.9720   2.3818   2.5414   3.0355   3.2514   3.7864   4.1075
     6.9058   7.2569   7.4641   8.8664  10.4047

     occupation numbers 
     1.0000   1.0000   1.0000   1.0000   1.0000   1.0000   1.0000   1.0000
     1.0000   1.0000   1.0000   1.0000   1.0000   1.0000   1.0000   1.0000
     0.1161  -0.0005  -0.0000  -0.0000  -0.0000

          k =-1.2479 0.0000-0.2031 (  3280 PWs)   bands (ev):

   -49.8092 -26.0400 -25.8959 -25.7570 -12.2812  -9.0448  -8.8079   0.9339
     1.1540   2.0156   2.2764   3.1283   3.5582   3.5684   3.7925   3.8491
     6.7443   6.7748   7.8915   9.3504   9.8550

     occupation numbers 
     1.0000   1.0000   1.0000   1.0000   1.0000   1.0000   1.0000   1.0000
     1.0000   1.0000   1.0000   1.0000   1.0000   1.0000   1.0000   1.0000
     0.8494   0.7244  -0.0000  -0.0000  -0.0000

          k = 0.0000 0.8586-0.1354 (  3266 PWs)   bands (ev):

   -49.8182 -26.2384 -25.7830 -25.7061 -10.9888  -9.2657  -8.9446  -0.6314
     0.7414   1.1836   2.3384   2.4354   2.6332   3.1857   3.8951   4.0994
     5.6662   8.8610   9.5873   9.7011  10.9262

     occupation numbers 
     1.0000   1.0000   1.0000   1.0000   1.0000   1.0000   1.0000   1.0000
     1.0000   1.0000   1.0000   1.0000   1.0000   1.0000   1.0000   1.0000
     1.0000  -0.0000  -0.0000  -0.0000  -0.0000

          k =-1.7470-0.6440-0.1354 (  3275 PWs)   bands (ev):

   -49.8166 -26.2093 -25.7785 -25.7388 -11.2102  -9.1629  -8.9877  -0.1297
     1.0350   1.4569   1.8659   2.2207   2.9290   3.1797   3.3449   4.1511
     6.1169   8.7745   9.2306   9.2583  11.1833

     occupation numbers 
     1.0000   1.0000   1.0000   1.0000   1.0000   1.0000   1.0000   1.0000
     1.0000   1.0000   1.0000   1.0000   1.0000   1.0000   1.0000   1.0000
     1.0000  -0.0000  -0.0000  -0.0000  -0.0000

          k =-1.4974-0.4293-0.1354 (  3267 PWs)   bands (ev):

   -49.8125 -26.1385 -25.8171 -25.7673 -11.6867  -9.0815  -8.9113   1.0851
     1.2755   1.6258   1.7954   1.9895   2.6110   3.1238   3.6034   4.0718
     6.9616   8.1463   8.2986   8.8705  10.9783

     occupation numbers 
     1.0000   1.0000   1.0000   1.0000   1.0000   1.0000   1.0000   1.0000
     1.0000   1.0000   1.0000   1.0000   1.0000   1.0000   1.0000   1.0000
    -0.0053  -0.0000  -0.0000  -0.0000  -0.0000

          k =-1.2479-0.2147-0.1354 (  3285 PWs)   bands (ev):

   -49.8088 -26.0672 -25.8948 -25.7560 -12.1042  -9.0392  -8.7874   0.9421
     1.1190   1.7945   2.2967   2.6376   3.0126   3.3687   3.8083   3.9761
     7.0719   7.2208   7.9283   9.2947  10.1865

     occupation numbers 
     1.0000   1.0000   1.0000   1.0000   1.0000   1.0000   1.0000   1.0000
     1.0000   1.0000   1.0000   1.0000   1.0000   1.0000   1.0000   1.0000
    -0.0257  -0.0014  -0.0000  -0.0000  -0.0000

          k =-0.9983 0.0000-0.1354 (  3300 PWs)   bands (ev):

   -49.8073 -26.0375 -25.9269 -25.7513 -12.2643  -8.9798  -8.7802   0.6814
     1.2608   1.9108   2.0716   3.3082   3.4105   3.5164   3.7548   3.9225
     6.6143   6.7416   8.4262   9.6139   9.9606

     occupation numbers 
     1.0000   1.0000   1.0000   1.0000   1.0000   1.0000   1.0000   1.0000
     1.0000   1.0000   1.0000   1.0000   1.0000   1.0000   1.0000   1.0000
     1.0353   0.8589  -0.0000  -0.0000  -0.0000

          k = 0.0000 0.6440-0.0677 (  3273 PWs)   bands (ev):

   -49.8187 -26.2122 -25.7840 -25.7070 -11.2261  -9.3419  -8.8808  -0.1383
     0.8347   1.0149   2.5634   2.5869   2.8045   3.2242   3.9610   4.0292
     5.6388   8.7947   9.2478   9.3635  10.6738

     occupation numbers 
     1.0000   1.0000   1.0000   1.0000   1.0000   1.0000   1.0000   1.0000
     1.0000   1.0000   1.0000   1.0000   1.0000   1.0000   1.0000   1.0000
     1.0000  -0.0000  -0.0000  -0.0000  -0.0000

          k = 0.2496 0.8586-0.0677 (  3266 PWs)   bands (ev):

   -49.8160 -26.2354 -25.7775 -25.7379 -10.9748  -9.1874  -8.9372  -0.6208
     0.9117   1.2234   1.9474   2.1468   2.9903   3.1536   3.3585   4.0387
     6.1097   8.7907   9.5870   9.5996  11.2122

     occupation numbers 
     1.0000   1.0000   1.0000   1.0000   1.0000   1.0000   1.0000   1.0000
     1.0000   1.0000   1.0000   1.0000   1.0000   1.0000   1.0000   1.0000
     1.0000  -0.0000  -0.0000  -0.0000  -0.0000

          k =-1.4974-0.6440-0.0677 (  3283 PWs)   bands (ev):

   -49.8116 -26.2021 -25.8148 -25.7650 -11.1741  -8.9964  -8.9385  -0.1009
     1.2283   1.2956   1.7551   1.7823   2.3723   3.0340   3.5158   3.8710
     6.9748   8.8672   9.0552   9.1769  11.3270

     occupation numbers 
     1.0000   1.0000   1.0000   1.0000   1.0000   1.0000   1.0000   1.0000
     1.0000   1.0000   1.0000   1.0000   1.0000   1.0000   1.0000   1.0000
    -0.0189  -0.0000  -0.0000  -0.0000  -0.0000

          k =-1.2479-0.4293-0.0677 (  3279 PWs)   bands (ev):

   -49.8075 -26.1318 -25.8923 -25.7537 -11.6478  -9.0010  -8.7663   0.9820
     1.1526   1.1962   1.3846   2.1666   2.7666   2.9163   3.7150   3.8465
     7.9325   7.9657   8.1826   9.3020  10.7642

     occupation numbers 
     1.0000   1.0000   1.0000   1.0000   1.0000   1.0000   1.0000   1.0000
     1.0000   1.0000   1.0000   1.0000   1.0000   1.0000   1.0000   1.0000
    -0.0000  -0.0000  -0.0000  -0.0000  -0.0000

          k =-0.9983-0.2147-0.0677 (  3290 PWs)   bands (ev):

   -49.8067 -26.0646 -25.9258 -25.7503 -12.0876  -8.9681  -8.7675   0.7233
     1.2649   1.7166   2.0610   2.6850   2.8962   3.3642   3.8226   3.9305
     7.0316   7.1213   8.4411   9.7515  10.2458

     occupation numbers 
     1.0000   1.0000   1.0000   1.0000   1.0000   1.0000   1.0000   1.0000
     1.0000   1.0000   1.0000   1.0000   1.0000   1.0000   1.0000   1.0000
    -0.0347  -0.0128  -0.0000  -0.0000  -0.0000

          k =-0.7487 0.0000-0.0677 (  3298 PWs)   bands (ev):

   -49.8094 -26.0400 -25.8959 -25.7570 -12.2815  -8.9652  -8.8953   1.0808
     1.5405   1.8260   2.0394   3.2068   3.3569   3.6104   3.6725   3.6866
     6.8006   6.8269   7.8139   9.7197  10.0599

     occupation numbers 
     1.0000   1.0000   1.0000   1.0000   1.0000   1.0000   1.0000   1.0000
     1.0000   1.0000   1.0000   1.0000   1.0000   1.0000   1.0000   1.0000
     0.5998   0.4642  -0.0000  -0.0000  -0.0000

          k = 0.0000 0.4293 0.0000 (  3273 PWs)   bands (ev):

   -49.8199 -26.1480 -25.7864 -25.7091 -11.7431  -9.4285  -8.8418   0.7361
     1.1064   1.3865   2.5274   2.9067   3.3701   3.3993   3.8846   4.0445
     5.5889   8.4374   8.5385   8.7233  10.2344

     occupation numbers 
     1.0000   1.0000   1.0000   1.0000   1.0000   1.0000   1.0000   1.0000
     1.0000   1.0000   1.0000   1.0000   1.0000   1.0000   1.0000   1.0000
     1.0000  -0.0000  -0.0000  -0.0000  -0.0000

          k = 0.2496 0.6440 0.0000 (  3261 PWs)   bands (ev):

   -49.8165 -26.2092 -25.7784 -25.7388 -11.2112  -9.2646  -8.8751  -0.1268
     1.0540   1.0679   2.0972   2.2318   3.1516   3.2051   3.5050   3.9381
     6.0665   8.7713   9.2450   9.2479  11.0264

     occupation numbers 
     1.0000   1.0000   1.0000   1.0000   1.0000   1.0000   1.0000   1.0000
     1.0000   1.0000   1.0000   1.0000   1.0000   1.0000   1.0000   1.0000
     1.0000  -0.0000  -0.0000  -0.0000  -0.0000

          k = 0.4991 0.8586 0.0000 (  3267 PWs)   bands (ev):

   -49.8109 -26.2280 -25.8138 -25.7639 -10.9404  -8.9908  -8.9202  -0.5952
     1.1686   1.2307   1.7496   1.7833   2.1678   2.9753   3.5907   3.7347
     6.9448   8.9807   9.4052   9.5282  11.4740

     occupation numbers 
     1.0000   1.0000   1.0000   1.0000   1.0000   1.0000   1.0000   1.0000
     1.0000   1.0000   1.0000   1.0000   1.0000   1.0000   1.0000   1.0000
     0.0196  -0.0000  -0.0000  -0.0000  -0.0000

          k =-1.2479-0.6440 0.0000 (  3281 PWs)   bands (ev):

   -49.8064 -26.1950 -25.8897 -25.7514 -11.1376  -8.9481  -8.7611  -0.0703
     0.9077   1.1773   1.2613   1.9498   2.5488   2.6130   3.5081   3.7738
     7.9487   8.8556   9.0692   9.3776  11.1564

     occupation numbers 
     1.0000   1.0000   1.0000   1.0000   1.0000   1.0000   1.0000   1.0000
     1.0000   1.0000   1.0000   1.0000   1.0000   1.0000   1.0000   1.0000
    -0.0000  -0.0000  -0.0000  -0.0000  -0.0000

          k =-0.9983-0.4293 0.0000 (  3276 PWs)   bands (ev):

   -49.8053 -26.1290 -25.9231 -25.7480 -11.6317  -8.9398  -8.7362   0.7820
     1.2182   1.2446   1.3668   2.0284   2.6716   2.7312   3.5800   4.0371
     7.8468   8.1223   8.4652   9.7649  10.9022

     occupation numbers 
     1.0000   1.0000   1.0000   1.0000   1.0000   1.0000   1.0000   1.0000
     1.0000   1.0000   1.0000   1.0000   1.0000   1.0000   1.0000   1.0000
    -0.0000  -0.0000  -0.0000  -0.0000  -0.0000

          k =-0.7487-0.2147 0.0000 (  3271 PWs)   bands (ev):

   -49.8086 -26.0672 -25.8948 -25.7560 -12.1046  -8.9338  -8.9024   1.1205
     1.6358   1.6857   2.0130   2.5833   2.7215   3.0988   3.8498   4.0127
     7.0998   7.2342   7.8453   9.7293  10.5137

     occupation numbers 
     1.0000   1.0000   1.0000   1.0000   1.0000   1.0000   1.0000   1.0000
     1.0000   1.0000   1.0000   1.0000   1.0000   1.0000   1.0000   1.0000
    -0.0180  -0.0010  -0.0000  -0.0000  -0.0000

          k =-0.4991 0.0000 0.0000 (  3275 PWs)   bands (ev):

   -49.8143 -26.0461 -25.8205 -25.7706 -12.3230  -9.2136  -8.8607   1.1988
     1.8924   2.1522   2.4073   3.0982   3.2608   3.4309   3.7565   3.9244
     6.7670   6.9660   7.0880   9.1969  10.1461

     occupation numbers 
     1.0000   1.0000   1.0000   1.0000   1.0000   1.0000   1.0000   1.0000
     1.0000   1.0000   1.0000   1.0000   1.0000   1.0000   1.0000   1.0000
     0.7590  -0.0104  -0.0211  -0.0000  -0.0000

          k = 0.9983 0.8586 0.2708 (  3264 PWs)   bands (ev):

   -49.8035 -26.2177 -25.9194 -25.7448 -10.8906  -8.8989  -8.6912  -0.5588
     0.6370   0.8949   1.8118   1.8941   1.9034   2.5965   3.1845   3.9349
     8.4720   9.1905   9.4000   9.7159  11.3983

     occupation numbers 
     1.0000   1.0000   1.0000   1.0000   1.0000   1.0000   1.0000   1.0000
     1.0000   1.0000   1.0000   1.0000   1.0000   1.0000   1.0000   1.0000
    -0.0000  -0.0000  -0.0000  -0.0000  -0.0000

          k = 0.0000 0.0000 0.2708 (  3268 PWs)   bands (ev):

   -49.8215 -26.0546 -25.7899 -25.7121 -12.3806  -9.4298  -8.9388   0.9184
     2.5556   2.5811   2.8114   3.1756   3.4062   3.5784   4.0333   4.1666
     5.5531   7.2183   7.4600   8.8341   9.6923

     occupation numbers 
     1.0000   1.0000   1.0000   1.0000   1.0000   1.0000   1.0000   1.0000
     1.0000   1.0000   1.0000   1.0000   1.0000   1.0000   1.0000   1.0000
     1.0000  -0.0015  -0.0000  -0.0000  -0.0000

          k = 0.0000-0.2147 0.3385 (  3258 PWs)   bands (ev):

   -49.8209 -26.0823 -25.7889 -25.7112 -12.2020  -9.3616  -8.9902   1.0734
     2.1587   2.4271   2.6041   2.7766   3.2530   3.4548   3.9916   4.0869
     5.5726   7.6420   7.7335   8.9001  10.1552

     occupation numbers 
     1.0000   1.0000   1.0000   1.0000   1.0000   1.0000   1.0000   1.0000
     1.0000   1.0000   1.0000   1.0000   1.0000   1.0000   1.0000   1.0000
     1.0000  -0.0000  -0.0000  -0.0000  -0.0000

          k = 0.2496 0.0000 0.3385 (  3262 PWs)   bands (ev):

   -49.8193 -26.0521 -25.7843 -25.7441 -12.3632  -9.3206  -8.9695   1.1486
     2.1131   2.5791   2.8437   2.9620   3.3160   3.6531   3.9107   3.9276
     6.0431   7.0903   7.3994   8.7253   9.9504

     occupation numbers 
     1.0000   1.0000   1.0000   1.0000   1.0000   1.0000   1.0000   1.0000
     1.0000   1.0000   1.0000   1.0000   1.0000   1.0000   1.0000   1.0000
     1.0000  -0.0205  -0.0000  -0.0000  -0.0000

          k =-1.9966-0.4293-0.1354 (  3257 PWs)   bands (ev):

   -49.8197 -26.1480 -25.7865 -25.7091 -11.7414  -9.2610  -9.0364   0.9829
     1.2752   1.6910   2.3303   2.6487   2.8944   3.1225   3.8409   4.3112
     5.6172   8.4259   8.5359   8.9358  10.7483

     occupation numbers 
     1.0000   1.0000   1.0000   1.0000   1.0000   1.0000   1.0000   1.0000
     1.0000   1.0000   1.0000   1.0000   1.0000   1.0000   1.0000   1.0000
     1.0000  -0.0000  -0.0000  -0.0000  -0.0000

          k =-1.7470-0.2147-0.1354 (  3260 PWs)   bands (ev):

   -49.8188 -26.0797 -25.7833 -25.7431 -12.1850  -9.2558  -9.0141   1.2895
     1.9257   2.3517   2.4515   2.7769   3.0863   3.3929   3.6985   4.1398
     6.0733   7.5084   7.6717   8.7637  10.3665

     occupation numbers 
     1.0000   1.0000   1.0000   1.0000   1.0000   1.0000   1.0000   1.0000
     1.0000   1.0000   1.0000   1.0000   1.0000   1.0000   1.0000   1.0000
     1.0000  -0.0000  -0.0000  -0.0000  -0.0000

          k =-1.4974 0.0000-0.1354 (  3278 PWs)   bands (ev):

   -49.8143 -26.0461 -25.8205 -25.7707 -12.3220  -9.1640  -8.9119   1.1798
     1.5896   2.0939   2.6144   2.9428   3.5762   3.6331   3.7954   3.8947
     6.8483   6.9403   7.1193   8.7631   9.9462

     occupation numbers 
     1.0000   1.0000   1.0000   1.0000   1.0000   1.0000   1.0000   1.0000
     1.0000   1.0000   1.0000   1.0000   1.0000   1.0000   1.0000   1.0000
     0.3555   0.0279  -0.0132  -0.0000  -0.0000

          k = 0.0000 1.0733-0.0677 (  3264 PWs)   bands (ev):

   -49.8186 -26.2122 -25.7840 -25.7070 -11.2249  -9.2103  -9.0292  -0.1420
     1.0100   1.2577   2.3755   2.5609   2.6607   2.9002   3.8347   4.2953
     5.6545   8.9194   9.2240   9.3619  10.9558

     occupation numbers 
     1.0000   1.0000   1.0000   1.0000   1.0000   1.0000   1.0000   1.0000
     1.0000   1.0000   1.0000   1.0000   1.0000   1.0000   1.0000   1.0000
     1.0000  -0.0000  -0.0000  -0.0000  -0.0000

          k =-1.7470-0.4293-0.0677 (  3269 PWs)   bands (ev):

   -49.8177 -26.1452 -25.7809 -25.7410 -11.7252  -9.1568  -9.0554   1.0320
     1.4408   1.6995   1.9102   2.4796   2.9708   3.2276   3.3347   4.3034
     6.1096   8.3604   8.4134   8.8289  10.9483

     occupation numbers 
     1.0000   1.0000   1.0000   1.0000   1.0000   1.0000   1.0000   1.0000
     1.0000   1.0000   1.0000   1.0000   1.0000   1.0000   1.0000   1.0000
     1.0000  -0.0000  -0.0000  -0.0000  -0.0000

          k =-1.4974-0.2147-0.0677 (  3281 PWs)   bands (ev):

   -49.8139 -26.0734 -25.8195 -25.7697 -12.1445  -9.1332  -8.9185   1.2183
     1.5303   1.9776   2.4444   2.5435   3.1176   3.3114   3.7210   4.1300
     6.9738   7.2456   7.4609   8.7461  10.3236

     occupation numbers 
     1.0000   1.0000   1.0000   1.0000   1.0000   1.0000   1.0000   1.0000
     1.0000   1.0000   1.0000   1.0000   1.0000   1.0000   1.0000   1.0000
    -0.0180  -0.0007  -0.0000  -0.0000  -0.0000

          k =-1.2479 0.0000-0.0677 (  3280 PWs)   bands (ev):

   -49.8092 -26.0400 -25.8959 -25.7570 -12.2811  -9.0638  -8.7856   0.8994
     1.0395   2.0168   2.3856   3.1022   3.5645   3.6469   3.8277   3.9034
     6.7112   6.7620   7.9352   9.2165   9.7423

     occupation numbers 
     1.0000   1.0000   1.0000   1.0000   1.0000   1.0000   1.0000   1.0000
     1.0000   1.0000   1.0000   1.0000   1.0000   1.0000   1.0000   1.0000
     0.9476   0.7806  -0.0000  -0.0000  -0.0000

          k = 0.0000 0.8586 0.0000 (  3274 PWs)   bands (ev):

   -49.8183 -26.2384 -25.7830 -25.7061 -10.9888  -9.2657  -8.9447  -0.6314
     0.8432   1.0114   2.4355   2.6331   2.7303   2.7882   3.8952   4.1815
     5.6616   8.8609   9.5973   9.7009  10.8863

     occupation numbers 
     1.0000   1.0000   1.0000   1.0000   1.0000   1.0000   1.0000   1.0000
     1.0000   1.0000   1.0000   1.0000   1.0000   1.0000   1.0000   1.0000
     1.0000  -0.0000  -0.0000  -0.0000  -0.0000

          k = 0.2496 1.0733 0.0000 (  3268 PWs)   bands (ev):

   -49.8165 -26.2092 -25.7785 -25.7388 -11.2100  -9.1261  -9.0263  -0.1302
     1.1478   1.3085   2.0039   2.1450   3.0169   3.1088   3.2366   4.2052
     6.1235   8.7681   9.2468   9.2555  11.2032

     occupation numbers 
     1.0000   1.0000   1.0000   1.0000   1.0000   1.0000   1.0000   1.0000
     1.0000   1.0000   1.0000   1.0000   1.0000   1.0000   1.0000   1.0000
     1.0000  -0.0000  -0.0000  -0.0000  -0.0000

          k =-1.4974-0.4293 0.0000 (  3277 PWs)   bands (ev):

   -49.8127 -26.1385 -25.8171 -25.7674 -11.6865  -9.0691  -8.9238   1.0834
     1.2657   1.5928   1.7579   2.0222   2.7064   3.1193   3.5668   4.0756
     6.9895   8.1620   8.2878   8.8166  10.9364

     occupation numbers 
     1.0000   1.0000   1.0000   1.0000   1.0000   1.0000   1.0000   1.0000
     1.0000   1.0000   1.0000   1.0000   1.0000   1.0000   1.0000   1.0000
    -0.0287  -0.0000  -0.0000  -0.0000  -0.0000

          k =-1.2479-0.2147 0.0000 (  3272 PWs)   bands (ev):

   -49.8086 -26.0672 -25.8948 -25.7560 -12.1042  -9.0487  -8.7763   0.9297
     1.0549   1.7838   2.3475   2.6363   3.0597   3.4148   3.8276   3.9423
     7.0659   7.2194   7.9516   9.2222  10.1225

     occupation numbers 
     1.0000   1.0000   1.0000   1.0000   1.0000   1.0000   1.0000   1.0000
     1.0000   1.0000   1.0000   1.0000   1.0000   1.0000   1.0000   1.0000
    -0.0274  -0.0015  -0.0000  -0.0000  -0.0000

          k =-0.9983 0.0000 0.0000 (  3293 PWs)   bands (ev):

   -49.8072 -26.0375 -25.9268 -25.7513 -12.2643  -8.9798  -8.7802   0.7017
     1.2097   1.9224   2.1019   3.3079   3.4110   3.5359   3.7205   3.9221
     6.6216   6.7343   8.4295   9.7703   9.7961

     occupation numbers 
     1.0000   1.0000   1.0000   1.0000   1.0000   1.0000   1.0000   1.0000
     1.0000   1.0000   1.0000   1.0000   1.0000   1.0000   1.0000   1.0000
     1.0354   0.8834  -0.0000  -0.0000  -0.0000

          k = 0.0000 0.0000 0.4061 (  3242 PWs)   bands (ev):

   -49.8212 -26.0546 -25.7899 -25.7120 -12.3799  -9.3307  -9.0527   1.2367
     2.3134   2.6342   2.7895   3.3080   3.3487   3.4018   3.8813   4.0909
     5.5621   7.2187   7.5298   8.9575   9.8748

     occupation numbers 
     1.0000   1.0000   1.0000   1.0000   1.0000   1.0000   1.0000   1.0000
     1.0000   1.0000   1.0000   1.0000   1.0000   1.0000   1.0000   1.0000
     1.0000  -0.0015  -0.0000  -0.0000  -0.0000

          k =-1.9966-0.2147-0.0677 (  3259 PWs)   bands (ev):

   -49.8210 -26.0823 -25.7889 -25.7112 -12.2014  -9.2539  -9.1086   1.3502
     2.1544   2.4076   2.4890   2.6650   3.2231   3.3877   3.9229   4.0890
     5.5808   7.6418   7.7685   8.9873  10.3143

     occupation numbers 
     1.0000   1.0000   1.0000   1.0000   1.0000   1.0000   1.0000   1.0000
     1.0000   1.0000   1.0000   1.0000   1.0000   1.0000   1.0000   1.0000
     1.0000  -0.0000  -0.0000  -0.0000  -0.0000

          k =-1.7470 0.0000-0.0677 (  3263 PWs)   bands (ev):

   -49.8193 -26.0521 -25.7843 -25.7440 -12.3627  -9.2389  -9.0591   1.4439
     1.8099   2.6760   2.8225   2.8641   3.4429   3.6532   3.8031   3.8430
     6.0787   7.0818   7.4338   8.7617   9.9763

     occupation numbers 
     1.0000   1.0000   1.0000   1.0000   1.0000   1.0000   1.0000   1.0000
     1.0000   1.0000   1.0000   1.0000   1.0000   1.0000   1.0000   1.0000
     1.0000  -0.0229  -0.0000  -0.0000  -0.0000

          k = 0.0000 1.2879 0.0000 (  3268 PWs)   bands (ev):

   -49.8199 -26.1480 -25.7865 -25.7091 -11.7411  -9.1614  -9.1407   1.0028
     1.4292   1.6437   2.2662   2.6750   2.8899   2.9775   3.8036   4.3652
     5.6214   8.4330   8.5359   8.9718  10.8256

     occupation numbers 
     1.0000   1.0000   1.0000   1.0000   1.0000   1.0000   1.0000   1.0000
     1.0000   1.0000   1.0000   1.0000   1.0000   1.0000   1.0000   1.0000
     1.0000  -0.0000  -0.0000  -0.0000  -0.0000

          k =-1.7470-0.2147 0.0000 (  3268 PWs)   bands (ev):

   -49.8189 -26.0797 -25.7833 -25.7431 -12.1847  -9.1927  -9.0811   1.5067
     1.7152   2.4018   2.4224   2.7836   3.0775   3.3571   3.6593   4.1454
     6.0931   7.5065   7.6783   8.7853  10.3895

     occupation numbers 
     1.0000   1.0000   1.0000   1.0000   1.0000   1.0000   1.0000   1.0000
     1.0000   1.0000   1.0000   1.0000   1.0000   1.0000   1.0000   1.0000
     1.0000  -0.0000  -0.0000  -0.0000  -0.0000

          k =-1.4974 0.0000 0.0000 (  3291 PWs)   bands (ev):

   -49.8145 -26.0461 -25.8205 -25.7707 -12.3219  -9.1532  -8.9229   1.2018
     1.5000   2.1199   2.6308   2.9279   3.6759   3.6851   3.7068   3.9047
     6.8321   6.9784   7.1208   8.6953   9.9021

     occupation numbers 
     1.0000   1.0000   1.0000   1.0000   1.0000   1.0000   1.0000   1.0000
     1.0000   1.0000   1.0000   1.0000   1.0000   1.0000   1.0000   1.0000
     0.4375  -0.0218  -0.0129  -0.0000  -0.0000

          k =-1.9966-1.7173-0.5415 (  3234 PWs)   bands (ev):

   -49.8212 -26.0546 -25.7899 -25.7120 -12.3795  -9.2443  -9.1452   1.4587
     2.0961   2.6730   2.7823   3.3173   3.3501   3.3835   3.7963   4.0617
     5.5627   7.2189   7.5583   9.0086   9.9412

     occupation numbers 
     1.0000   1.0000   1.0000   1.0000   1.0000   1.0000   1.0000   1.0000
     1.0000   1.0000   1.0000   1.0000   1.0000   1.0000   1.0000   1.0000
     1.0000  -0.0015  -0.0000  -0.0000  -0.0000

     the Fermi energy is     6.8200 ev

!    total energy              =    -534.95906454 Ry

     total all-electron energy =     -9636.849307 Ry
     estimated scf accuracy    <          5.0E-11 Ry
     smearing contrib. (-TS)   =      -0.00022887 Ry
     internal energy E=F+TS    =    -534.95883567 Ry

     The total energy is F=E-TS. E is the sum of the following terms:
     one-electron contribution =     -93.93750449 Ry
     hartree contribution      =      61.21935302 Ry
     xc contribution           =     -39.53509640 Ry
     ewald contribution        =    -135.48921389 Ry
     one-center paw contrib.   =    -327.21637392 Ry
      -> PAW hartree energy AE =      28.91329820 Ry
      -> PAW hartree energy PS =     -28.88320942 Ry
      -> PAW xc energy AE      =     -17.01419214 Ry
      -> PAW xc energy PS      =       7.38961107 Ry
      -> total E_H with PAW    =      61.24944180 Ry
      -> total E_XC with PAW   =     -49.15967747 Ry

     convergence has been achieved in  12 iterations

     Forces acting on atoms (cartesian axes, Ry/au):

     atom    1 type  1   force =     0.00000000    0.00000000    0.00000000
     atom    2 type  2   force =     0.00000000    0.00000000    0.03618654
     atom    3 type  2   force =     0.00000000    0.00000000   -0.03618654
     atom    4 type  3   force =     0.00000000    0.00000000    0.00000000
     The non-local contrib.  to forces
     atom    1 type  1   force =     0.00000000    0.00000000    0.00000000
     atom    2 type  2   force =     0.00000000    0.00000000    0.10996833
     atom    3 type  2   force =    -0.00000000   -0.00000000   -0.10996833
     atom    4 type  3   force =     0.00000000    0.00000000    0.00000000
     The ionic contribution  to forces
     atom    1 type  1   force =    -0.00000000   -0.00000000    0.00000000
     atom    2 type  2   force =     0.00000001    0.00000000  -10.07462875
     atom    3 type  2   force =    -0.00000001   -0.00000000   10.07462875
     atom    4 type  3   force =    -0.00000000   -0.00000000    0.00000000
     The local contribution  to forces
     atom    1 type  1   force =    -0.00000000    0.00000000   -0.00000000
     atom    2 type  2   force =     0.00000002   -0.00000003   10.00000018
     atom    3 type  2   force =    -0.00000002    0.00000003  -10.00000018
     atom    4 type  3   force =    -0.00000000    0.00000000    0.00000000
     The core correction contribution to forces
     atom    1 type  1   force =     0.00000000    0.00000000    0.00000000
     atom    2 type  2   force =    -0.00000000    0.00000000    0.00083683
     atom    3 type  2   force =     0.00000000   -0.00000000   -0.00083683
     atom    4 type  3   force =    -0.00000000   -0.00000000    0.00000000
     The Hubbard contrib.    to forces
     atom    1 type  1   force =     0.00000000    0.00000000    0.00000000
     atom    2 type  2   force =     0.00000000    0.00000000    0.00000000
     atom    3 type  2   force =     0.00000000    0.00000000    0.00000000
     atom    4 type  3   force =     0.00000000    0.00000000    0.00000000
     The SCF correction term to forces
     atom    1 type  1   force =     0.00000000   -0.00000000   -0.00000000
     atom    2 type  2   force =    -0.00000000    0.00000000    0.00000995
     atom    3 type  2   force =     0.00000000   -0.00000000   -0.00000995
     atom    4 type  3   force =     0.00000000    0.00000000   -0.00000000

     Total force =     0.051175     Total SCF correction =     0.000014


     Computing stress (Cartesian axis) and pressure

          total   stress  (Ry/bohr**3)                   (kbar)     P=      -42.31
  -0.00028407   0.00000000   0.00000000          -41.79        0.00        0.00
   0.00000000  -0.00028642  -0.00000000            0.00      -42.13       -0.00
   0.00000000  -0.00000000  -0.00029240            0.00       -0.00      -43.01

     kinetic stress (kbar)  14743.98      0.00     -0.00
                               -0.00  14842.00     -0.00
                                0.00      0.00  14757.58

     local   stress (kbar) -18872.75      0.00      0.00
                                0.00 -24240.14      0.00
                                0.00      0.00   4129.01

     nonloc. stress (kbar)   8001.40      0.00      0.00
                                0.00   7923.34      0.00
                                0.00      0.00   7995.84

     hartree stress (kbar)   8370.08     -0.00      0.00
                               -0.00  10123.71     -0.00
                                0.00     -0.00  -2058.01

     exc-cor stress (kbar)  -1130.42     -0.00     -0.00
                               -0.00  -1120.57     -0.00
                               -0.00     -0.00  -1129.92

     corecor stress (kbar)  -2028.95     -0.00      0.00
                               -0.00  -2029.02      0.00
                                0.00      0.00  -2028.80

     ewald   stress (kbar)  -9125.13     -0.00     -0.00
                               -0.00  -5541.44     -0.00
                               -0.00     -0.00 -21708.70

     hubbard stress (kbar)      0.00      0.00      0.00
                                0.00      0.00      0.00
                                0.00      0.00      0.00

     DFT-D   stress (kbar)      0.00      0.00      0.00
                                0.00      0.00      0.00
                                0.00      0.00      0.00

     XDM     stress (kbar)      0.00      0.00      0.00
                                0.00      0.00      0.00
                                0.00      0.00      0.00

     dft-nl  stress (kbar)      0.00      0.00      0.00
                                0.00      0.00      0.00
                                0.00      0.00      0.00

     TS-vdW  stress (kbar)      0.00      0.00      0.00
                                0.00      0.00      0.00
                                0.00      0.00      0.00



     Writing output data file /zfs_data/gutierre/Scratch/Cl2NbO/convergence/cutoff/8x8x8/50/tmp/Cl2NbO.save/
 
     init_run     :      1.11s CPU      1.18s WALL (       1 calls)
     electrons    :     24.95s CPU     26.15s WALL (       1 calls)
     forces       :      0.23s CPU      0.23s WALL (       1 calls)
     stress       :      0.51s CPU      0.52s WALL (       1 calls)

     Called by init_run:
     wfcinit      :      0.75s CPU      0.80s WALL (       1 calls)
     wfcinit:atom :      0.00s CPU      0.00s WALL (      95 calls)
     wfcinit:wfcr :      0.73s CPU      0.77s WALL (      95 calls)
     potinit      :      0.14s CPU      0.15s WALL (       1 calls)
     hinit0       :      0.15s CPU      0.16s WALL (       1 calls)

     Called by electrons:
     c_bands      :     19.77s CPU     20.78s WALL (      12 calls)
     sum_band     :      4.06s CPU      4.21s WALL (      12 calls)
     v_of_rho     :      0.23s CPU      0.24s WALL (      13 calls)
     v_h          :      0.02s CPU      0.02s WALL (      13 calls)
     v_xc         :      0.24s CPU      0.26s WALL (      15 calls)
     newd         :      0.25s CPU      0.25s WALL (      13 calls)
     PAW_pot      :      0.68s CPU      0.69s WALL (      13 calls)
     mix_rho      :      0.03s CPU      0.03s WALL (      12 calls)

     Called by c_bands:
     init_us_2    :      0.16s CPU      0.17s WALL (    2565 calls)
     cegterg      :     19.31s CPU     20.27s WALL (    1140 calls)

     Called by sum_band:
     sum_band:wei :      0.04s CPU      0.04s WALL (      12 calls)
     sum_band:loo :      3.75s CPU      3.89s WALL (      12 calls)
     sum_band:buf :      0.01s CPU      0.01s WALL (    1140 calls)
     sum_band:ini :      0.07s CPU      0.07s WALL (    1140 calls)
     sum_band:cal :      0.10s CPU      0.10s WALL (    1140 calls)
     sum_band:bec :      0.02s CPU      0.02s WALL (    1140 calls)
     addusdens    :      0.24s CPU      0.25s WALL (      12 calls)
     addusd:skk   :      0.00s CPU      0.00s WALL (      36 calls)
     addusd:dgemm :      0.07s CPU      0.08s WALL (      36 calls)
     addusd:qvan2 :      0.16s CPU      0.16s WALL (      36 calls)

     Called by *egterg:
     cdiaghg      :      2.20s CPU      2.39s WALL (    4083 calls)
     cegterg:over :      0.27s CPU      0.28s WALL (    2943 calls)
     cegterg:upda :      0.07s CPU      0.07s WALL (    2943 calls)
     cegterg:last :      0.10s CPU      0.10s WALL (    2194 calls)
     h_psi        :     16.87s CPU     17.65s WALL (    4178 calls)
     s_psi        :      0.10s CPU      0.11s WALL (    4178 calls)
     g_psi        :      0.02s CPU      0.02s WALL (    2943 calls)

     Called by h_psi:
     h_psi:calbec :      0.30s CPU      0.32s WALL (    4178 calls)
     vloc_psi     :     16.37s CPU     17.13s WALL (    4178 calls)
     add_vuspsi   :      0.13s CPU      0.14s WALL (    4178 calls)

     General routines
     calbec       :      0.42s CPU      0.44s WALL (    5793 calls)
     fft          :      0.15s CPU      0.16s WALL (     192 calls)
     ffts         :      0.01s CPU      0.01s WALL (      25 calls)
     fftw         :     18.18s CPU     19.01s WALL (  145398 calls)
     interpolate  :      0.01s CPU      0.02s WALL (      13 calls)
 
     Parallel routines
     fft_scatt_xy :      2.11s CPU      2.21s WALL (  145615 calls)
     fft_scatt_yz :     11.05s CPU     11.54s WALL (  145615 calls)

     PAW routines
     PAW_pot      :      0.68s CPU      0.69s WALL (      13 calls)
     PAW_symme    :      0.01s CPU      0.01s WALL (      25 calls)
 
     PWSCF        :     27.44s CPU     29.14s WALL

 
   This run was terminated on:  15:54:35  18May2022            

=------------------------------------------------------------------------------=
   JOB DONE.
=------------------------------------------------------------------------------=
