MPI startup(): Warning: I_MPI_PMI_LIBRARY will be ignored since the hydra process manager was found
MPI startup(): Warning: I_MPI_PMI_LIBRARY will be ignored since the hydra process manager was found
MPI startup(): Warning: I_MPI_PMI_LIBRARY will be ignored since the hydra process manager was found
MPI startup(): Warning: I_MPI_PMI_LIBRARY will be ignored since the hydra process manager was found
MPI startup(): Warning: I_MPI_PMI_LIBRARY will be ignored since the hydra process manager was found
MPI startup(): Warning: I_MPI_PMI_LIBRARY will be ignored since the hydra process manager was found
MPI startup(): Warning: I_MPI_PMI_LIBRARY will be ignored since the hydra process manager was found
MPI startup(): Warning: I_MPI_PMI_LIBRARY will be ignored since the hydra process manager was found
MPI startup(): Warning: I_MPI_PMI_LIBRARY will be ignored since the hydra process manager was found
MPI startup(): Warning: I_MPI_PMI_LIBRARY will be ignored since the hydra process manager was found
MPI startup(): Warning: I_MPI_PMI_LIBRARY will be ignored since the hydra process manager was found
MPI startup(): Warning: I_MPI_PMI_LIBRARY will be ignored since the hydra process manager was found
MPI startup(): Warning: I_MPI_PMI_LIBRARY will be ignored since the hydra process manager was found
MPI startup(): Warning: I_MPI_PMI_LIBRARY will be ignored since the hydra process manager was found
MPI startup(): Warning: I_MPI_PMI_LIBRARY will be ignored since the hydra process manager was found
MPI startup(): Warning: I_MPI_PMI_LIBRARY will be ignored since the hydra process manager was found
MPI startup(): Warning: I_MPI_PMI_LIBRARY will be ignored since the hydra process manager was found
MPI startup(): Warning: I_MPI_PMI_LIBRARY will be ignored since the hydra process manager was found
MPI startup(): Warning: I_MPI_PMI_LIBRARY will be ignored since the hydra process manager was found
MPI startup(): Warning: I_MPI_PMI_LIBRARY will be ignored since the hydra process manager was found
MPI startup(): Warning: I_MPI_PMI_LIBRARY will be ignored since the hydra process manager was found
MPI startup(): Warning: I_MPI_PMI_LIBRARY will be ignored since the hydra process manager was found
MPI startup(): Warning: I_MPI_PMI_LIBRARY will be ignored since the hydra process manager was found
MPI startup(): Warning: I_MPI_PMI_LIBRARY will be ignored since the hydra process manager was found

     Program PWSCF v.6.7MaX starts on 30Jul2021 at 18:55: 3 

     This program is part of the open-source Quantum ESPRESSO suite
     for quantum simulation of materials; please cite
         "P. Giannozzi et al., J. Phys.:Condens. Matter 21 395502 (2009);
         "P. Giannozzi et al., J. Phys.:Condens. Matter 29 465901 (2017);
          URL http://www.quantum-espresso.org", 
     in publications or presentations arising from this work. More details at
     http://www.quantum-espresso.org/quote

     Parallel version (MPI), running on    24 processors

     MPI processes distributed on     1 nodes
     R & G space division:  proc/nbgrp/npool/nimage =      24
     Waiting for input...
     Reading input from standard input

     Current dimensions of program PWSCF are:
     Max number of different atomic species (ntypx) = 10
     Max number of k-points (npk) =  40000
     Max angular momentum in pseudopotentials (lmaxx) =  3
     file Cr.rel-pbe-spn-kjpaw_psl.1.0.0.UPF: wavefunction(s)  3S 3P 3P 3D 3D renormalized
     file Si.rel-pbe-n-kjpaw_psl.1.0.0.UPF: wavefunction(s)  3S 3P 3P renormalized

     Subspace diagonalization in iterative solution of the eigenvalue problem:
     a serial algorithm will be used

     Message from routine setup:
     using ibrav=0 with symmetry is DISCOURAGED, use correct ibrav instead
 
     Parallelization info
     --------------------
     sticks:   dense  smooth     PW     G-vecs:    dense   smooth      PW
     Min         126      50     14                 5264     1328     212
     Max         127      51     15                 5269     1335     215
     Sum        3045    1209    357               126419    31919    5137
 


     bravais-lattice index     =            0
     lattice parameter (alat)  =       8.7475  a.u.
     unit-cell volume          =     669.3575 (a.u.)^3
     number of atoms/cell      =            8
     number of atomic types    =            2
     number of electrons       =        72.00
     number of Kohn-Sham states=           86
     kinetic-energy cutoff     =      50.0000  Ry
     charge density cutoff     =     500.0000  Ry
     scf convergence threshold =      1.0E-06
     mixing beta               =       0.7000
     number of iterations used =            8  plain     mixing
     Exchange-correlation= SLA  PW   PBX  PBC
                           (   1   4   3   4   0   0   0)
     Non magnetic calculation with spin-orbit


     celldm(1)=   8.747542  celldm(2)=   0.000000  celldm(3)=   0.000000
     celldm(4)=   0.000000  celldm(5)=   0.000000  celldm(6)=   0.000000

     crystal axes: (cart. coord. in units of alat)
               a(1) = (   1.000000   0.000000   0.000000 )  
               a(2) = (   0.000000   1.000000   0.000000 )  
               a(3) = (   0.000000   0.000000   1.000000 )  

     reciprocal axes: (cart. coord. in units 2 pi/alat)
               b(1) = (  1.000000  0.000000  0.000000 )  
               b(2) = (  0.000000  1.000000  0.000000 )  
               b(3) = (  0.000000  0.000000  1.000000 )  


     PseudoPot. # 1 for Cr read from file:
     ../../../../pseudo/Cr.rel-pbe-spn-kjpaw_psl.1.0.0.UPF
     MD5 check sum: 1e24e2b5251376a8b945118fca0c7981
     Pseudo is Projector augmented-wave + core cor, Zval = 14.0
     Generated using &quot;atomic&quot; code by A. Dal Corso  v.6.3
     Shape of augmentation charge: PSQ
     Using radial grid of 1183 points, 10 beta functions with: 
                l(1) =   0
                l(2) =   0
                l(3) =   1
                l(4) =   1
                l(5) =   1
                l(6) =   1
                l(7) =   2
                l(8) =   2
                l(9) =   2
               l(10) =   2
     Q(r) pseudized with 0 coefficients 


     PseudoPot. # 2 for Si read from file:
     ../../../../pseudo/Si.rel-pbe-n-kjpaw_psl.1.0.0.UPF
     MD5 check sum: d74f6caf6830ea4c2076867160cab1b0
     Pseudo is Projector augmented-wave + core cor, Zval =  4.0
     Generated using &quot;atomic&quot; code by A. Dal Corso  v.6.3
     Shape of augmentation charge: PSQ
     Using radial grid of 1141 points, 10 beta functions with: 
                l(1) =   0
                l(2) =   0
                l(3) =   1
                l(4) =   1
                l(5) =   1
                l(6) =   1
                l(7) =   2
                l(8) =   2
                l(9) =   2
               l(10) =   2
     Q(r) pseudized with 0 coefficients 


     atomic species   valence    mass     pseudopotential
        Cr            14.00    51.99600     Cr( 1.00)
        Si             4.00    28.08500     Si( 1.00)

     12 Sym. Ops. (no inversion) found ( 9 have fractional translation)


                                    s                        frac. trans.

      isym =  1     identity                                     

 cryst.   s( 1) = (     1          0          0      )
                  (     0          1          0      )
                  (     0          0          1      )

 cart.    s( 1) = (  1.0000000  0.0000000  0.0000000 )
                  (  0.0000000  1.0000000  0.0000000 )
                  (  0.0000000  0.0000000  1.0000000 )


      isym =  2     180 deg rotation - cart. axis [0,0,1]        

 cryst.   s( 2) = (    -1          0          0      )    f =(  0.5000000 )
                  (     0         -1          0      )       (  0.0000000 )
                  (     0          0          1      )       ( -0.5000000 )

 cart.    s( 2) = ( -1.0000000  0.0000000  0.0000000 )    f =(  0.5000000 )
                  (  0.0000000 -1.0000000  0.0000000 )       (  0.0000000 )
                  (  0.0000000  0.0000000  1.0000000 )       ( -0.5000000 )


      isym =  3     180 deg rotation - cart. axis [0,1,0]        

 cryst.   s( 3) = (    -1          0          0      )    f =(  0.0000000 )
                  (     0          1          0      )       ( -0.5000000 )
                  (     0          0         -1      )       (  0.5000000 )

 cart.    s( 3) = ( -1.0000000  0.0000000  0.0000000 )    f =(  0.0000000 )
                  (  0.0000000  1.0000000  0.0000000 )       ( -0.5000000 )
                  (  0.0000000  0.0000000 -1.0000000 )       (  0.5000000 )


      isym =  4     180 deg rotation - cart. axis [1,0,0]        

 cryst.   s( 4) = (     1          0          0      )    f =(  0.5000000 )
                  (     0         -1          0      )       (  0.5000000 )
                  (     0          0         -1      )       (  0.0000000 )

 cart.    s( 4) = (  1.0000000  0.0000000  0.0000000 )    f =(  0.5000000 )
                  (  0.0000000 -1.0000000  0.0000000 )       (  0.5000000 )
                  (  0.0000000  0.0000000 -1.0000000 )       (  0.0000000 )


      isym =  5     120 deg rotation - cart. axis [-1,-1,-1]     

 cryst.   s( 5) = (     0          0          1      )
                  (     1          0          0      )
                  (     0          1          0      )

 cart.    s( 5) = (  0.0000000  1.0000000  0.0000000 )
                  (  0.0000000  0.0000000  1.0000000 )
                  (  1.0000000  0.0000000  0.0000000 )


      isym =  6     120 deg rotation - cart. axis [-1,1,1]       

 cryst.   s( 6) = (     0          0         -1      )    f =(  0.0000000 )
                  (    -1          0          0      )       ( -0.5000000 )
                  (     0          1          0      )       (  0.5000000 )

 cart.    s( 6) = (  0.0000000 -1.0000000  0.0000000 )    f =(  0.0000000 )
                  (  0.0000000  0.0000000  1.0000000 )       ( -0.5000000 )
                  ( -1.0000000  0.0000000  0.0000000 )       (  0.5000000 )


      isym =  7     120 deg rotation - cart. axis [1,1,-1]       

 cryst.   s( 7) = (     0          0         -1      )    f =(  0.5000000 )
                  (     1          0          0      )       (  0.5000000 )
                  (     0         -1          0      )       (  0.0000000 )

 cart.    s( 7) = (  0.0000000  1.0000000  0.0000000 )    f =(  0.5000000 )
                  (  0.0000000  0.0000000 -1.0000000 )       (  0.5000000 )
                  ( -1.0000000  0.0000000  0.0000000 )       (  0.0000000 )


      isym =  8     120 deg rotation - cart. axis [1,-1,1]       

 cryst.   s( 8) = (     0          0          1      )    f =(  0.5000000 )
                  (    -1          0          0      )       (  0.0000000 )
                  (     0         -1          0      )       ( -0.5000000 )

 cart.    s( 8) = (  0.0000000 -1.0000000  0.0000000 )    f =(  0.5000000 )
                  (  0.0000000  0.0000000 -1.0000000 )       (  0.0000000 )
                  (  1.0000000  0.0000000  0.0000000 )       ( -0.5000000 )


      isym =  9     120 deg rotation - cart. axis [1,1,1]        

 cryst.   s( 9) = (     0          1          0      )
                  (     0          0          1      )
                  (     1          0          0      )

 cart.    s( 9) = (  0.0000000  0.0000000  1.0000000 )
                  (  1.0000000  0.0000000  0.0000000 )
                  (  0.0000000  1.0000000  0.0000000 )


      isym = 10     120 deg rotation - cart. axis [-1,1,-1]      

 cryst.   s(10) = (     0         -1          0      )    f =(  0.5000000 )
                  (     0          0         -1      )       (  0.5000000 )
                  (     1          0          0      )       (  0.0000000 )

 cart.    s(10) = (  0.0000000  0.0000000  1.0000000 )    f =(  0.5000000 )
                  ( -1.0000000  0.0000000  0.0000000 )       (  0.5000000 )
                  (  0.0000000 -1.0000000  0.0000000 )       (  0.0000000 )


      isym = 11     120 deg rotation - cart. axis [1,-1,-1]      

 cryst.   s(11) = (     0         -1          0      )    f =(  0.5000000 )
                  (     0          0          1      )       (  0.0000000 )
                  (    -1          0          0      )       ( -0.5000000 )

 cart.    s(11) = (  0.0000000  0.0000000 -1.0000000 )    f =(  0.5000000 )
                  ( -1.0000000  0.0000000  0.0000000 )       (  0.0000000 )
                  (  0.0000000  1.0000000  0.0000000 )       ( -0.5000000 )


      isym = 12     120 deg rotation - cart. axis [-1,-1,1]      

 cryst.   s(12) = (     0          1          0      )    f =(  0.0000000 )
                  (     0          0         -1      )       ( -0.5000000 )
                  (    -1          0          0      )       (  0.5000000 )

 cart.    s(12) = (  0.0000000  0.0000000 -1.0000000 )    f =(  0.0000000 )
                  (  1.0000000  0.0000000  0.0000000 )       ( -0.5000000 )
                  (  0.0000000 -1.0000000  0.0000000 )       (  0.5000000 )


   Cartesian axes

     site n.     atom                  positions (alat units)
         1           Cr  tau(   1) = (   0.8640000   0.3640000   0.1360000  )
         2           Cr  tau(   2) = (   0.3640000   0.1360000   0.8640000  )
         3           Cr  tau(   3) = (   0.1360000   0.8640000   0.3640000  )
         4           Cr  tau(   4) = (   0.6360000   0.6360000   0.6360000  )
         5           Si  tau(   5) = (   0.1540000   0.6540000   0.8460000  )
         6           Si  tau(   6) = (   0.6540000   0.8460000   0.1540000  )
         7           Si  tau(   7) = (   0.8460000   0.1540000   0.6540000  )
         8           Si  tau(   8) = (   0.3460000   0.3460000   0.3460000  )

   Crystallographic axes

     site n.     atom                  positions (cryst. coord.)
         1           Cr  tau(   1) = (  0.8640000  0.3640000  0.1360000  )
         2           Cr  tau(   2) = (  0.3640000  0.1360000  0.8640000  )
         3           Cr  tau(   3) = (  0.1360000  0.8640000  0.3640000  )
         4           Cr  tau(   4) = (  0.6360000  0.6360000  0.6360000  )
         5           Si  tau(   5) = (  0.1540000  0.6540000  0.8460000  )
         6           Si  tau(   6) = (  0.6540000  0.8460000  0.1540000  )
         7           Si  tau(   7) = (  0.8460000  0.1540000  0.6540000  )
         8           Si  tau(   8) = (  0.3460000  0.3460000  0.3460000  )

     number of k points=    45  Methfessel-Paxton smearing, width (Ry)=  0.0200
                       cart. coord. in units 2pi/alat
        k(    1) = (   0.0000000   0.0000000   0.0000000), wk =   0.0019531
        k(    2) = (   0.0000000   0.0000000   0.1250000), wk =   0.0117188
        k(    3) = (   0.0000000   0.0000000   0.2500000), wk =   0.0117188
        k(    4) = (   0.0000000   0.0000000   0.3750000), wk =   0.0117188
        k(    5) = (   0.0000000   0.0000000  -0.5000000), wk =   0.0058594
        k(    6) = (   0.0000000   0.1250000   0.1250000), wk =   0.0234375
        k(    7) = (   0.0000000   0.1250000   0.2500000), wk =   0.0234375
        k(    8) = (   0.0000000   0.1250000   0.3750000), wk =   0.0234375
        k(    9) = (   0.0000000   0.1250000  -0.5000000), wk =   0.0117188
        k(   10) = (   0.0000000   0.2500000   0.2500000), wk =   0.0234375
        k(   11) = (   0.0000000   0.2500000   0.3750000), wk =   0.0234375
        k(   12) = (   0.0000000   0.2500000  -0.5000000), wk =   0.0117188
        k(   13) = (   0.0000000   0.3750000   0.3750000), wk =   0.0234375
        k(   14) = (   0.0000000   0.3750000  -0.5000000), wk =   0.0117188
        k(   15) = (   0.0000000  -0.5000000  -0.5000000), wk =   0.0058594
        k(   16) = (   0.1250000   0.1250000   0.1250000), wk =   0.0156250
        k(   17) = (   0.1250000   0.1250000   0.2500000), wk =   0.0468750
        k(   18) = (   0.1250000   0.1250000   0.3750000), wk =   0.0468750
        k(   19) = (   0.1250000   0.1250000  -0.5000000), wk =   0.0234375
        k(   20) = (   0.1250000   0.2500000   0.2500000), wk =   0.0468750
        k(   21) = (   0.1250000   0.2500000   0.3750000), wk =   0.0468750
        k(   22) = (   0.1250000   0.2500000  -0.5000000), wk =   0.0234375
        k(   23) = (   0.1250000   0.3750000   0.3750000), wk =   0.0468750
        k(   24) = (   0.1250000   0.3750000  -0.5000000), wk =   0.0234375
        k(   25) = (   0.1250000  -0.5000000  -0.5000000), wk =   0.0117188
        k(   26) = (   0.2500000   0.2500000   0.2500000), wk =   0.0156250
        k(   27) = (   0.2500000   0.2500000   0.3750000), wk =   0.0468750
        k(   28) = (   0.2500000   0.2500000  -0.5000000), wk =   0.0234375
        k(   29) = (   0.2500000   0.3750000   0.3750000), wk =   0.0468750
        k(   30) = (   0.2500000   0.3750000  -0.5000000), wk =   0.0234375
        k(   31) = (   0.2500000  -0.5000000  -0.5000000), wk =   0.0117188
        k(   32) = (   0.3750000   0.3750000   0.3750000), wk =   0.0156250
        k(   33) = (   0.3750000   0.3750000  -0.5000000), wk =   0.0234375
        k(   34) = (   0.3750000  -0.5000000  -0.5000000), wk =   0.0117188
        k(   35) = (  -0.5000000  -0.5000000  -0.5000000), wk =   0.0019531
        k(   36) = (   0.0000000   0.2500000   0.1250000), wk =   0.0234375
        k(   37) = (   0.0000000   0.3750000   0.1250000), wk =   0.0234375
        k(   38) = (   0.0000000  -0.5000000   0.1250000), wk =   0.0117188
        k(   39) = (   0.0000000   0.3750000   0.2500000), wk =   0.0234375
        k(   40) = (   0.0000000  -0.5000000   0.2500000), wk =   0.0117188
        k(   41) = (   0.0000000  -0.5000000   0.3750000), wk =   0.0117188
        k(   42) = (  -0.1250000   0.3750000   0.2500000), wk =   0.0468750
        k(   43) = (  -0.1250000  -0.5000000   0.2500000), wk =   0.0234375
        k(   44) = (  -0.1250000  -0.5000000   0.3750000), wk =   0.0234375
        k(   45) = (  -0.2500000  -0.5000000   0.3750000), wk =   0.0234375

                       cryst. coord.
        k(    1) = (   0.0000000   0.0000000   0.0000000), wk =   0.0019531
        k(    2) = (   0.0000000   0.0000000   0.1250000), wk =   0.0117188
        k(    3) = (   0.0000000   0.0000000   0.2500000), wk =   0.0117188
        k(    4) = (   0.0000000   0.0000000   0.3750000), wk =   0.0117188
        k(    5) = (   0.0000000   0.0000000  -0.5000000), wk =   0.0058594
        k(    6) = (   0.0000000   0.1250000   0.1250000), wk =   0.0234375
        k(    7) = (   0.0000000   0.1250000   0.2500000), wk =   0.0234375
        k(    8) = (   0.0000000   0.1250000   0.3750000), wk =   0.0234375
        k(    9) = (   0.0000000   0.1250000  -0.5000000), wk =   0.0117188
        k(   10) = (   0.0000000   0.2500000   0.2500000), wk =   0.0234375
        k(   11) = (   0.0000000   0.2500000   0.3750000), wk =   0.0234375
        k(   12) = (   0.0000000   0.2500000  -0.5000000), wk =   0.0117188
        k(   13) = (   0.0000000   0.3750000   0.3750000), wk =   0.0234375
        k(   14) = (   0.0000000   0.3750000  -0.5000000), wk =   0.0117188
        k(   15) = (   0.0000000  -0.5000000  -0.5000000), wk =   0.0058594
        k(   16) = (   0.1250000   0.1250000   0.1250000), wk =   0.0156250
        k(   17) = (   0.1250000   0.1250000   0.2500000), wk =   0.0468750
        k(   18) = (   0.1250000   0.1250000   0.3750000), wk =   0.0468750
        k(   19) = (   0.1250000   0.1250000  -0.5000000), wk =   0.0234375
        k(   20) = (   0.1250000   0.2500000   0.2500000), wk =   0.0468750
        k(   21) = (   0.1250000   0.2500000   0.3750000), wk =   0.0468750
        k(   22) = (   0.1250000   0.2500000  -0.5000000), wk =   0.0234375
        k(   23) = (   0.1250000   0.3750000   0.3750000), wk =   0.0468750
        k(   24) = (   0.1250000   0.3750000  -0.5000000), wk =   0.0234375
        k(   25) = (   0.1250000  -0.5000000  -0.5000000), wk =   0.0117188
        k(   26) = (   0.2500000   0.2500000   0.2500000), wk =   0.0156250
        k(   27) = (   0.2500000   0.2500000   0.3750000), wk =   0.0468750
        k(   28) = (   0.2500000   0.2500000  -0.5000000), wk =   0.0234375
        k(   29) = (   0.2500000   0.3750000   0.3750000), wk =   0.0468750
        k(   30) = (   0.2500000   0.3750000  -0.5000000), wk =   0.0234375
        k(   31) = (   0.2500000  -0.5000000  -0.5000000), wk =   0.0117188
        k(   32) = (   0.3750000   0.3750000   0.3750000), wk =   0.0156250
        k(   33) = (   0.3750000   0.3750000  -0.5000000), wk =   0.0234375
        k(   34) = (   0.3750000  -0.5000000  -0.5000000), wk =   0.0117188
        k(   35) = (  -0.5000000  -0.5000000  -0.5000000), wk =   0.0019531
        k(   36) = (   0.0000000   0.2500000   0.1250000), wk =   0.0234375
        k(   37) = (   0.0000000   0.3750000   0.1250000), wk =   0.0234375
        k(   38) = (   0.0000000  -0.5000000   0.1250000), wk =   0.0117188
        k(   39) = (   0.0000000   0.3750000   0.2500000), wk =   0.0234375
        k(   40) = (   0.0000000  -0.5000000   0.2500000), wk =   0.0117188
        k(   41) = (   0.0000000  -0.5000000   0.3750000), wk =   0.0117188
        k(   42) = (  -0.1250000   0.3750000   0.2500000), wk =   0.0468750
        k(   43) = (  -0.1250000  -0.5000000   0.2500000), wk =   0.0234375
        k(   44) = (  -0.1250000  -0.5000000   0.3750000), wk =   0.0234375
        k(   45) = (  -0.2500000  -0.5000000   0.3750000), wk =   0.0234375

     Dense  grid:   126419 G-vectors     FFT dimensions: (  64,  64,  64)

     Smooth grid:    31919 G-vectors     FFT dimensions: (  40,  40,  40)

     Dynamical RAM for                 wfc:       0.44 MB

     Dynamical RAM for     wfc (w. buffer):      20.04 MB

     Dynamical RAM for           str. fact:       0.16 MB

     Dynamical RAM for           local pot:       0.00 MB

     Dynamical RAM for          nlocal pot:       0.69 MB

     Dynamical RAM for                qrad:       9.40 MB

     Dynamical RAM for          rho,v,vnew:       2.09 MB

     Dynamical RAM for               rhoin:       0.70 MB

     Dynamical RAM for            rho*nmix:       5.15 MB

     Dynamical RAM for           G-vectors:       0.31 MB

     Dynamical RAM for          h,s,v(r/c):       1.35 MB

     Dynamical RAM for          <psi|beta>:       0.71 MB

     Dynamical RAM for                 psi:       0.87 MB

     Dynamical RAM for                hpsi:       0.87 MB

     Dynamical RAM for                spsi:       0.87 MB

     Dynamical RAM for      wfcinit/wfcrot:       1.14 MB

     Dynamical RAM for           addusdens:      49.36 MB

     Estimated static dynamical RAM per process >      39.52 MB

     Estimated max dynamical RAM per process >      88.89 MB

     Estimated total dynamical RAM >       2.08 GB

     Initial potential from superposition of free atoms

     starting charge   71.99469, renormalised to   72.00000
     Starting wfcs are  112 randomized atomic wfcs
     Checking if some PAW data can be deallocated... 
       PAW data deallocated on   12 nodes for type:  1
       PAW data deallocated on   12 nodes for type:  2

     total cpu time spent up to now is        6.8 secs

     Self-consistent Calculation

     iteration #  1     ecut=    50.00 Ry     beta= 0.70
     Davidson diagonalization with overlap
     ethr =  1.00E-02,  avg # of iterations =  2.0

     Threshold (ethr) on eigenvalues was too large:
     Diagonalizing with lowered threshold

     Davidson diagonalization with overlap
     ethr =  2.08E-04,  avg # of iterations =  4.4

     total cpu time spent up to now is       29.4 secs

     total energy              =   -1180.28398746 Ry
     estimated scf accuracy    <       0.18878488 Ry

     iteration #  2     ecut=    50.00 Ry     beta= 0.70
     Davidson diagonalization with overlap
     ethr =  2.62E-04,  avg # of iterations =  3.2

     total cpu time spent up to now is       41.3 secs

     total energy              =   -1180.28564519 Ry
     estimated scf accuracy    <       0.08946869 Ry

     iteration #  3     ecut=    50.00 Ry     beta= 0.70
     Davidson diagonalization with overlap
     ethr =  1.24E-04,  avg # of iterations =  5.0

     total cpu time spent up to now is       55.7 secs

     total energy              =   -1180.30015474 Ry
     estimated scf accuracy    <       0.16443757 Ry

     iteration #  4     ecut=    50.00 Ry     beta= 0.70
     Davidson diagonalization with overlap
     ethr =  1.24E-04,  avg # of iterations =  4.0

     total cpu time spent up to now is       67.2 secs

     total energy              =   -1180.32340673 Ry
     estimated scf accuracy    <       0.00024520 Ry

     iteration #  5     ecut=    50.00 Ry     beta= 0.70
     Davidson diagonalization with overlap
     ethr =  3.41E-07,  avg # of iterations =  9.2

     total cpu time spent up to now is       88.5 secs

     total energy              =   -1180.32424829 Ry
     estimated scf accuracy    <       0.00151220 Ry

     iteration #  6     ecut=    50.00 Ry     beta= 0.70
     Davidson diagonalization with overlap
     ethr =  3.41E-07,  avg # of iterations =  5.3

     total cpu time spent up to now is      103.6 secs

     total energy              =   -1180.32450305 Ry
     estimated scf accuracy    <       0.00003258 Ry

     iteration #  7     ecut=    50.00 Ry     beta= 0.70
     Davidson diagonalization with overlap
     ethr =  4.53E-08,  avg # of iterations =  2.0

     total cpu time spent up to now is      112.6 secs

     total energy              =   -1180.32450199 Ry
     estimated scf accuracy    <       0.00000835 Ry

     iteration #  8     ecut=    50.00 Ry     beta= 0.70
     Davidson diagonalization with overlap
     ethr =  1.16E-08,  avg # of iterations =  4.1

     total cpu time spent up to now is      124.4 secs

     total energy              =   -1180.32450533 Ry
     estimated scf accuracy    <       0.00000230 Ry

     iteration #  9     ecut=    50.00 Ry     beta= 0.70
     Davidson diagonalization with overlap
     ethr =  3.20E-09,  avg # of iterations =  2.1

     total cpu time spent up to now is      133.2 secs

     total energy              =   -1180.32450523 Ry
     estimated scf accuracy    <       0.00000114 Ry

     iteration # 10     ecut=    50.00 Ry     beta= 0.70
     Davidson diagonalization with overlap
     ethr =  1.59E-09,  avg # of iterations =  2.4

     total cpu time spent up to now is      142.8 secs

     End of self-consistent calculation

          k = 0.0000 0.0000 0.0000 (  3911 PWs)   bands (ev):

   -56.5103 -56.5103 -56.4755 -56.4755 -56.4755 -56.4755 -56.4755 -56.4755
   -28.5819 -28.5819 -28.5744 -28.5744 -28.5744 -28.5744 -28.4853 -28.4853
   -27.6176 -27.6176 -27.6176 -27.6176 -27.5411 -27.5411 -27.5411 -27.5411
   -27.5361 -27.5361 -27.4538 -27.4538 -27.4537 -27.4537 -27.4537 -27.4537
     2.7000   2.7000   7.4585   7.4585   7.4585   7.4585   7.4675   7.4675
    10.5387  10.5387  10.5465  10.5465  10.5465  10.5465  11.9136  11.9136
    11.9136  11.9136  11.9247  11.9247  12.6048  12.6048  12.7744  12.7744
    12.7744  12.7744  13.1468  13.1468  13.1468  13.1468  13.1479  13.1479
    13.6746  13.6746  13.6746  13.6746  13.6786  13.6786  15.5565  15.5565
    15.5877  15.5877  15.5877  15.5877  15.7714  15.7714  15.7714  15.7714
    16.6705  16.6705  16.7008  16.7008  16.7008  16.7008

     occupation numbers 
     1.0000   1.0000   1.0000   1.0000   1.0000   1.0000   1.0000   1.0000
     1.0000   1.0000   1.0000   1.0000   1.0000   1.0000   1.0000   1.0000
     1.0000   1.0000   1.0000   1.0000   1.0000   1.0000   1.0000   1.0000
     1.0000   1.0000   1.0000   1.0000   1.0000   1.0000   1.0000   1.0000
     1.0000   1.0000   1.0000   1.0000   1.0000   1.0000   1.0000   1.0000
     1.0000   1.0000   1.0000   1.0000   1.0000   1.0000   1.0000   1.0000
     1.0000   1.0000   1.0000   1.0000   1.0000   1.0000   1.0000   1.0000
     1.0000   1.0000   1.0000   1.0000   1.0000   1.0000   1.0000   1.0000
     1.0000   1.0000   1.0000   1.0000   1.0000   1.0000  -0.0040  -0.0040
    -0.0026  -0.0026  -0.0026  -0.0026  -0.0001  -0.0001  -0.0001  -0.0001
    -0.0000  -0.0000  -0.0000  -0.0000  -0.0000  -0.0000

          k = 0.0000 0.0000 0.1250 (  3951 PWs)   bands (ev):

   -56.5093 -56.5093 -56.4796 -56.4796 -56.4752 -56.4752 -56.4729 -56.4729
   -28.5881 -28.5811 -28.5780 -28.5775 -28.5677 -28.5646 -28.4881 -28.4881
   -27.6310 -27.6244 -27.6084 -27.6019 -27.5503 -27.5468 -27.5432 -27.5357
   -27.5339 -27.5238 -27.4616 -27.4597 -27.4574 -27.4523 -27.4515 -27.4474
     2.8084   2.8084   6.7968   6.8000   7.5196   7.5210   7.9743   7.9829
    10.0768  10.0819  10.6150  10.6166  11.0409  11.0427  11.3220  11.3221
    11.6522  11.6561  12.5317  12.5382  12.5634  12.5816  12.7817  12.7888
    12.9255  12.9267  13.1170  13.1190  13.1817  13.1820  13.2124  13.2129
    13.5248  13.5325  13.6561  13.6576  13.9026  13.9028  15.4024  15.4205
    15.4496  15.4592  15.7281  15.7313  15.7442  15.7590  15.7709  15.7762
    16.4788  16.4957  16.6388  16.6436  16.9008  16.9213

     occupation numbers 
     1.0000   1.0000   1.0000   1.0000   1.0000   1.0000   1.0000   1.0000
     1.0000   1.0000   1.0000   1.0000   1.0000   1.0000   1.0000   1.0000
     1.0000   1.0000   1.0000   1.0000   1.0000   1.0000   1.0000   1.0000
     1.0000   1.0000   1.0000   1.0000   1.0000   1.0000   1.0000   1.0000
     1.0000   1.0000   1.0000   1.0000   1.0000   1.0000   1.0000   1.0000
     1.0000   1.0000   1.0000   1.0000   1.0000   1.0000   1.0000   1.0000
     1.0000   1.0000   1.0000   1.0000   1.0000   1.0000   1.0000   1.0000
     1.0000   1.0000   1.0000   1.0000   1.0000   1.0000   1.0000   1.0000
     1.0000   1.0000   1.0000   1.0000   1.0000   1.0000  -0.0216  -0.0186
    -0.0142  -0.0129  -0.0002  -0.0002  -0.0002  -0.0001  -0.0001  -0.0001
    -0.0000  -0.0000  -0.0000  -0.0000  -0.0000  -0.0000

          k = 0.0000 0.0000 0.2500 (  3972 PWs)   bands (ev):

   -56.5064 -56.5064 -56.4847 -56.4847 -56.4744 -56.4744 -56.4715 -56.4715
   -28.5916 -28.5847 -28.5814 -28.5790 -28.5551 -28.5521 -28.4963 -28.4961
   -27.6395 -27.6303 -27.5956 -27.5883 -27.5600 -27.5484 -27.5405 -27.5360
   -27.5304 -27.5095 -27.4718 -27.4655 -27.4634 -27.4532 -27.4509 -27.4443
     3.1286   3.1286   5.9934   5.9948   7.6910   7.6940   8.3717   8.3817
     9.7456   9.7470  10.7577  10.7628  10.8676  10.8761  11.1969  11.2042
    11.5702  11.5709  12.2675  12.2823  12.8684  12.8750  12.9146  12.9363
    13.1237  13.1276  13.1321  13.1372  13.2544  13.2550  13.2849  13.2889
    13.5465  13.5498  13.7008  13.7083  14.0492  14.0498  15.0770  15.1056
    15.3849  15.3855  15.6222  15.6374  15.7448  15.7690  15.8561  15.8799
    16.2900  16.3047  16.4982  16.5097  17.1917  17.2121

     occupation numbers 
     1.0000   1.0000   1.0000   1.0000   1.0000   1.0000   1.0000   1.0000
     1.0000   1.0000   1.0000   1.0000   1.0000   1.0000   1.0000   1.0000
     1.0000   1.0000   1.0000   1.0000   1.0000   1.0000   1.0000   1.0000
     1.0000   1.0000   1.0000   1.0000   1.0000   1.0000   1.0000   1.0000
     1.0000   1.0000   1.0000   1.0000   1.0000   1.0000   1.0000   1.0000
     1.0000   1.0000   1.0000   1.0000   1.0000   1.0000   1.0000   1.0000
     1.0000   1.0000   1.0000   1.0000   1.0000   1.0000   1.0000   1.0000
     1.0000   1.0000   1.0000   1.0000   1.0000   1.0000   1.0000   1.0000
     1.0000   1.0000   1.0000   1.0000   1.0000   1.0000   0.1670   0.1082
    -0.0246  -0.0245  -0.0015  -0.0012  -0.0002  -0.0001  -0.0000  -0.0000
    -0.0000  -0.0000  -0.0000  -0.0000  -0.0000  -0.0000

          k = 0.0000 0.0000 0.3750 (  4024 PWs)   bands (ev):

   -56.5020 -56.5020 -56.4905 -56.4905 -56.4732 -56.4732 -56.4714 -56.4714
   -28.5920 -28.5859 -28.5855 -28.5815 -28.5399 -28.5377 -28.5088 -28.5081
   -27.6426 -27.6363 -27.5825 -27.5775 -27.5687 -27.5454 -27.5448 -27.5322
   -27.5265 -27.4952 -27.4878 -27.4717 -27.4649 -27.4562 -27.4497 -27.4446
     3.6452   3.6452   5.1372   5.1377   7.9607   7.9652   8.5116   8.5205
     9.6784   9.6811  10.5136  10.5143  10.7741  10.7870  11.0315  11.0332
    12.0070  12.0093  12.1228  12.1373  12.7705  12.7857  12.9457  12.9584
    13.0823  13.0898  13.1886  13.1927  13.2485  13.2516  13.3278  13.3313
    13.5428  13.5432  13.9344  13.9388  14.2229  14.2363  14.8161  14.8510
    15.3617  15.3734  15.5018  15.5208  15.7588  15.7882  15.8509  15.8760
    16.1692  16.1851  16.3126  16.3264  17.3540  17.3651

     occupation numbers 
     1.0000   1.0000   1.0000   1.0000   1.0000   1.0000   1.0000   1.0000
     1.0000   1.0000   1.0000   1.0000   1.0000   1.0000   1.0000   1.0000
     1.0000   1.0000   1.0000   1.0000   1.0000   1.0000   1.0000   1.0000
     1.0000   1.0000   1.0000   1.0000   1.0000   1.0000   1.0000   1.0000
     1.0000   1.0000   1.0000   1.0000   1.0000   1.0000   1.0000   1.0000
     1.0000   1.0000   1.0000   1.0000   1.0000   1.0000   1.0000   1.0000
     1.0000   1.0000   1.0000   1.0000   1.0000   1.0000   1.0000   1.0000
     1.0000   1.0000   1.0000   1.0000   1.0000   1.0000   1.0000   1.0000
     1.0000   1.0000   1.0000   1.0000   1.0004   1.0006   0.8823   0.8067
    -0.0284  -0.0265  -0.0081  -0.0064  -0.0001  -0.0001  -0.0000  -0.0000
    -0.0000  -0.0000  -0.0000  -0.0000  -0.0000  -0.0000

          k = 0.0000 0.0000-0.5000 (  3980 PWs)   bands (ev):

   -56.4964 -56.4964 -56.4964 -56.4964 -56.4720 -56.4720 -56.4720 -56.4720
   -28.5898 -28.5898 -28.5840 -28.5840 -28.5239 -28.5239 -28.5224 -28.5224
   -27.6410 -27.6410 -27.5758 -27.5758 -27.5609 -27.5609 -27.5381 -27.5381
   -27.5070 -27.5070 -27.4823 -27.4823 -27.4607 -27.4607 -27.4470 -27.4470
     4.3301   4.3301   4.3303   4.3303   8.2841   8.2841   8.2904   8.2904
    10.0184  10.0184  10.0224  10.0224  10.8999  10.8999  10.9109  10.9109
    12.2493  12.2493  12.2558  12.2558  12.6876  12.6876  12.6999  12.6999
    13.1448  13.1448  13.1452  13.1452  13.2400  13.2400  13.2437  13.2437
    13.7855  13.7855  13.7887  13.7887  14.5689  14.5689  14.5974  14.5974
    15.4062  15.4062  15.4240  15.4240  15.8110  15.8110  15.8406  15.8406
    16.1703  16.1703  16.1840  16.1840  17.5474  17.5499

     occupation numbers 
     1.0000   1.0000   1.0000   1.0000   1.0000   1.0000   1.0000   1.0000
     1.0000   1.0000   1.0000   1.0000   1.0000   1.0000   1.0000   1.0000
     1.0000   1.0000   1.0000   1.0000   1.0000   1.0000   1.0000   1.0000
     1.0000   1.0000   1.0000   1.0000   1.0000   1.0000   1.0000   1.0000
     1.0000   1.0000   1.0000   1.0000   1.0000   1.0000   1.0000   1.0000
     1.0000   1.0000   1.0000   1.0000   1.0000   1.0000   1.0000   1.0000
     1.0000   1.0000   1.0000   1.0000   1.0000   1.0000   1.0000   1.0000
     1.0000   1.0000   1.0000   1.0000   1.0000   1.0000   1.0000   1.0000
     1.0000   1.0000   1.0000   1.0000   1.0306   1.0306   1.0341   1.0341
    -0.0210  -0.0210  -0.0181  -0.0181  -0.0000  -0.0000  -0.0000  -0.0000
    -0.0000  -0.0000  -0.0000  -0.0000  -0.0000  -0.0000

          k = 0.0000 0.1250 0.1250 (  3970 PWs)   bands (ev):

   -56.5083 -56.5083 -56.4811 -56.4811 -56.4756 -56.4756 -56.4720 -56.4720
   -28.5901 -28.5839 -28.5768 -28.5762 -28.5649 -28.5610 -28.4909 -28.4908
   -27.6327 -27.6289 -27.6014 -27.5974 -27.5528 -27.5485 -27.5455 -27.5399
   -27.5274 -27.5172 -27.4665 -27.4651 -27.4589 -27.4531 -27.4485 -27.4449
     2.9160   2.9160   6.6469   6.6517   7.3168   7.3207   8.2209   8.2266
     9.9492   9.9540  10.6685  10.6744  10.8557  10.8603  11.2407  11.2439
    11.8065  11.8076  12.4458  12.4568  12.5963  12.6041  12.9048  12.9110
    13.0126  13.0218  13.1637  13.1647  13.1688  13.1737  13.2705  13.2724
    13.4672  13.4735  13.6808  13.6921  13.9974  14.0028  15.3497  15.3621
    15.3974  15.4067  15.6295  15.6389  15.7296  15.7458  15.7984  15.8196
    16.3785  16.3966  16.6512  16.6586  16.9430  16.9723

     occupation numbers 
     1.0000   1.0000   1.0000   1.0000   1.0000   1.0000   1.0000   1.0000
     1.0000   1.0000   1.0000   1.0000   1.0000   1.0000   1.0000   1.0000
     1.0000   1.0000   1.0000   1.0000   1.0000   1.0000   1.0000   1.0000
     1.0000   1.0000   1.0000   1.0000   1.0000   1.0000   1.0000   1.0000
     1.0000   1.0000   1.0000   1.0000   1.0000   1.0000   1.0000   1.0000
     1.0000   1.0000   1.0000   1.0000   1.0000   1.0000   1.0000   1.0000
     1.0000   1.0000   1.0000   1.0000   1.0000   1.0000   1.0000   1.0000
     1.0000   1.0000   1.0000   1.0000   1.0000   1.0000   1.0000   1.0000
     1.0000   1.0000   1.0000   1.0000   1.0000   1.0000  -0.0303  -0.0284
    -0.0224  -0.0209  -0.0013  -0.0012  -0.0002  -0.0002  -0.0001  -0.0000
    -0.0000  -0.0000  -0.0000  -0.0000  -0.0000  -0.0000

          k = 0.0000 0.1250 0.2500 (  3994 PWs)   bands (ev):

   -56.5055 -56.5055 -56.4851 -56.4851 -56.4750 -56.4750 -56.4713 -56.4713
   -28.5919 -28.5860 -28.5787 -28.5774 -28.5546 -28.5514 -28.4988 -28.4987
   -27.6381 -27.6315 -27.5919 -27.5865 -27.5595 -27.5506 -27.5444 -27.5398
   -27.5250 -27.5050 -27.4783 -27.4700 -27.4634 -27.4555 -27.4462 -27.4415
     3.2338   3.2338   6.0281   6.0306   7.3776   7.3803   8.4810   8.4860
     9.7461   9.7476  10.4138  10.4175  10.8589  10.8597  11.4964  11.5016
    11.5899  11.5915  12.3129  12.3226  12.6406  12.6433  13.0374  13.0449
    13.0763  13.0875  13.2061  13.2122  13.2840  13.2852  13.3836  13.3877
    13.5231  13.5295  13.8077  13.8230  14.1034  14.1105  15.0930  15.1199
    15.3025  15.3174  15.5127  15.5272  15.6949  15.7168  15.8437  15.8691
    16.2281  16.2433  16.5321  16.5443  17.1564  17.1900

     occupation numbers 
     1.0000   1.0000   1.0000   1.0000   1.0000   1.0000   1.0000   1.0000
     1.0000   1.0000   1.0000   1.0000   1.0000   1.0000   1.0000   1.0000
     1.0000   1.0000   1.0000   1.0000   1.0000   1.0000   1.0000   1.0000
     1.0000   1.0000   1.0000   1.0000   1.0000   1.0000   1.0000   1.0000
     1.0000   1.0000   1.0000   1.0000   1.0000   1.0000   1.0000   1.0000
     1.0000   1.0000   1.0000   1.0000   1.0000   1.0000   1.0000   1.0000
     1.0000   1.0000   1.0000   1.0000   1.0000   1.0000   1.0000   1.0000
     1.0000   1.0000   1.0000   1.0000   1.0000   1.0000   1.0000   1.0000
     1.0000   1.0000   1.0000   1.0000   1.0000   1.0000   0.1328   0.0828
    -0.0352  -0.0342  -0.0071  -0.0059  -0.0004  -0.0003  -0.0000  -0.0000
    -0.0000  -0.0000  -0.0000  -0.0000  -0.0000  -0.0000

          k = 0.0000 0.1250 0.3750 (  4007 PWs)   bands (ev):

   -56.5013 -56.5013 -56.4904 -56.4904 -56.4738 -56.4738 -56.4716 -56.4716
   -28.5912 -28.5862 -28.5828 -28.5800 -28.5406 -28.5384 -28.5108 -28.5103
   -27.6402 -27.6349 -27.5821 -27.5759 -27.5680 -27.5501 -27.5443 -27.5323
   -27.5274 -27.4954 -27.4906 -27.4731 -27.4667 -27.4598 -27.4441 -27.4408
     3.7460   3.7462   5.2151   5.2161   7.6693   7.6712   8.4257   8.4294
     9.7376   9.7407  10.2175  10.2214  11.0163  11.0222  11.1815  11.1952
    11.8685  11.8738  12.1835  12.1930  12.6412  12.6478  12.8694  12.8793
    13.0681  13.0744  13.2742  13.2790  13.3376  13.3395  13.4502  13.4532
    13.6047  13.6115  13.9707  13.9775  14.2937  14.3108  14.8285  14.8621
    15.2842  15.3000  15.3847  15.3971  15.6986  15.7248  15.8308  15.8601
    16.1516  16.1602  16.3634  16.3769  17.3084  17.3320

     occupation numbers 
     1.0000   1.0000   1.0000   1.0000   1.0000   1.0000   1.0000   1.0000
     1.0000   1.0000   1.0000   1.0000   1.0000   1.0000   1.0000   1.0000
     1.0000   1.0000   1.0000   1.0000   1.0000   1.0000   1.0000   1.0000
     1.0000   1.0000   1.0000   1.0000   1.0000   1.0000   1.0000   1.0000
     1.0000   1.0000   1.0000   1.0000   1.0000   1.0000   1.0000   1.0000
     1.0000   1.0000   1.0000   1.0000   1.0000   1.0000   1.0000   1.0000
     1.0000   1.0000   1.0000   1.0000   1.0000   1.0000   1.0000   1.0000
     1.0000   1.0000   1.0000   1.0000   1.0000   1.0000   1.0000   1.0000
     1.0000   1.0000   1.0000   1.0000   1.0015   1.0019   0.8573   0.7797
    -0.0353  -0.0353  -0.0246  -0.0225  -0.0004  -0.0003  -0.0000  -0.0000
    -0.0000  -0.0000  -0.0000  -0.0000  -0.0000  -0.0000

          k = 0.0000 0.1250-0.5000 (  4002 PWs)   bands (ev):

   -56.4960 -56.4960 -56.4960 -56.4960 -56.4725 -56.4725 -56.4725 -56.4725
   -28.5884 -28.5884 -28.5828 -28.5828 -28.5259 -28.5259 -28.5236 -28.5236
   -27.6386 -27.6386 -27.5755 -27.5755 -27.5616 -27.5616 -27.5378 -27.5378
   -27.5121 -27.5121 -27.4807 -27.4807 -27.4642 -27.4642 -27.4421 -27.4421
     4.4233   4.4233   4.4238   4.4238   8.0601   8.0601   8.0669   8.0669
     9.9975   9.9975  10.0018  10.0018  11.0383  11.0383  11.0522  11.0522
    12.1493  12.1493  12.1547  12.1547  12.6001  12.6001  12.6164  12.6164
    13.2296  13.2296  13.2322  13.2322  13.3357  13.3357  13.3370  13.3370
    13.8322  13.8322  13.8359  13.8359  14.6022  14.6022  14.6326  14.6326
    15.3074  15.3074  15.3232  15.3232  15.7619  15.7619  15.7916  15.7916
    16.2096  16.2096  16.2206  16.2206  17.5274  17.5323

     occupation numbers 
     1.0000   1.0000   1.0000   1.0000   1.0000   1.0000   1.0000   1.0000
     1.0000   1.0000   1.0000   1.0000   1.0000   1.0000   1.0000   1.0000
     1.0000   1.0000   1.0000   1.0000   1.0000   1.0000   1.0000   1.0000
     1.0000   1.0000   1.0000   1.0000   1.0000   1.0000   1.0000   1.0000
     1.0000   1.0000   1.0000   1.0000   1.0000   1.0000   1.0000   1.0000
     1.0000   1.0000   1.0000   1.0000   1.0000   1.0000   1.0000   1.0000
     1.0000   1.0000   1.0000   1.0000   1.0000   1.0000   1.0000   1.0000
     1.0000   1.0000   1.0000   1.0000   1.0000   1.0000   1.0000   1.0000
     1.0000   1.0000   1.0000   1.0000   1.0345   1.0345   1.0353   1.0353
    -0.0350  -0.0350  -0.0337  -0.0337  -0.0001  -0.0001  -0.0001  -0.0001
    -0.0000  -0.0000  -0.0000  -0.0000  -0.0000  -0.0000

          k = 0.0000 0.2500 0.2500 (  4008 PWs)   bands (ev):

   -56.5030 -56.5030 -56.4869 -56.4869 -56.4756 -56.4756 -56.4715 -56.4715
   -28.5912 -28.5862 -28.5765 -28.5757 -28.5511 -28.5478 -28.5061 -28.5057
   -27.6355 -27.6323 -27.5848 -27.5825 -27.5590 -27.5558 -27.5463 -27.5416
   -27.5216 -27.4993 -27.4883 -27.4780 -27.4689 -27.4518 -27.4422 -27.4381
     3.5440   3.5442   5.9667   5.9699   6.9426   6.9466   8.4378   8.4428
     9.7532   9.7563  10.1879  10.1930  10.9279  10.9303  11.3524  11.3535
    11.8617  11.8652  12.2883  12.2917  12.5078  12.5170  12.9065  12.9141
    13.1508  13.1602  13.2730  13.2824  13.4448  13.4463  13.5225  13.5318
    13.5735  13.5842  13.9875  13.9998  14.2227  14.2283  15.0500  15.0703
    15.1442  15.1688  15.2991  15.3105  15.6208  15.6459  15.7675  15.7962
    16.1640  16.1750  16.5168  16.5275  17.1898  17.2326

     occupation numbers 
     1.0000   1.0000   1.0000   1.0000   1.0000   1.0000   1.0000   1.0000
     1.0000   1.0000   1.0000   1.0000   1.0000   1.0000   1.0000   1.0000
     1.0000   1.0000   1.0000   1.0000   1.0000   1.0000   1.0000   1.0000
     1.0000   1.0000   1.0000   1.0000   1.0000   1.0000   1.0000   1.0000
     1.0000   1.0000   1.0000   1.0000   1.0000   1.0000   1.0000   1.0000
     1.0000   1.0000   1.0000   1.0000   1.0000   1.0000   1.0000   1.0000
     1.0000   1.0000   1.0000   1.0000   1.0000   1.0000   1.0000   1.0000
     1.0000   1.0000   1.0000   1.0000   1.0000   1.0000   1.0000   1.0000
     1.0000   1.0000   1.0000   1.0000   1.0004   1.0005   0.2321   0.1823
     0.0462   0.0170  -0.0353  -0.0348  -0.0015  -0.0010  -0.0001  -0.0001
    -0.0000  -0.0000  -0.0000  -0.0000  -0.0000  -0.0000

          k = 0.0000 0.2500 0.3750 (  3991 PWs)   bands (ev):

   -56.4993 -56.4993 -56.4903 -56.4903 -56.4750 -56.4750 -56.4723 -56.4723
   -28.5886 -28.5844 -28.5787 -28.5768 -28.5418 -28.5397 -28.5166 -28.5162
   -27.6337 -27.6309 -27.5835 -27.5764 -27.5642 -27.5538 -27.5437 -27.5355
   -27.5259 -27.5034 -27.4954 -27.4849 -27.4649 -27.4523 -27.4392 -27.4365
     4.0422   4.0426   5.4187   5.4205   7.0462   7.0494   8.0224   8.0258
     9.9185   9.9217  10.1886  10.1919  11.0302  11.0340  11.3823  11.3897
    11.8914  11.8933  12.0269  12.0311  12.4351  12.4461  12.6548  12.6647
    13.2380  13.2474  13.3325  13.3378  13.4419  13.4458  13.6566  13.6595
    13.7926  13.7960  14.0693  14.0788  14.4570  14.4824  14.8341  14.8609
    15.0761  15.0974  15.1523  15.1576  15.5819  15.6063  15.6846  15.7165
    16.2049  16.2119  16.4588  16.4692  17.1955  17.2245

     occupation numbers 
     1.0000   1.0000   1.0000   1.0000   1.0000   1.0000   1.0000   1.0000
     1.0000   1.0000   1.0000   1.0000   1.0000   1.0000   1.0000   1.0000
     1.0000   1.0000   1.0000   1.0000   1.0000   1.0000   1.0000   1.0000
     1.0000   1.0000   1.0000   1.0000   1.0000   1.0000   1.0000   1.0000
     1.0000   1.0000   1.0000   1.0000   1.0000   1.0000   1.0000   1.0000
     1.0000   1.0000   1.0000   1.0000   1.0000   1.0000   1.0000   1.0000
     1.0000   1.0000   1.0000   1.0000   1.0000   1.0000   1.0000   1.0000
     1.0000   1.0000   1.0000   1.0000   1.0000   1.0000   1.0000   1.0000
     1.0000   1.0000   1.0000   1.0000   1.0129   1.0165   0.8454   0.7825
     0.1690   0.1240   0.0357   0.0293  -0.0028  -0.0019  -0.0005  -0.0003
    -0.0000  -0.0000  -0.0000  -0.0000  -0.0000  -0.0000

          k = 0.0000 0.2500-0.5000 (  4002 PWs)   bands (ev):

   -56.4948 -56.4948 -56.4948 -56.4948 -56.4737 -56.4737 -56.4737 -56.4737
   -28.5848 -28.5848 -28.5796 -28.5796 -28.5304 -28.5304 -28.5273 -28.5273
   -27.6316 -27.6316 -27.5801 -27.5801 -27.5587 -27.5587 -27.5364 -27.5364
   -27.5195 -27.5195 -27.4911 -27.4911 -27.4574 -27.4574 -27.4370 -27.4370
     4.6931   4.6931   4.6941   4.6941   7.4851   7.4851   7.4912   7.4912
    10.1310  10.1310  10.1340  10.1340  11.2018  11.2018  11.2133  11.2133
    11.9573  11.9573  11.9592  11.9592  12.4207  12.4207  12.4332  12.4332
    13.3502  13.3502  13.3565  13.3565  13.5186  13.5186  13.5247  13.5247
    13.9900  13.9900  13.9956  13.9956  14.6577  14.6577  14.6882  14.6882
    15.0895  15.0895  15.1012  15.1012  15.6081  15.6081  15.6369  15.6369
    16.3372  16.3372  16.3481  16.3481  17.3637  17.3658

     occupation numbers 
     1.0000   1.0000   1.0000   1.0000   1.0000   1.0000   1.0000   1.0000
     1.0000   1.0000   1.0000   1.0000   1.0000   1.0000   1.0000   1.0000
     1.0000   1.0000   1.0000   1.0000   1.0000   1.0000   1.0000   1.0000
     1.0000   1.0000   1.0000   1.0000   1.0000   1.0000   1.0000   1.0000
     1.0000   1.0000   1.0000   1.0000   1.0000   1.0000   1.0000   1.0000
     1.0000   1.0000   1.0000   1.0000   1.0000   1.0000   1.0000   1.0000
     1.0000   1.0000   1.0000   1.0000   1.0000   1.0000   1.0000   1.0000
     1.0000   1.0000   1.0000   1.0000   1.0000   1.0000   1.0000   1.0000
     1.0000   1.0000   1.0000   1.0000   1.0329   1.0329   1.0243   1.0243
     0.1399   0.1399   0.1165   0.1165  -0.0019  -0.0019  -0.0012  -0.0012
    -0.0000  -0.0000  -0.0000  -0.0000  -0.0000  -0.0000

          k = 0.0000 0.3750 0.3750 (  4008 PWs)   bands (ev):

   -56.4964 -56.4964 -56.4912 -56.4912 -56.4757 -56.4757 -56.4737 -56.4737
   -28.5844 -28.5811 -28.5763 -28.5754 -28.5404 -28.5387 -28.5252 -28.5244
   -27.6253 -27.6249 -27.5891 -27.5850 -27.5561 -27.5505 -27.5390 -27.5366
   -27.5273 -27.5098 -27.5076 -27.4980 -27.4553 -27.4458 -27.4378 -27.4350
     4.5112   4.5118   5.5248   5.5263   6.5743   6.5763   7.4040   7.4071
    10.2479  10.2492  10.4533  10.4545  10.9133  10.9141  11.2413  11.2443
    11.7885  11.7914  12.0578  12.0617  12.2655  12.2680  12.4705  12.4782
    13.2362  13.2437  13.3922  13.3936  13.6760  13.6765  13.8228  13.8278
    14.0584  14.0705  14.1527  14.1636  14.5602  14.5802  14.7444  14.7562
    14.8568  14.8759  14.9595  14.9827  15.4824  15.5019  15.5222  15.5493
    16.3263  16.3368  16.5151  16.5206  17.0949  17.1172

     occupation numbers 
     1.0000   1.0000   1.0000   1.0000   1.0000   1.0000   1.0000   1.0000
     1.0000   1.0000   1.0000   1.0000   1.0000   1.0000   1.0000   1.0000
     1.0000   1.0000   1.0000   1.0000   1.0000   1.0000   1.0000   1.0000
     1.0000   1.0000   1.0000   1.0000   1.0000   1.0000   1.0000   1.0000
     1.0000   1.0000   1.0000   1.0000   1.0000   1.0000   1.0000   1.0000
     1.0000   1.0000   1.0000   1.0000   1.0000   1.0000   1.0000   1.0000
     1.0000   1.0000   1.0000   1.0000   1.0000   1.0000   1.0000   1.0000
     1.0000   1.0000   1.0000   1.0000   1.0000   1.0000   1.0000   1.0000
     1.0000   1.0000   1.0001   1.0001   1.0293   1.0321   0.9864   0.9740
     0.7927   0.7439   0.4962   0.4246  -0.0101  -0.0081  -0.0063  -0.0044
    -0.0000  -0.0000  -0.0000  -0.0000  -0.0000  -0.0000

          k = 0.0000 0.3750-0.5000 (  4016 PWs)   bands (ev):

   -56.4935 -56.4935 -56.4935 -56.4935 -56.4751 -56.4751 -56.4751 -56.4751
   -28.5800 -28.5800 -28.5765 -28.5765 -28.5348 -28.5348 -28.5323 -28.5323
   -27.6206 -27.6206 -27.5923 -27.5923 -27.5495 -27.5495 -27.5352 -27.5352
   -27.5236 -27.5236 -27.5066 -27.5066 -27.4473 -27.4473 -27.4361 -27.4361
     5.0913   5.0913   5.0927   5.0927   6.8129   6.8129   6.8170   6.8170
    10.4515  10.4515  10.4528  10.4528  11.2435  11.2435  11.2514  11.2514
    11.6426  11.6426  11.6504  11.6504  12.3116  12.3116  12.3167  12.3167
    13.3678  13.3678  13.3735  13.3735  13.7716  13.7716  13.7806  13.7806
    14.2751  14.2751  14.2779  14.2779  14.5476  14.5476  14.5584  14.5584
    14.8887  14.8887  14.9076  14.9076  15.4630  15.4630  15.4827  15.4827
    16.4966  16.4966  16.5066  16.5066  17.1194  17.1244

     occupation numbers 
     1.0000   1.0000   1.0000   1.0000   1.0000   1.0000   1.0000   1.0000
     1.0000   1.0000   1.0000   1.0000   1.0000   1.0000   1.0000   1.0000
     1.0000   1.0000   1.0000   1.0000   1.0000   1.0000   1.0000   1.0000
     1.0000   1.0000   1.0000   1.0000   1.0000   1.0000   1.0000   1.0000
     1.0000   1.0000   1.0000   1.0000   1.0000   1.0000   1.0000   1.0000
     1.0000   1.0000   1.0000   1.0000   1.0000   1.0000   1.0000   1.0000
     1.0000   1.0000   1.0000   1.0000   1.0000   1.0000   1.0000   1.0000
     1.0000   1.0000   1.0000   1.0000   1.0000   1.0000   1.0000   1.0000
     1.0011   1.0011   1.0012   1.0012   1.0272   1.0272   1.0290   1.0290
     0.7090   0.7090   0.6548   0.6548  -0.0124  -0.0124  -0.0100  -0.0100
    -0.0000  -0.0000  -0.0000  -0.0000  -0.0000  -0.0000

          k = 0.0000-0.5000-0.5000 (  4012 PWs)   bands (ev):

   -56.4928 -56.4928 -56.4928 -56.4928 -56.4757 -56.4757 -56.4757 -56.4757
   -28.5763 -28.5763 -28.5763 -28.5763 -28.5357 -28.5357 -28.5357 -28.5357
   -27.6069 -27.6069 -27.6069 -27.6069 -27.5396 -27.5396 -27.5396 -27.5396
   -27.5193 -27.5193 -27.5193 -27.5193 -27.4397 -27.4397 -27.4397 -27.4397
     5.3730   5.3730   5.3730   5.3730   6.4292   6.4292   6.4292   6.4292
    10.7073  10.7073  10.7073  10.7073  11.2444  11.2444  11.2444  11.2444
    11.3869  11.3869  11.3869  11.3869  12.2863  12.2863  12.2863  12.2863
    13.3643  13.3643  13.3643  13.3643  14.0100  14.0100  14.0100  14.0100
    14.2971  14.2971  14.2971  14.2971  14.5285  14.5285  14.5285  14.5285
    14.7610  14.7610  14.7610  14.7610  15.4214  15.4214  15.4214  15.4214
    16.5917  16.5917  16.5917  16.5917  16.9889  16.9889

     occupation numbers 
     1.0000   1.0000   1.0000   1.0000   1.0000   1.0000   1.0000   1.0000
     1.0000   1.0000   1.0000   1.0000   1.0000   1.0000   1.0000   1.0000
     1.0000   1.0000   1.0000   1.0000   1.0000   1.0000   1.0000   1.0000
     1.0000   1.0000   1.0000   1.0000   1.0000   1.0000   1.0000   1.0000
     1.0000   1.0000   1.0000   1.0000   1.0000   1.0000   1.0000   1.0000
     1.0000   1.0000   1.0000   1.0000   1.0000   1.0000   1.0000   1.0000
     1.0000   1.0000   1.0000   1.0000   1.0000   1.0000   1.0000   1.0000
     1.0000   1.0000   1.0000   1.0000   1.0000   1.0000   1.0000   1.0000
     1.0016   1.0016   1.0016   1.0016   1.0240   1.0240   1.0240   1.0240
     0.9684   0.9684   0.9684   0.9684  -0.0185  -0.0185  -0.0185  -0.0185
    -0.0000  -0.0000  -0.0000  -0.0000  -0.0000  -0.0000

          k = 0.1250 0.1250 0.1250 (  3983 PWs)   bands (ev):

   -56.5074 -56.5074 -56.4821 -56.4821 -56.4759 -56.4759 -56.4716 -56.4716
   -28.5911 -28.5853 -28.5757 -28.5751 -28.5629 -28.5587 -28.4936 -28.4935
   -27.6331 -27.6315 -27.5980 -27.5925 -27.5544 -27.5481 -27.5473 -27.5443
   -27.5232 -27.5122 -27.4739 -27.4652 -27.4581 -27.4580 -27.4452 -27.4433
     3.0228   3.0228   6.5651   6.5716   7.1853   7.1925   8.2869   8.2910
     9.9240   9.9287  10.6131  10.6133  10.6527  10.6529  11.3010  11.3064
    11.9461  11.9471  12.3518  12.3630  12.7381  12.7401  12.8181  12.8270
    13.0643  13.0679  13.1669  13.1674  13.2453  13.2511  13.3446  13.3533
    13.4584  13.4664  13.7064  13.7108  14.0662  14.0736  15.3248  15.3291
    15.3598  15.3610  15.5794  15.5805  15.6430  15.6574  15.8173  15.8291
    16.3179  16.3375  16.6524  16.6609  16.9655  17.0006

     occupation numbers 
     1.0000   1.0000   1.0000   1.0000   1.0000   1.0000   1.0000   1.0000
     1.0000   1.0000   1.0000   1.0000   1.0000   1.0000   1.0000   1.0000
     1.0000   1.0000   1.0000   1.0000   1.0000   1.0000   1.0000   1.0000
     1.0000   1.0000   1.0000   1.0000   1.0000   1.0000   1.0000   1.0000
     1.0000   1.0000   1.0000   1.0000   1.0000   1.0000   1.0000   1.0000
     1.0000   1.0000   1.0000   1.0000   1.0000   1.0000   1.0000   1.0000
     1.0000   1.0000   1.0000   1.0000   1.0000   1.0000   1.0000   1.0000
     1.0000   1.0000   1.0000   1.0000   1.0000   1.0000   1.0000   1.0000
     1.0000   1.0000   1.0000   1.0000   1.0000   1.0000  -0.0335  -0.0330
    -0.0287  -0.0285  -0.0029  -0.0029  -0.0011  -0.0008  -0.0000  -0.0000
    -0.0000  -0.0000  -0.0000  -0.0000  -0.0000  -0.0000

          k = 0.1250 0.1250 0.2500 (  3989 PWs)   bands (ev):

   -56.5047 -56.5047 -56.4854 -56.4854 -56.4756 -56.4756 -56.4713 -56.4713
   -28.5918 -28.5863 -28.5768 -28.5759 -28.5544 -28.5510 -28.5014 -28.5010
   -27.6368 -27.6318 -27.5905 -27.5832 -27.5585 -27.5515 -27.5469 -27.5443
   -27.5208 -27.5027 -27.4833 -27.4697 -27.4649 -27.4585 -27.4425 -27.4405
     3.3382   3.3383   6.0640   6.0672   7.2217   7.2260   8.4057   8.4098
     9.6730   9.6750  10.4356  10.4394  10.6911  10.6949  11.4180  11.4220
    11.8433  11.8481  12.3013  12.3047  12.7389  12.7441  13.0091  13.0142
    13.0847  13.0915  13.1169  13.1245  13.2838  13.2884  13.4414  13.4508
    13.6271  13.6356  13.8412  13.8499  14.1543  14.1604  15.0853  15.1105
    15.2874  15.3025  15.4499  15.4635  15.5936  15.6108  15.8148  15.8337
    16.2055  16.2211  16.5472  16.5610  17.1212  17.1570

     occupation numbers 
     1.0000   1.0000   1.0000   1.0000   1.0000   1.0000   1.0000   1.0000
     1.0000   1.0000   1.0000   1.0000   1.0000   1.0000   1.0000   1.0000
     1.0000   1.0000   1.0000   1.0000   1.0000   1.0000   1.0000   1.0000
     1.0000   1.0000   1.0000   1.0000   1.0000   1.0000   1.0000   1.0000
     1.0000   1.0000   1.0000   1.0000   1.0000   1.0000   1.0000   1.0000
     1.0000   1.0000   1.0000   1.0000   1.0000   1.0000   1.0000   1.0000
     1.0000   1.0000   1.0000   1.0000   1.0000   1.0000   1.0000   1.0000
     1.0000   1.0000   1.0000   1.0000   1.0000   1.0000   1.0000   1.0000
     1.0000   1.0000   1.0000   1.0000   1.0001   1.0001   0.1487   0.0991
    -0.0354  -0.0352  -0.0142  -0.0124  -0.0023  -0.0018  -0.0000  -0.0000
    -0.0000  -0.0000  -0.0000  -0.0000  -0.0000  -0.0000

          k = 0.1250 0.1250 0.3750 (  3992 PWs)   bands (ev):

   -56.5005 -56.5005 -56.4902 -56.4902 -56.4744 -56.4744 -56.4718 -56.4718
   -28.5903 -28.5858 -28.5808 -28.5785 -28.5416 -28.5392 -28.5130 -28.5122
   -27.6381 -27.6335 -27.5812 -27.5752 -27.5669 -27.5531 -27.5451 -27.5356
   -27.5247 -27.5026 -27.4853 -27.4728 -27.4692 -27.4621 -27.4408 -27.4392
     3.8460   3.8462   5.2918   5.2929   7.5148   7.5170   8.3104   8.3147
     9.5597   9.5607  10.2057  10.2089  10.9226  10.9269  11.4086  11.4144
    11.7870  11.7903  12.2138  12.2175  12.7443  12.7500  12.9516  12.9592
    13.0607  13.0689  13.2301  13.2372  13.3283  13.3318  13.4336  13.4400
    13.6973  13.7002  13.9801  13.9875  14.3527  14.3726  14.8337  14.8664
    15.2496  15.2659  15.3221  15.3354  15.6143  15.6343  15.7720  15.7953
    16.1580  16.1674  16.3815  16.3960  17.3140  17.3375

     occupation numbers 
     1.0000   1.0000   1.0000   1.0000   1.0000   1.0000   1.0000   1.0000
     1.0000   1.0000   1.0000   1.0000   1.0000   1.0000   1.0000   1.0000
     1.0000   1.0000   1.0000   1.0000   1.0000   1.0000   1.0000   1.0000
     1.0000   1.0000   1.0000   1.0000   1.0000   1.0000   1.0000   1.0000
     1.0000   1.0000   1.0000   1.0000   1.0000   1.0000   1.0000   1.0000
     1.0000   1.0000   1.0000   1.0000   1.0000   1.0000   1.0000   1.0000
     1.0000   1.0000   1.0000   1.0000   1.0000   1.0000   1.0000   1.0000
     1.0000   1.0000   1.0000   1.0000   1.0000   1.0000   1.0000   1.0000
     1.0000   1.0000   1.0000   1.0000   1.0036   1.0047   0.8462   0.7687
    -0.0310  -0.0339  -0.0338  -0.0323  -0.0017  -0.0012  -0.0001  -0.0001
    -0.0000  -0.0000  -0.0000  -0.0000  -0.0000  -0.0000

          k = 0.1250 0.1250-0.5000 (  3996 PWs)   bands (ev):

   -56.4955 -56.4955 -56.4955 -56.4955 -56.4730 -56.4730 -56.4730 -56.4730
   -28.5871 -28.5871 -28.5815 -28.5815 -28.5277 -28.5277 -28.5249 -28.5249
   -27.6363 -27.6363 -27.5743 -27.5743 -27.5636 -27.5636 -27.5371 -27.5371
   -27.5164 -27.5164 -27.4781 -27.4781 -27.4668 -27.4668 -27.4396 -27.4396
     4.5155   4.5155   4.5161   4.5161   7.9216   7.9216   7.9279   7.9279
     9.8418   9.8418   9.8432   9.8432  11.1827  11.1827  11.1922  11.1922
    12.0288  12.0288  12.0324  12.0324  12.7805  12.7805  12.7932  12.7932
    13.1783  13.1783  13.1865  13.1865  13.3685  13.3685  13.3714  13.3714
    13.8514  13.8514  13.8574  13.8574  14.6317  14.6317  14.6637  14.6637
    15.2507  15.2507  15.2699  15.2699  15.6888  15.6888  15.7148  15.7148
    16.2281  16.2281  16.2383  16.2383  17.6185  17.6197

     occupation numbers 
     1.0000   1.0000   1.0000   1.0000   1.0000   1.0000   1.0000   1.0000
     1.0000   1.0000   1.0000   1.0000   1.0000   1.0000   1.0000   1.0000
     1.0000   1.0000   1.0000   1.0000   1.0000   1.0000   1.0000   1.0000
     1.0000   1.0000   1.0000   1.0000   1.0000   1.0000   1.0000   1.0000
     1.0000   1.0000   1.0000   1.0000   1.0000   1.0000   1.0000   1.0000
     1.0000   1.0000   1.0000   1.0000   1.0000   1.0000   1.0000   1.0000
     1.0000   1.0000   1.0000   1.0000   1.0000   1.0000   1.0000   1.0000
     1.0000   1.0000   1.0000   1.0000   1.0000   1.0000   1.0000   1.0000
     1.0000   1.0000   1.0000   1.0000   1.0354   1.0354   1.0317   1.0317
    -0.0312  -0.0312  -0.0344  -0.0344  -0.0005  -0.0005  -0.0003  -0.0003
    -0.0000  -0.0000  -0.0000  -0.0000  -0.0000  -0.0000

          k = 0.1250 0.2500 0.2500 (  4011 PWs)   bands (ev):

   -56.5023 -56.5023 -56.4869 -56.4869 -56.4762 -56.4762 -56.4717 -56.4717
   -28.5906 -28.5857 -28.5749 -28.5743 -28.5515 -28.5482 -28.5085 -28.5079
   -27.6343 -27.6310 -27.5866 -27.5780 -27.5590 -27.5548 -27.5483 -27.5464
   -27.5173 -27.5046 -27.4860 -27.4734 -27.4720 -27.4560 -27.4399 -27.4375
     3.6460   3.6461   6.0149   6.0192   6.9159   6.9221   8.2985   8.3022
     9.4098   9.4126  10.4300  10.4318  10.6919  10.6945  11.4611  11.4659
    11.9058  11.9083  12.3042  12.3061  12.6232  12.6296  12.9588  12.9652
    13.1200  13.1250  13.1962  13.2067  13.2857  13.2911  13.5826  13.5893
    13.7527  13.7603  13.9738  13.9829  14.2895  14.2965  15.0288  15.0460
    15.1633  15.1838  15.2897  15.3023  15.5040  15.5159  15.7252  15.7456
    16.1732  16.1841  16.5217  16.5342  17.1509  17.1915

     occupation numbers 
     1.0000   1.0000   1.0000   1.0000   1.0000   1.0000   1.0000   1.0000
     1.0000   1.0000   1.0000   1.0000   1.0000   1.0000   1.0000   1.0000
     1.0000   1.0000   1.0000   1.0000   1.0000   1.0000   1.0000   1.0000
     1.0000   1.0000   1.0000   1.0000   1.0000   1.0000   1.0000   1.0000
     1.0000   1.0000   1.0000   1.0000   1.0000   1.0000   1.0000   1.0000
     1.0000   1.0000   1.0000   1.0000   1.0000   1.0000   1.0000   1.0000
     1.0000   1.0000   1.0000   1.0000   1.0000   1.0000   1.0000   1.0000
     1.0000   1.0000   1.0000   1.0000   1.0000   1.0000   1.0000   1.0000
     1.0000   1.0000   1.0000   1.0000   1.0014   1.0016   0.2889   0.2424
     0.0229   0.0030  -0.0354  -0.0352  -0.0079  -0.0068  -0.0002  -0.0002
    -0.0000  -0.0000  -0.0000  -0.0000  -0.0000  -0.0000

          k = 0.1250 0.2500 0.3750 (  3989 PWs)   bands (ev):

   -56.4986 -56.4986 -56.4900 -56.4900 -56.4756 -56.4756 -56.4727 -56.4727
   -28.5876 -28.5835 -28.5771 -28.5754 -28.5430 -28.5408 -28.5188 -28.5180
   -27.6320 -27.6290 -27.5829 -27.5750 -27.5659 -27.5559 -27.5438 -27.5389
   -27.5222 -27.5118 -27.4878 -27.4810 -27.4674 -27.4558 -27.4382 -27.4360
     4.1394   4.1398   5.4922   5.4943   7.0405   7.0444   7.9729   7.9761
     9.4117   9.4141  10.1471  10.1494  11.0659  11.0690  11.5757  11.5815
    11.8059  11.8132  12.0675  12.0691  12.5177  12.5277  12.7906  12.7982
    13.2115  13.2168  13.2932  13.3056  13.3554  13.3610  13.6025  13.6118
    13.8662  13.8777  14.0998  14.1112  14.5057  14.5337  14.8411  14.8678
    15.0749  15.0846  15.1514  15.1649  15.5131  15.5258  15.6379  15.6606
    16.2070  16.2138  16.4484  16.4592  17.1816  17.2082

     occupation numbers 
     1.0000   1.0000   1.0000   1.0000   1.0000   1.0000   1.0000   1.0000
     1.0000   1.0000   1.0000   1.0000   1.0000   1.0000   1.0000   1.0000
     1.0000   1.0000   1.0000   1.0000   1.0000   1.0000   1.0000   1.0000
     1.0000   1.0000   1.0000   1.0000   1.0000   1.0000   1.0000   1.0000
     1.0000   1.0000   1.0000   1.0000   1.0000   1.0000   1.0000   1.0000
     1.0000   1.0000   1.0000   1.0000   1.0000   1.0000   1.0000   1.0000
     1.0000   1.0000   1.0000   1.0000   1.0000   1.0000   1.0000   1.0000
     1.0000   1.0000   1.0000   1.0000   1.0000   1.0000   1.0000   1.0000
     1.0000   1.0000   1.0000   1.0000   1.0202   1.0249   0.8299   0.7650
     0.1717   0.1503   0.0368   0.0211  -0.0070  -0.0060  -0.0012  -0.0008
    -0.0000  -0.0000  -0.0000  -0.0000  -0.0000  -0.0000

          k = 0.1250 0.2500-0.5000 (  4010 PWs)   bands (ev):

   -56.4943 -56.4943 -56.4943 -56.4943 -56.4742 -56.4742 -56.4742 -56.4742
   -28.5835 -28.5835 -28.5784 -28.5784 -28.5321 -28.5321 -28.5288 -28.5288
   -27.6296 -27.6296 -27.5788 -27.5788 -27.5622 -27.5622 -27.5353 -27.5353
   -27.5228 -27.5228 -27.4862 -27.4862 -27.4602 -27.4602 -27.4366 -27.4366
     4.7820   4.7820   4.7831   4.7831   7.4701   7.4701   7.4763   7.4763
     9.7456   9.7456   9.7481   9.7481  11.5297  11.5297  11.5373  11.5373
    11.7458  11.7458  11.7495  11.7495  12.6023  12.6023  12.6138  12.6138
    13.2952  13.2952  13.3015  13.3015  13.4733  13.4733  13.4848  13.4848
    14.0269  14.0269  14.0350  14.0350  14.6968  14.6968  14.7293  14.7293
    15.0712  15.0712  15.0876  15.0876  15.5609  15.5609  15.5845  15.5845
    16.3242  16.3242  16.3332  16.3332  17.3834  17.3873

     occupation numbers 
     1.0000   1.0000   1.0000   1.0000   1.0000   1.0000   1.0000   1.0000
     1.0000   1.0000   1.0000   1.0000   1.0000   1.0000   1.0000   1.0000
     1.0000   1.0000   1.0000   1.0000   1.0000   1.0000   1.0000   1.0000
     1.0000   1.0000   1.0000   1.0000   1.0000   1.0000   1.0000   1.0000
     1.0000   1.0000   1.0000   1.0000   1.0000   1.0000   1.0000   1.0000
     1.0000   1.0000   1.0000   1.0000   1.0000   1.0000   1.0000   1.0000
     1.0000   1.0000   1.0000   1.0000   1.0000   1.0000   1.0000   1.0000
     1.0000   1.0000   1.0000   1.0000   1.0000   1.0000   1.0000   1.0000
     1.0000   1.0000   1.0000   1.0000   1.0206   1.0206   1.0000   1.0000
     0.1802   0.1802   0.1439   0.1439  -0.0038  -0.0038  -0.0027  -0.0027
    -0.0000  -0.0000  -0.0000  -0.0000  -0.0000  -0.0000

          k = 0.1250 0.3750 0.3750 (  4001 PWs)   bands (ev):

   -56.4958 -56.4958 -56.4907 -56.4907 -56.4763 -56.4763 -56.4742 -56.4742
   -28.5831 -28.5800 -28.5748 -28.5739 -28.5419 -28.5401 -28.5271 -28.5261
   -27.6242 -27.6225 -27.5880 -27.5836 -27.5612 -27.5536 -27.5421 -27.5346
   -27.5259 -27.5171 -27.4972 -27.4919 -27.4578 -27.4492 -27.4381 -27.4351
     4.6032   4.6038   5.5974   5.5996   6.6192   6.6226   7.4204   7.4235
     9.5858   9.5883  10.2037  10.2070  10.9509  10.9529  11.5423  11.5447
    11.7658  11.7703  12.1117  12.1135  12.3561  12.3606  12.6203  12.6269
    13.1947  13.2003  13.3160  13.3211  13.5637  13.5724  13.7676  13.7836
    14.0224  14.0358  14.3028  14.3119  14.5657  14.5843  14.7951  14.8097
    14.8807  14.8858  14.9956  15.0254  15.4377  15.4385  15.5083  15.5200
    16.3068  16.3161  16.4820  16.4884  17.0696  17.0908

     occupation numbers 
     1.0000   1.0000   1.0000   1.0000   1.0000   1.0000   1.0000   1.0000
     1.0000   1.0000   1.0000   1.0000   1.0000   1.0000   1.0000   1.0000
     1.0000   1.0000   1.0000   1.0000   1.0000   1.0000   1.0000   1.0000
     1.0000   1.0000   1.0000   1.0000   1.0000   1.0000   1.0000   1.0000
     1.0000   1.0000   1.0000   1.0000   1.0000   1.0000   1.0000   1.0000
     1.0000   1.0000   1.0000   1.0000   1.0000   1.0000   1.0000   1.0000
     1.0000   1.0000   1.0000   1.0000   1.0000   1.0000   1.0000   1.0000
     1.0000   1.0000   1.0000   1.0000   1.0000   1.0000   1.0000   1.0000
     1.0000   1.0000   1.0017   1.0020   1.0301   1.0327   0.9199   0.8945
     0.7308   0.7171   0.3853   0.2984  -0.0159  -0.0158  -0.0075  -0.0065
    -0.0000  -0.0000  -0.0000  -0.0000  -0.0000  -0.0000

          k = 0.1250 0.3750-0.5000 (  4006 PWs)   bands (ev):

   -56.4928 -56.4928 -56.4928 -56.4928 -56.4757 -56.4757 -56.4757 -56.4757
   -28.5786 -28.5786 -28.5751 -28.5751 -28.5365 -28.5365 -28.5339 -28.5339
   -27.6190 -27.6190 -27.5908 -27.5908 -27.5556 -27.5556 -27.5357 -27.5357
   -27.5237 -27.5237 -27.4991 -27.4991 -27.4501 -27.4501 -27.4368 -27.4368
     5.1745   5.1745   5.1760   5.1760   6.8565   6.8565   6.8608   6.8608
     9.9275   9.9275   9.9307   9.9307  11.2698  11.2698  11.2718  11.2718
    11.8674  11.8674  11.8749  11.8749  12.4224  12.4224  12.4301  12.4301
    13.2949  13.2949  13.2987  13.2987  13.6842  13.6842  13.6983  13.6983
    14.2899  14.2899  14.2966  14.2966  14.6371  14.6371  14.6496  14.6496
    14.9055  14.9055  14.9245  14.9245  15.4354  15.4354  15.4511  15.4511
    16.4506  16.4506  16.4582  16.4582  17.0989  17.1002

     occupation numbers 
     1.0000   1.0000   1.0000   1.0000   1.0000   1.0000   1.0000   1.0000
     1.0000   1.0000   1.0000   1.0000   1.0000   1.0000   1.0000   1.0000
     1.0000   1.0000   1.0000   1.0000   1.0000   1.0000   1.0000   1.0000
     1.0000   1.0000   1.0000   1.0000   1.0000   1.0000   1.0000   1.0000
     1.0000   1.0000   1.0000   1.0000   1.0000   1.0000   1.0000   1.0000
     1.0000   1.0000   1.0000   1.0000   1.0000   1.0000   1.0000   1.0000
     1.0000   1.0000   1.0000   1.0000   1.0000   1.0000   1.0000   1.0000
     1.0000   1.0000   1.0000   1.0000   1.0000   1.0000   1.0000   1.0000
     1.0014   1.0014   1.0016   1.0016   1.0351   1.0351   1.0340   1.0340
     0.6608   0.6608   0.6044   0.6044  -0.0163  -0.0163  -0.0140  -0.0140
    -0.0000  -0.0000  -0.0000  -0.0000  -0.0000  -0.0000

          k = 0.1250-0.5000-0.5000 (  3992 PWs)   bands (ev):

   -56.4922 -56.4922 -56.4922 -56.4922 -56.4763 -56.4763 -56.4763 -56.4763
   -28.5750 -28.5750 -28.5749 -28.5749 -28.5375 -28.5375 -28.5373 -28.5373
   -27.6081 -27.6081 -27.6027 -27.6027 -27.5512 -27.5512 -27.5380 -27.5380
   -27.5205 -27.5205 -27.5067 -27.5067 -27.4439 -27.4439 -27.4393 -27.4393
     5.4501   5.4501   5.4511   5.4511   6.4899   6.4899   6.4918   6.4918
    10.0943  10.0943  10.0979  10.0979  11.0450  11.0450  11.0466  11.0466
    11.9615  11.9615  11.9639  11.9639  12.3373  12.3373  12.3399  12.3399
    13.2770  13.2770  13.2778  13.2778  13.8494  13.8494  13.8627  13.8627
    14.3493  14.3493  14.3547  14.3547  14.6344  14.6344  14.6509  14.6509
    14.8045  14.8045  14.8065  14.8065  15.3897  15.3897  15.3899  15.3899
    16.5250  16.5250  16.5265  16.5265  16.9750  16.9765

     occupation numbers 
     1.0000   1.0000   1.0000   1.0000   1.0000   1.0000   1.0000   1.0000
     1.0000   1.0000   1.0000   1.0000   1.0000   1.0000   1.0000   1.0000
     1.0000   1.0000   1.0000   1.0000   1.0000   1.0000   1.0000   1.0000
     1.0000   1.0000   1.0000   1.0000   1.0000   1.0000   1.0000   1.0000
     1.0000   1.0000   1.0000   1.0000   1.0000   1.0000   1.0000   1.0000
     1.0000   1.0000   1.0000   1.0000   1.0000   1.0000   1.0000   1.0000
     1.0000   1.0000   1.0000   1.0000   1.0000   1.0000   1.0000   1.0000
     1.0000   1.0000   1.0000   1.0000   1.0000   1.0000   1.0000   1.0000
     1.0034   1.0034   1.0037   1.0037   1.0353   1.0353   1.0339   1.0339
     0.9039   0.9039   0.9003   0.9003  -0.0237  -0.0237  -0.0237  -0.0237
    -0.0000  -0.0000  -0.0000  -0.0000  -0.0000  -0.0000

          k = 0.2500 0.2500 0.2500 (  4013 PWs)   bands (ev):

   -56.5000 -56.5000 -56.4874 -56.4874 -56.4772 -56.4772 -56.4725 -56.4725
   -28.5884 -28.5840 -28.5722 -28.5720 -28.5509 -28.5478 -28.5150 -28.5141
   -27.6312 -27.6275 -27.5856 -27.5737 -27.5615 -27.5587 -27.5490 -27.5465
   -27.5155 -27.5118 -27.4804 -27.4782 -27.4673 -27.4625 -27.4385 -27.4360
     3.9458   3.9459   6.0557   6.0624   6.7964   6.8065   8.0527   8.0536
     9.0679   9.0706  10.0641  10.0676  11.1560  11.1601  11.2003  11.2007
    11.9220  11.9234  12.3578  12.3593  12.8124  12.8190  12.8840  12.8848
    13.1355  13.1434  13.1441  13.1560  13.1876  13.1925  13.7609  13.7695
    13.7774  13.7895  14.0669  14.0743  14.4518  14.4690  14.9898  15.0059
    15.1336  15.1368  15.2699  15.2706  15.3100  15.3157  15.6186  15.6376
    16.1867  16.1948  16.4861  16.4974  17.1300  17.1598

     occupation numbers 
     1.0000   1.0000   1.0000   1.0000   1.0000   1.0000   1.0000   1.0000
     1.0000   1.0000   1.0000   1.0000   1.0000   1.0000   1.0000   1.0000
     1.0000   1.0000   1.0000   1.0000   1.0000   1.0000   1.0000   1.0000
     1.0000   1.0000   1.0000   1.0000   1.0000   1.0000   1.0000   1.0000
     1.0000   1.0000   1.0000   1.0000   1.0000   1.0000   1.0000   1.0000
     1.0000   1.0000   1.0000   1.0000   1.0000   1.0000   1.0000   1.0000
     1.0000   1.0000   1.0000   1.0000   1.0000   1.0000   1.0000   1.0000
     1.0000   1.0000   1.0000   1.0000   1.0000   1.0000   1.0000   1.0000
     1.0000   1.0000   1.0000   1.0000   1.0122   1.0145   0.4029   0.3546
     0.0612   0.0566  -0.0344  -0.0344  -0.0348  -0.0344  -0.0016  -0.0012
    -0.0000  -0.0000  -0.0000  -0.0000  -0.0000  -0.0000

          k = 0.2500 0.2500 0.3750 (  3982 PWs)   bands (ev):

   -56.4967 -56.4967 -56.4894 -56.4894 -56.4770 -56.4770 -56.4739 -56.4739
   -28.5844 -28.5808 -28.5734 -28.5721 -28.5454 -28.5431 -28.5245 -28.5233
   -27.6270 -27.6238 -27.5821 -27.5738 -27.5685 -27.5637 -27.5455 -27.5360
   -27.5262 -27.5129 -27.4843 -27.4743 -27.4694 -27.4606 -27.4383 -27.4355
     4.4241   4.4244   5.6853   5.6883   6.9138   6.9197   7.7729   7.7756
     8.9822   8.9860   9.7562   9.7601  11.0350  11.0380  11.5986  11.6014
    11.6792  11.6824  12.2600  12.2647  12.7439  12.7535  12.8795  12.8867
    13.1123  13.1243  13.2151  13.2263  13.2962  13.3003  13.6248  13.6326
    13.9412  13.9512  14.2649  14.2762  14.6182  14.6505  14.8483  14.8676
    15.0245  15.0348  15.1854  15.2116  15.3309  15.3458  15.5302  15.5469
    16.2265  16.2332  16.4167  16.4249  17.1246  17.1397

     occupation numbers 
     1.0000   1.0000   1.0000   1.0000   1.0000   1.0000   1.0000   1.0000
     1.0000   1.0000   1.0000   1.0000   1.0000   1.0000   1.0000   1.0000
     1.0000   1.0000   1.0000   1.0000   1.0000   1.0000   1.0000   1.0000
     1.0000   1.0000   1.0000   1.0000   1.0000   1.0000   1.0000   1.0000
     1.0000   1.0000   1.0000   1.0000   1.0000   1.0000   1.0000   1.0000
     1.0000   1.0000   1.0000   1.0000   1.0000   1.0000   1.0000   1.0000
     1.0000   1.0000   1.0000   1.0000   1.0000   1.0000   1.0000   1.0000
     1.0000   1.0000   1.0000   1.0000   1.0000   1.0000   1.0000   1.0000
     1.0000   1.0000   1.0009   1.0011   1.0354   1.0339   0.8132   0.7656
     0.3009   0.2723   0.0017  -0.0164  -0.0328  -0.0309  -0.0057  -0.0046
    -0.0000  -0.0000  -0.0000  -0.0000  -0.0000  -0.0000

          k = 0.2500 0.2500-0.5000 (  4016 PWs)   bands (ev):

   -56.4929 -56.4929 -56.4929 -56.4929 -56.4756 -56.4756 -56.4756 -56.4756
   -28.5798 -28.5798 -28.5750 -28.5750 -28.5366 -28.5366 -28.5328 -28.5328
   -27.6236 -27.6236 -27.5777 -27.5777 -27.5687 -27.5687 -27.5376 -27.5376
   -27.5223 -27.5223 -27.4813 -27.4813 -27.4628 -27.4628 -27.4369 -27.4369
     5.0383   5.0383   5.0395   5.0395   7.3209   7.3209   7.3269   7.3269
     9.3127   9.3127   9.3168   9.3168  11.2784  11.2784  11.2808  11.2808
    11.9785  11.9785  11.9866  11.9866  12.8058  12.8058  12.8160  12.8160
    13.1761  13.1761  13.1888  13.1888  13.4415  13.4415  13.4487  13.4487
    14.1713  14.1713  14.1809  14.1809  14.7536  14.7536  14.7809  14.7809
    15.0596  15.0596  15.0785  15.0785  15.4364  15.4364  15.4526  15.4526
    16.3157  16.3157  16.3253  16.3253  17.2613  17.2640

     occupation numbers 
     1.0000   1.0000   1.0000   1.0000   1.0000   1.0000   1.0000   1.0000
     1.0000   1.0000   1.0000   1.0000   1.0000   1.0000   1.0000   1.0000
     1.0000   1.0000   1.0000   1.0000   1.0000   1.0000   1.0000   1.0000
     1.0000   1.0000   1.0000   1.0000   1.0000   1.0000   1.0000   1.0000
     1.0000   1.0000   1.0000   1.0000   1.0000   1.0000   1.0000   1.0000
     1.0000   1.0000   1.0000   1.0000   1.0000   1.0000   1.0000   1.0000
     1.0000   1.0000   1.0000   1.0000   1.0000   1.0000   1.0000   1.0000
     1.0000   1.0000   1.0000   1.0000   1.0000   1.0000   1.0000   1.0000
     1.0002   1.0002   1.0002   1.0002   0.9769   0.9769   0.9421   0.9421
     0.2080   0.2080   0.1637   0.1637  -0.0161  -0.0161  -0.0138  -0.0138
    -0.0000  -0.0000  -0.0000  -0.0000  -0.0000  -0.0000

          k = 0.2500 0.3750 0.3750 (  3996 PWs)   bands (ev):

   -56.4939 -56.4939 -56.4894 -56.4894 -56.4779 -56.4779 -56.4756 -56.4756
   -28.5796 -28.5767 -28.5710 -28.5702 -28.5455 -28.5438 -28.5324 -28.5310
   -27.6197 -27.6169 -27.5854 -27.5803 -27.5695 -27.5651 -27.5469 -27.5357
   -27.5261 -27.5101 -27.4887 -27.4791 -27.4627 -27.4574 -27.4400 -27.4370
     4.8713   4.8719   5.7982   5.8021   6.6838   6.6905   7.3961   7.3993
     8.9604   8.9649   9.5747   9.5800  10.6902  10.6939  11.2089  11.2106
    12.0039  12.0067  12.4226  12.4267  12.6344  12.6399  12.8224  12.8281
    13.1311  13.1393  13.1848  13.1932  13.3854  13.3949  13.5868  13.5986
    14.1458  14.1543  14.5002  14.5172  14.6878  14.7113  14.8416  14.8605
    14.9374  14.9415  15.1350  15.1673  15.2792  15.2909  15.4354  15.4488
    16.2820  16.2895  16.4091  16.4136  16.9787  16.9888

     occupation numbers 
     1.0000   1.0000   1.0000   1.0000   1.0000   1.0000   1.0000   1.0000
     1.0000   1.0000   1.0000   1.0000   1.0000   1.0000   1.0000   1.0000
     1.0000   1.0000   1.0000   1.0000   1.0000   1.0000   1.0000   1.0000
     1.0000   1.0000   1.0000   1.0000   1.0000   1.0000   1.0000   1.0000
     1.0000   1.0000   1.0000   1.0000   1.0000   1.0000   1.0000   1.0000
     1.0000   1.0000   1.0000   1.0000   1.0000   1.0000   1.0000   1.0000
     1.0000   1.0000   1.0000   1.0000   1.0000   1.0000   1.0000   1.0000
     1.0000   1.0000   1.0000   1.0000   1.0000   1.0000   1.0000   1.0000
     1.0001   1.0001   1.0193   1.0221   1.0245   1.0127   0.8287   0.7834
     0.5649   0.5523   0.0591   0.0186  -0.0351  -0.0355  -0.0163  -0.0143
    -0.0000  -0.0000  -0.0000  -0.0000  -0.0000  -0.0000

          k = 0.2500 0.3750-0.5000 (  3990 PWs)   bands (ev):

   -56.4912 -56.4912 -56.4911 -56.4911 -56.4773 -56.4773 -56.4773 -56.4773
   -28.5748 -28.5748 -28.5714 -28.5714 -28.5412 -28.5412 -28.5383 -28.5383
   -27.6141 -27.6141 -27.5874 -27.5874 -27.5666 -27.5666 -27.5431 -27.5431
   -27.5155 -27.5155 -27.4868 -27.4868 -27.4566 -27.4566 -27.4398 -27.4398
     5.4138   5.4138   5.4155   5.4155   6.9233   6.9233   6.9286   6.9286
     9.2742   9.2742   9.2793   9.2793  10.7900  10.7900  10.7925  10.7925
    12.2831  12.2831  12.2917  12.2917  12.6886  12.6886  12.6959  12.6959
    13.1747  13.1747  13.1824  13.1824  13.4790  13.4790  13.4920  13.4920
    14.4101  14.4101  14.4188  14.4188  14.7961  14.7961  14.8136  14.8136
    14.9925  14.9925  15.0145  15.0145  15.3529  15.3529  15.3633  15.3633
    16.3708  16.3708  16.3779  16.3779  16.9903  16.9933

     occupation numbers 
     1.0000   1.0000   1.0000   1.0000   1.0000   1.0000   1.0000   1.0000
     1.0000   1.0000   1.0000   1.0000   1.0000   1.0000   1.0000   1.0000
     1.0000   1.0000   1.0000   1.0000   1.0000   1.0000   1.0000   1.0000
     1.0000   1.0000   1.0000   1.0000   1.0000   1.0000   1.0000   1.0000
     1.0000   1.0000   1.0000   1.0000   1.0000   1.0000   1.0000   1.0000
     1.0000   1.0000   1.0000   1.0000   1.0000   1.0000   1.0000   1.0000
     1.0000   1.0000   1.0000   1.0000   1.0000   1.0000   1.0000   1.0000
     1.0000   1.0000   1.0000   1.0000   1.0000   1.0000   1.0000   1.0000
     1.0076   1.0076   1.0085   1.0085   0.9183   0.9183   0.8872   0.8872
     0.3945   0.3945   0.3295   0.3295  -0.0298  -0.0298  -0.0282  -0.0282
    -0.0000  -0.0000  -0.0000  -0.0000  -0.0000  -0.0000

          k = 0.2500-0.5000-0.5000 (  3992 PWs)   bands (ev):

   -56.4903 -56.4903 -56.4903 -56.4903 -56.4782 -56.4782 -56.4782 -56.4782
   -28.5710 -28.5710 -28.5708 -28.5708 -28.5424 -28.5424 -28.5420 -28.5420
   -27.6055 -27.6055 -27.5969 -27.5969 -27.5645 -27.5645 -27.5457 -27.5457
   -27.5109 -27.5109 -27.4918 -27.4918 -27.4511 -27.4511 -27.4433 -27.4433
     5.6748   5.6748   5.6770   5.6770   6.6225   6.6225   6.6266   6.6266
     9.3833   9.3833   9.3887   9.3887  10.5110  10.5110  10.5142  10.5142
    12.4799  12.4799  12.4831  12.4831  12.5661  12.5661  12.5682  12.5682
    13.1181  13.1181  13.1184  13.1184  13.5578  13.5578  13.5706  13.5706
    14.5131  14.5131  14.5219  14.5219  14.8396  14.8396  14.8542  14.8542
    14.9410  14.9410  14.9420  14.9420  15.3149  15.3149  15.3178  15.3178
    16.4196  16.4196  16.4203  16.4203  16.8677  16.8691

     occupation numbers 
     1.0000   1.0000   1.0000   1.0000   1.0000   1.0000   1.0000   1.0000
     1.0000   1.0000   1.0000   1.0000   1.0000   1.0000   1.0000   1.0000
     1.0000   1.0000   1.0000   1.0000   1.0000   1.0000   1.0000   1.0000
     1.0000   1.0000   1.0000   1.0000   1.0000   1.0000   1.0000   1.0000
     1.0000   1.0000   1.0000   1.0000   1.0000   1.0000   1.0000   1.0000
     1.0000   1.0000   1.0000   1.0000   1.0000   1.0000   1.0000   1.0000
     1.0000   1.0000   1.0000   1.0000   1.0000   1.0000   1.0000   1.0000
     1.0000   1.0000   1.0000   1.0000   1.0000   1.0000   1.0000   1.0000
     1.0214   1.0214   1.0229   1.0229   0.8332   0.8332   0.7990   0.7990
     0.5539   0.5539   0.5507   0.5507  -0.0345  -0.0345  -0.0342  -0.0342
    -0.0000  -0.0000  -0.0000  -0.0000  -0.0000  -0.0000

          k = 0.3750 0.3750 0.3750 (  3999 PWs)   bands (ev):

   -56.4913 -56.4913 -56.4882 -56.4882 -56.4797 -56.4797 -56.4777 -56.4777
   -28.5744 -28.5719 -28.5668 -28.5666 -28.5488 -28.5472 -28.5395 -28.5379
   -27.6125 -27.6097 -27.5844 -27.5782 -27.5774 -27.5753 -27.5503 -27.5441
   -27.5156 -27.5040 -27.4831 -27.4688 -27.4663 -27.4640 -27.4438 -27.4414
     5.2862   5.2871   6.0016   6.0078   6.6330   6.6427   7.1906   7.1940
     8.7576   8.7632   9.2642   9.2715  10.1972  10.2022  10.6481  10.6504
    12.3254  12.3284  12.5937  12.5981  12.7717  12.7751  12.8699  12.8717
[...]
   -28.5912 -28.5864 -28.5826 -28.5800 -28.5408 -28.5383 -28.5110 -28.5101
   -27.6403 -27.6350 -27.5806 -27.5777 -27.5670 -27.5502 -27.5449 -27.5329
   -27.5266 -27.4971 -27.4883 -27.4747 -27.4657 -27.4597 -27.4440 -27.4411
     3.7460   3.7461   5.2150   5.2155   7.6697   7.6721   8.4251   8.4320
     9.7511   9.7539  10.2969  10.3029  10.9508  10.9578  10.9956  10.9987
    11.9133  11.9170  12.2320  12.2368  12.8402  12.8483  13.0374  13.0403
    13.0632  13.0654  13.1373  13.1424  13.3007  13.3052  13.3933  13.3989
    13.5826  13.5827  13.9452  13.9520  14.2848  14.3012  14.8181  14.8521
    15.3128  15.3287  15.3888  15.4074  15.6879  15.7159  15.8067  15.8314
    16.1520  16.1652  16.3472  16.3620  17.3427  17.3618

     occupation numbers 
     1.0000   1.0000   1.0000   1.0000   1.0000   1.0000   1.0000   1.0000
     1.0000   1.0000   1.0000   1.0000   1.0000   1.0000   1.0000   1.0000
     1.0000   1.0000   1.0000   1.0000   1.0000   1.0000   1.0000   1.0000
     1.0000   1.0000   1.0000   1.0000   1.0000   1.0000   1.0000   1.0000
     1.0000   1.0000   1.0000   1.0000   1.0000   1.0000   1.0000   1.0000
     1.0000   1.0000   1.0000   1.0000   1.0000   1.0000   1.0000   1.0000
     1.0000   1.0000   1.0000   1.0000   1.0000   1.0000   1.0000   1.0000
     1.0000   1.0000   1.0000   1.0000   1.0000   1.0000   1.0000   1.0000
     1.0000   1.0000   1.0000   1.0000   1.0013   1.0017   0.8784   0.8042
    -0.0346  -0.0331  -0.0239  -0.0208  -0.0005  -0.0003  -0.0000  -0.0000
    -0.0000  -0.0000  -0.0000  -0.0000  -0.0000  -0.0000

          k = 0.0000-0.5000 0.1250 (  4002 PWs)   bands (ev):

   -56.4960 -56.4960 -56.4960 -56.4960 -56.4725 -56.4725 -56.4725 -56.4725
   -28.5884 -28.5884 -28.5828 -28.5828 -28.5259 -28.5259 -28.5235 -28.5235
   -27.6387 -27.6387 -27.5749 -27.5749 -27.5621 -27.5621 -27.5378 -27.5378
   -27.5122 -27.5122 -27.4807 -27.4807 -27.4640 -27.4640 -27.4423 -27.4423
     4.4232   4.4232   4.4236   4.4236   8.0610   8.0610   8.0663   8.0663
    10.0579  10.0579  10.0627  10.0627  10.8877  10.8877  10.8962  10.8962
    12.1706  12.1706  12.1756  12.1756  12.8637  12.8637  12.8709  12.8709
    13.1038  13.1038  13.1093  13.1093  13.3116  13.3116  13.3189  13.3189
    13.7958  13.7958  13.8004  13.8004  14.5939  14.5939  14.6239  14.6239
    15.3243  15.3243  15.3451  15.3451  15.7368  15.7368  15.7658  15.7658
    16.1957  16.1957  16.2079  16.2079  17.6076  17.6096

     occupation numbers 
     1.0000   1.0000   1.0000   1.0000   1.0000   1.0000   1.0000   1.0000
     1.0000   1.0000   1.0000   1.0000   1.0000   1.0000   1.0000   1.0000
     1.0000   1.0000   1.0000   1.0000   1.0000   1.0000   1.0000   1.0000
     1.0000   1.0000   1.0000   1.0000   1.0000   1.0000   1.0000   1.0000
     1.0000   1.0000   1.0000   1.0000   1.0000   1.0000   1.0000   1.0000
     1.0000   1.0000   1.0000   1.0000   1.0000   1.0000   1.0000   1.0000
     1.0000   1.0000   1.0000   1.0000   1.0000   1.0000   1.0000   1.0000
     1.0000   1.0000   1.0000   1.0000   1.0000   1.0000   1.0000   1.0000
     1.0000   1.0000   1.0000   1.0000   1.0337   1.0337   1.0355   1.0355
    -0.0336  -0.0336  -0.0310  -0.0310  -0.0002  -0.0002  -0.0001  -0.0001
    -0.0000  -0.0000  -0.0000  -0.0000  -0.0000  -0.0000

          k = 0.0000 0.3750 0.2500 (  3991 PWs)   bands (ev):

   -56.4993 -56.4993 -56.4904 -56.4904 -56.4750 -56.4750 -56.4723 -56.4723
   -28.5886 -28.5845 -28.5785 -28.5769 -28.5421 -28.5395 -28.5169 -28.5159
   -27.6338 -27.6311 -27.5818 -27.5777 -27.5630 -27.5546 -27.5444 -27.5358
   -27.5250 -27.5052 -27.4933 -27.4856 -27.4648 -27.4520 -27.4392 -27.4366
     4.0421   4.0424   5.4182   5.4189   7.0496   7.0505   8.0226   8.0271
     9.9611   9.9644  10.2711  10.2764  10.9131  10.9168  11.0742  11.0763
    11.9272  11.9315  12.2433  12.2470  12.5567  12.5608  12.8008  12.8058
    13.1029  13.1094  13.3356  13.3404  13.5350  13.5400  13.6308  13.6372
    13.7312  13.7423  14.0013  14.0125  14.4369  14.4610  14.8111  14.8422
    15.1091  15.1276  15.1532  15.1711  15.5656  15.5924  15.6585  15.6866
    16.1923  16.2019  16.4184  16.4295  17.2893  17.3202

     occupation numbers 
     1.0000   1.0000   1.0000   1.0000   1.0000   1.0000   1.0000   1.0000
     1.0000   1.0000   1.0000   1.0000   1.0000   1.0000   1.0000   1.0000
     1.0000   1.0000   1.0000   1.0000   1.0000   1.0000   1.0000   1.0000
     1.0000   1.0000   1.0000   1.0000   1.0000   1.0000   1.0000   1.0000
     1.0000   1.0000   1.0000   1.0000   1.0000   1.0000   1.0000   1.0000
     1.0000   1.0000   1.0000   1.0000   1.0000   1.0000   1.0000   1.0000
     1.0000   1.0000   1.0000   1.0000   1.0000   1.0000   1.0000   1.0000
     1.0000   1.0000   1.0000   1.0000   1.0000   1.0000   1.0000   1.0000
     1.0000   1.0000   1.0000   1.0000   1.0104   1.0134   0.8918   0.8272
     0.1017   0.0703   0.0346   0.0148  -0.0035  -0.0024  -0.0008  -0.0005
    -0.0000  -0.0000  -0.0000  -0.0000  -0.0000  -0.0000

          k = 0.0000-0.5000 0.2500 (  4002 PWs)   bands (ev):

   -56.4948 -56.4948 -56.4948 -56.4948 -56.4737 -56.4737 -56.4737 -56.4737
   -28.5848 -28.5848 -28.5796 -28.5796 -28.5305 -28.5305 -28.5272 -28.5272
   -27.6318 -27.6318 -27.5790 -27.5790 -27.5596 -27.5596 -27.5363 -27.5363
   -27.5200 -27.5200 -27.4908 -27.4908 -27.4572 -27.4572 -27.4372 -27.4372
     4.6926   4.6926   4.6933   4.6933   7.4885   7.4885   7.4919   7.4919
    10.2674  10.2674  10.2721  10.2721  10.8464  10.8464  10.8507  10.8507
    12.0972  12.0972  12.1028  12.1028  12.6631  12.6631  12.6735  12.6735
    13.1906  13.1906  13.1977  13.1977  13.6655  13.6655  13.6751  13.6751
    13.8579  13.8579  13.8651  13.8651  14.6413  14.6413  14.6745  14.6745
    15.0949  15.0949  15.1214  15.1214  15.5743  15.5743  15.6013  15.6013
    16.2894  16.2894  16.3005  16.3005  17.4822  17.4840

     occupation numbers 
     1.0000   1.0000   1.0000   1.0000   1.0000   1.0000   1.0000   1.0000
     1.0000   1.0000   1.0000   1.0000   1.0000   1.0000   1.0000   1.0000
     1.0000   1.0000   1.0000   1.0000   1.0000   1.0000   1.0000   1.0000
     1.0000   1.0000   1.0000   1.0000   1.0000   1.0000   1.0000   1.0000
     1.0000   1.0000   1.0000   1.0000   1.0000   1.0000   1.0000   1.0000
     1.0000   1.0000   1.0000   1.0000   1.0000   1.0000   1.0000   1.0000
     1.0000   1.0000   1.0000   1.0000   1.0000   1.0000   1.0000   1.0000
     1.0000   1.0000   1.0000   1.0000   1.0000   1.0000   1.0000   1.0000
     1.0000   1.0000   1.0000   1.0000   1.0349   1.0349   1.0290   1.0290
     0.1289   0.1289   0.0803   0.0803  -0.0031  -0.0031  -0.0021  -0.0021
    -0.0000  -0.0000  -0.0000  -0.0000  -0.0000  -0.0000

          k = 0.0000-0.5000 0.3750 (  4016 PWs)   bands (ev):

   -56.4935 -56.4935 -56.4935 -56.4935 -56.4751 -56.4751 -56.4751 -56.4751
   -28.5800 -28.5800 -28.5765 -28.5765 -28.5349 -28.5349 -28.5322 -28.5322
   -27.6209 -27.6209 -27.5918 -27.5918 -27.5500 -27.5500 -27.5343 -27.5343
   -27.5248 -27.5248 -27.5061 -27.5061 -27.4472 -27.4472 -27.4362 -27.4362
     5.0910   5.0910   5.0918   5.0918   6.8154   6.8154   6.8174   6.8174
    10.6257  10.6257  10.6279  10.6279  10.8545  10.8545  10.8579  10.8579
    11.8750  11.8750  11.8783  11.8783  12.3371  12.3371  12.3449  12.3449
    13.3044  13.3044  13.3098  13.3098  13.9522  13.9522  13.9588  13.9588
    14.0819  14.0819  14.0899  14.0899  14.6250  14.6250  14.6569  14.6569
    14.8258  14.8258  14.8660  14.8660  15.4512  15.4512  15.4703  15.4703
    16.4484  16.4484  16.4606  16.4606  17.1936  17.2030

     occupation numbers 
     1.0000   1.0000   1.0000   1.0000   1.0000   1.0000   1.0000   1.0000
     1.0000   1.0000   1.0000   1.0000   1.0000   1.0000   1.0000   1.0000
     1.0000   1.0000   1.0000   1.0000   1.0000   1.0000   1.0000   1.0000
     1.0000   1.0000   1.0000   1.0000   1.0000   1.0000   1.0000   1.0000
     1.0000   1.0000   1.0000   1.0000   1.0000   1.0000   1.0000   1.0000
     1.0000   1.0000   1.0000   1.0000   1.0000   1.0000   1.0000   1.0000
     1.0000   1.0000   1.0000   1.0000   1.0000   1.0000   1.0000   1.0000
     1.0000   1.0000   1.0000   1.0000   1.0000   1.0000   1.0000   1.0000
     1.0000   1.0000   1.0000   1.0000   1.0355   1.0355   1.0330   1.0330
     0.8629   0.8629   0.7697   0.7697  -0.0140  -0.0140  -0.0115  -0.0115
    -0.0000  -0.0000  -0.0000  -0.0000  -0.0000  -0.0000

          k =-0.1250 0.3750 0.2500 (  3989 PWs)   bands (ev):

   -56.4986 -56.4986 -56.4900 -56.4900 -56.4756 -56.4756 -56.4727 -56.4727
   -28.5875 -28.5836 -28.5770 -28.5755 -28.5431 -28.5406 -28.5189 -28.5179
   -27.6321 -27.6291 -27.5818 -27.5760 -27.5646 -27.5569 -27.5440 -27.5389
   -27.5217 -27.5125 -27.4873 -27.4811 -27.4676 -27.4555 -27.4383 -27.4360
     4.1394   4.1396   5.4918   5.4933   7.0426   7.0453   7.9729   7.9771
     9.4188   9.4214  10.2031  10.2045  10.9163  10.9178  11.5468  11.5503
    11.7484  11.7505  12.1912  12.1949  12.6607  12.6651  12.8629  12.8683
    13.0859  13.0905  13.2610  13.2727  13.4161  13.4193  13.6486  13.6599
    13.7983  13.8072  14.0804  14.0894  14.4911  14.5180  14.8228  14.8506
    15.0891  15.1083  15.1682  15.1858  15.4890  15.5010  15.6285  15.6468
    16.2001  16.2083  16.4210  16.4325  17.2585  17.2878

     occupation numbers 
     1.0000   1.0000   1.0000   1.0000   1.0000   1.0000   1.0000   1.0000
     1.0000   1.0000   1.0000   1.0000   1.0000   1.0000   1.0000   1.0000
     1.0000   1.0000   1.0000   1.0000   1.0000   1.0000   1.0000   1.0000
     1.0000   1.0000   1.0000   1.0000   1.0000   1.0000   1.0000   1.0000
     1.0000   1.0000   1.0000   1.0000   1.0000   1.0000   1.0000   1.0000
     1.0000   1.0000   1.0000   1.0000   1.0000   1.0000   1.0000   1.0000
     1.0000   1.0000   1.0000   1.0000   1.0000   1.0000   1.0000   1.0000
     1.0000   1.0000   1.0000   1.0000   1.0000   1.0000   1.0000   1.0000
     1.0000   1.0000   1.0000   1.0000   1.0178   1.0222   0.8691   0.8077
     0.1407   0.1032   0.0176   0.0013  -0.0094  -0.0081  -0.0014  -0.0010
    -0.0000  -0.0000  -0.0000  -0.0000  -0.0000  -0.0000

          k =-0.1250-0.5000 0.2500 (  4010 PWs)   bands (ev):

   -56.4943 -56.4943 -56.4943 -56.4943 -56.4742 -56.4742 -56.4742 -56.4742
   -28.5835 -28.5835 -28.5783 -28.5783 -28.5322 -28.5322 -28.5287 -28.5287
   -27.6297 -27.6297 -27.5779 -27.5779 -27.5630 -27.5630 -27.5350 -27.5350
   -27.5232 -27.5232 -27.4861 -27.4861 -27.4601 -27.4601 -27.4366 -27.4366
     4.7817   4.7817   4.7825   4.7825   7.4724   7.4724   7.4769   7.4769
     9.7747   9.7747   9.7757   9.7757  11.2738  11.2738  11.2787  11.2787
    11.9388  11.9388  11.9438  11.9438  12.7564  12.7564  12.7663  12.7663
    13.1607  13.1607  13.1693  13.1693  13.5623  13.5623  13.5705  13.5705
    13.9660  13.9660  13.9753  13.9753  14.6826  14.6826  14.7160  14.7160
    15.0830  15.0830  15.1079  15.1079  15.5360  15.5360  15.5579  15.5579
    16.2934  16.2934  16.3040  16.3040  17.4730  17.4760

     occupation numbers 
     1.0000   1.0000   1.0000   1.0000   1.0000   1.0000   1.0000   1.0000
     1.0000   1.0000   1.0000   1.0000   1.0000   1.0000   1.0000   1.0000
     1.0000   1.0000   1.0000   1.0000   1.0000   1.0000   1.0000   1.0000
     1.0000   1.0000   1.0000   1.0000   1.0000   1.0000   1.0000   1.0000
     1.0000   1.0000   1.0000   1.0000   1.0000   1.0000   1.0000   1.0000
     1.0000   1.0000   1.0000   1.0000   1.0000   1.0000   1.0000   1.0000
     1.0000   1.0000   1.0000   1.0000   1.0000   1.0000   1.0000   1.0000
     1.0000   1.0000   1.0000   1.0000   1.0000   1.0000   1.0000   1.0000
     1.0000   1.0000   1.0000   1.0000   1.0265   1.0265   1.0097   1.0097
     0.1538   0.1538   0.1038   0.1038  -0.0053  -0.0053  -0.0039  -0.0039
    -0.0000  -0.0000  -0.0000  -0.0000  -0.0000  -0.0000

          k =-0.1250-0.5000 0.3750 (  4006 PWs)   bands (ev):

   -56.4928 -56.4928 -56.4928 -56.4928 -56.4757 -56.4757 -56.4757 -56.4757
   -28.5786 -28.5786 -28.5751 -28.5751 -28.5366 -28.5366 -28.5338 -28.5338
   -27.6192 -27.6192 -27.5904 -27.5904 -27.5560 -27.5560 -27.5352 -27.5352
   -27.5243 -27.5243 -27.4989 -27.4989 -27.4500 -27.4500 -27.4368 -27.4368
     5.1742   5.1742   5.1753   5.1753   6.8584   6.8584   6.8612   6.8612
     9.9489   9.9489   9.9515   9.9515  11.1566  11.1566  11.1597  11.1597
    11.9568  11.9568  11.9622  11.9622  12.4593  12.4593  12.4685  12.4685
    13.2347  13.2347  13.2406  13.2406  13.7826  13.7826  13.7956  13.7956
    14.1948  14.1948  14.2032  14.2032  14.6809  14.6809  14.7077  14.7077
    14.8707  14.8707  14.9094  14.9094  15.4218  15.4218  15.4381  15.4381
    16.4172  16.4172  16.4284  16.4284  17.1546  17.1591

     occupation numbers 
     1.0000   1.0000   1.0000   1.0000   1.0000   1.0000   1.0000   1.0000
     1.0000   1.0000   1.0000   1.0000   1.0000   1.0000   1.0000   1.0000
     1.0000   1.0000   1.0000   1.0000   1.0000   1.0000   1.0000   1.0000
     1.0000   1.0000   1.0000   1.0000   1.0000   1.0000   1.0000   1.0000
     1.0000   1.0000   1.0000   1.0000   1.0000   1.0000   1.0000   1.0000
     1.0000   1.0000   1.0000   1.0000   1.0000   1.0000   1.0000   1.0000
     1.0000   1.0000   1.0000   1.0000   1.0000   1.0000   1.0000   1.0000
     1.0000   1.0000   1.0000   1.0000   1.0000   1.0000   1.0000   1.0000
     1.0003   1.0003   1.0003   1.0003   1.0270   1.0270   1.0149   1.0149
     0.7575   0.7575   0.6495   0.6495  -0.0184  -0.0184  -0.0159  -0.0159
    -0.0000  -0.0000  -0.0000  -0.0000  -0.0000  -0.0000

          k =-0.2500-0.5000 0.3750 (  3990 PWs)   bands (ev):

   -56.4911 -56.4911 -56.4911 -56.4911 -56.4773 -56.4773 -56.4773 -56.4773
   -28.5748 -28.5748 -28.5714 -28.5714 -28.5412 -28.5412 -28.5382 -28.5382
   -27.6142 -27.6142 -27.5871 -27.5871 -27.5668 -27.5668 -27.5430 -27.5430
   -27.5156 -27.5156 -27.4867 -27.4867 -27.4566 -27.4566 -27.4398 -27.4398
     5.4137   5.4137   5.4152   5.4152   6.9241   6.9241   6.9287   6.9287
     9.2767   9.2767   9.2814   9.2814  10.7802  10.7802  10.7828  10.7828
    12.2821  12.2821  12.2904  12.2904  12.7246  12.7246  12.7345  12.7345
    13.1123  13.1123  13.1213  13.1213  13.5306  13.5306  13.5423  13.5423
    14.3847  14.3847  14.3919  14.3919  14.8020  14.8020  14.8203  14.8203
    14.9988  14.9988  15.0304  15.0304  15.3386  15.3386  15.3527  15.3527
    16.3598  16.3598  16.3697  16.3697  17.0079  17.0115

     occupation numbers 
     1.0000   1.0000   1.0000   1.0000   1.0000   1.0000   1.0000   1.0000
     1.0000   1.0000   1.0000   1.0000   1.0000   1.0000   1.0000   1.0000
     1.0000   1.0000   1.0000   1.0000   1.0000   1.0000   1.0000   1.0000
     1.0000   1.0000   1.0000   1.0000   1.0000   1.0000   1.0000   1.0000
     1.0000   1.0000   1.0000   1.0000   1.0000   1.0000   1.0000   1.0000
     1.0000   1.0000   1.0000   1.0000   1.0000   1.0000   1.0000   1.0000
     1.0000   1.0000   1.0000   1.0000   1.0000   1.0000   1.0000   1.0000
     1.0000   1.0000   1.0000   1.0000   1.0000   1.0000   1.0000   1.0000
     1.0056   1.0056   1.0061   1.0061   0.9083   0.9083   0.8741   0.8741
     0.3756   0.3756   0.2845   0.2845  -0.0319  -0.0319  -0.0298  -0.0298
    -0.0000  -0.0000  -0.0000  -0.0000  -0.0000  -0.0000

     the Fermi energy is    14.9583 ev

!    total energy              =   -1180.32450519 Ry

     total all-electron energy =    -10727.785342 Ry
     estimated scf accuracy    <       0.00000017 Ry
     smearing contrib. (-TS)   =      -0.00080862 Ry
     internal energy E=F+TS    =   -1180.32369657 Ry

     The total energy is F=E-TS. E is the sum of the following terms:
     one-electron contribution =    -336.77015882 Ry
     hartree contribution      =     207.02169359 Ry
     xc contribution           =    -114.35052445 Ry
     ewald contribution        =    -496.51183961 Ry
     one-center paw contrib.   =    -439.71286728 Ry
      -> PAW hartree energy AE =     126.17398561 Ry
      -> PAW hartree energy PS =    -125.21039324 Ry
      -> PAW xc energy AE      =     -96.18905584 Ry
      -> PAW xc energy PS      =      20.88746246 Ry
      -> total E_H with PAW    =     207.98528596 Ry
      -> total E_XC with PAW   =    -189.65211783 Ry

     convergence has been achieved in  10 iterations

     Writing output data file /zfs_data/vergnior/martin/Scratch/OAL/CrSi/convergence/cutoff/8x8x8/50/tmp/CrSi.save/
 
     init_run     :      4.08s CPU      4.24s WALL (       1 calls)
     electrons    :    132.07s CPU    136.09s WALL (       1 calls)

     Called by init_run:
     wfcinit      :      3.44s CPU      3.55s WALL (       1 calls)
     wfcinit:atom :      0.02s CPU      0.02s WALL (      45 calls)
     wfcinit:wfcr :      3.31s CPU      3.41s WALL (      45 calls)
     potinit      :      0.15s CPU      0.16s WALL (       1 calls)
     hinit0       :      0.13s CPU      0.13s WALL (       1 calls)

     Called by electrons:
     c_bands      :    109.15s CPU    111.97s WALL (      11 calls)
     sum_band     :     18.54s CPU     19.38s WALL (      11 calls)
     v_of_rho     :      0.08s CPU      0.08s WALL (      11 calls)
     v_h          :      0.01s CPU      0.01s WALL (      11 calls)
     v_xc         :      0.07s CPU      0.08s WALL (      11 calls)
     newd         :      3.24s CPU      3.55s WALL (      11 calls)
     PAW_pot      :      1.36s CPU      1.38s WALL (      11 calls)
     mix_rho      :      0.07s CPU      0.08s WALL (      11 calls)

     Called by c_bands:
     init_us_2    :      0.41s CPU      0.44s WALL (    1035 calls)
     cegterg      :    101.09s CPU    103.83s WALL (     495 calls)

     Called by sum_band:
     sum_band:wei :      0.07s CPU      0.07s WALL (      11 calls)
     sum_band:loo :     16.93s CPU     17.38s WALL (      11 calls)
     sum_band:buf :      0.15s CPU      0.16s WALL (     495 calls)
     sum_band:ini :      0.21s CPU      0.21s WALL (     495 calls)
     sum_band:cal :      1.33s CPU      1.35s WALL (     495 calls)
     sum_band:bec :      6.33s CPU      6.34s WALL (     495 calls)
     addusdens    :      1.48s CPU      1.87s WALL (      11 calls)
     addusd:skk   :      0.00s CPU      0.00s WALL (      22 calls)
     addusd:dgemm :      0.56s CPU      0.93s WALL (      22 calls)
     addusd:qvan2 :      0.90s CPU      0.90s WALL (      22 calls)

     Called by *egterg:
     cdiaghg      :     16.46s CPU     16.56s WALL (    2416 calls)
     cegterg:over :      4.40s CPU      4.43s WALL (    1966 calls)
     cegterg:upda :      1.93s CPU      1.95s WALL (    1966 calls)
     cegterg:last :      4.00s CPU      4.03s WALL (    1322 calls)
     h_psi        :     61.66s CPU     64.27s WALL (    2506 calls)
     s_psi        :     13.74s CPU     13.80s WALL (    2506 calls)
     g_psi        :      0.14s CPU      0.14s WALL (    1966 calls)

     Called by h_psi:
     h_psi:calbec :      4.34s CPU      4.41s WALL (    2506 calls)
     vloc_psi     :     44.42s CPU     46.89s WALL (    2506 calls)
     add_vuspsi   :     12.66s CPU     12.73s WALL (    2506 calls)

     General routines
     calbec       :      5.65s CPU      5.75s WALL (    3001 calls)
     fft          :      0.08s CPU      0.08s WALL (     232 calls)
     ffts         :      0.01s CPU      0.01s WALL (      88 calls)
     fftw         :     43.86s CPU     46.28s WALL (  626120 calls)
     interpolate  :      0.02s CPU      0.02s WALL (      44 calls)
 
     Parallel routines
     fft_scatt_xy :      3.99s CPU      4.19s WALL (  626440 calls)
     fft_scatt_yz :     21.35s CPU     22.47s WALL (  626440 calls)

     PAW routines
     PAW_pot      :      1.36s CPU      1.38s WALL (      11 calls)
     PAW_symme    :      0.02s CPU      0.02s WALL (      22 calls)
 
     PWSCF        :   2m19.17s CPU   2m24.47s WALL

 
   This run was terminated on:  18:57:28  30Jul2021            

=------------------------------------------------------------------------------=
   JOB DONE.
=------------------------------------------------------------------------------=
