
     Program PWSCF v.6.7MaX starts on 18May2022 at 17:47: 4 

     This program is part of the open-source Quantum ESPRESSO suite
     for quantum simulation of materials; please cite
         "P. Giannozzi et al., J. Phys.:Condens. Matter 21 395502 (2009);
         "P. Giannozzi et al., J. Phys.:Condens. Matter 29 465901 (2017);
          URL http://www.quantum-espresso.org", 
     in publications or presentations arising from this work. More details at
     http://www.quantum-espresso.org/quote

     Parallel version (MPI), running on    48 processors

     MPI processes distributed on     1 nodes
     R & G space division:  proc/nbgrp/npool/nimage =      48
     Waiting for input...
     Reading input from standard input

     Current dimensions of program PWSCF are:
     Max number of different atomic species (ntypx) = 10
     Max number of k-points (npk) =  40000
     Max angular momentum in pseudopotentials (lmaxx) =  3
     file O.pbe-nl-kjpaw_psl.1.0.0.UPF: wavefunction(s)  2S 2P renormalized
     file Cl.pbe-nl-kjpaw_psl.1.0.0.UPF: wavefunction(s)  3S renormalized
     file Nb.pbe-spn-kjpaw_psl.1.0.0.UPF: wavefunction(s)  4S 4P 4D renormalized

     Subspace diagonalization in iterative solution of the eigenvalue problem:
     a serial algorithm will be used

     Message from routine setup:
     using ibrav=0 with symmetry is DISCOURAGED, use correct ibrav instead
 
     Parallelization info
     --------------------
     sticks:   dense  smooth     PW     G-vecs:    dense   smooth      PW
     Min         226      90     28                 8011     2025     357
     Max         227      91     29                 8013     2026     359
     Sum       10861    4353   1363               384583    97215   17183
 


     bravais-lattice index     =            0
     lattice parameter (alat)  =      12.6717  a.u.
     unit-cell volume          =     547.9313 (a.u.)^3
     number of atoms/cell      =            4
     number of atomic types    =            3
     number of electrons       =        33.00
     number of Kohn-Sham states=           21
     kinetic-energy cutoff     =     120.0000  Ry
     charge density cutoff     =    1200.0000  Ry
     scf convergence threshold =      1.0E-10
     mixing beta               =       0.7000
     number of iterations used =            8  plain     mixing
     Exchange-correlation= SLA  PW   PBX  PBC
                           (   1   4   3   4   0   0   0)

     celldm(1)=  12.671676  celldm(2)=   0.000000  celldm(3)=   0.000000
     celldm(4)=   0.000000  celldm(5)=   0.000000  celldm(6)=   0.000000

     crystal axes: (cart. coord. in units of alat)
               a(1) = (  -0.250426   0.291161   0.923316 )  
               a(2) = (   0.250426  -0.291161   0.923316 )  
               a(3) = (   0.250426   0.291161  -0.923316 )  

     reciprocal axes: (cart. coord. in units 2 pi/alat)
               b(1) = (  0.000000  1.717261  0.541527 )  
               b(2) = (  1.996594  0.000000  0.541527 )  
               b(3) = (  1.996594  1.717261  0.000000 )  


     PseudoPot. # 1 for O  read from file:
     /zfs_data/gutierre/Scratch/Cl2NbO/smearing/16x16x16/0.010/pseudo/O.pbe-nl-kjpaw_psl.1.0.0.UPF
     MD5 check sum: df3ddea38124b4e5de5e1084591730e4
     Pseudo is Projector augmented-wave + core cor, Zval =  6.0
     Generated using 'atomic' code by A. Dal Corso  v.6.7MaX
     Shape of augmentation charge: PSQ
     Using radial grid of 1095 points,  4 beta functions with: 
                l(1) =   0
                l(2) =   0
                l(3) =   1
                l(4) =   1
     Q(r) pseudized with 0 coefficients 


     PseudoPot. # 2 for Cl read from file:
     /zfs_data/gutierre/Scratch/Cl2NbO/smearing/16x16x16/0.010/pseudo/Cl.pbe-nl-kjpaw_psl.1.0.0.UPF
     MD5 check sum: 8cf6bde52c08f6236e0f72a8870677af
     Pseudo is Projector augmented-wave + core cor, Zval =  7.0
     Generated using 'atomic' code by A. Dal Corso  v.6.7MaX
     Shape of augmentation charge: PSQ
     Using radial grid of 1157 points,  4 beta functions with: 
                l(1) =   0
                l(2) =   0
                l(3) =   1
                l(4) =   1
     Q(r) pseudized with 0 coefficients 


     PseudoPot. # 3 for Nb read from file:
     /zfs_data/gutierre/Scratch/Cl2NbO/smearing/16x16x16/0.010/pseudo/Nb.pbe-spn-kjpaw_psl.1.0.0.UPF
     MD5 check sum: 1ec1a3aa7bf3cbf7f7e0d720422bce7a
     Pseudo is Projector augmented-wave + core cor, Zval = 13.0
     Generated using 'atomic' code by A. Dal Corso  v.6.7MaX
     Shape of augmentation charge: PSQ
     Using radial grid of 1227 points,  6 beta functions with: 
                l(1) =   0
                l(2) =   0
                l(3) =   1
                l(4) =   1
                l(5) =   2
                l(6) =   2
     Q(r) pseudized with 0 coefficients 


     atomic species   valence    mass     pseudopotential
        O              6.00    15.99940     O ( 1.00)
        Cl             7.00    35.45150     Cl( 1.00)
        Nb            13.00    92.90637     Nb( 1.00)

      8 Sym. Ops., with inversion, found


                                    s                        frac. trans.

      isym =  1     identity                                     

 cryst.   s( 1) = (     1          0          0      )
                  (     0          1          0      )
                  (     0          0          1      )

 cart.    s( 1) = (  1.0000000  0.0000000  0.0000000 )
                  (  0.0000000  1.0000000  0.0000000 )
                  (  0.0000000  0.0000000  1.0000000 )


      isym =  2     180 deg rotation - cart. axis [0,0,1]        

 cryst.   s( 2) = (     0          1          0      )
                  (     1          0          0      )
                  (    -1         -1         -1      )

 cart.    s( 2) = ( -1.0000000  0.0000000  0.0000000 )
                  (  0.0000000 -1.0000000  0.0000000 )
                  (  0.0000000  0.0000000  1.0000000 )


      isym =  3     180 deg rotation - cart. axis [0,1,0]        

 cryst.   s( 3) = (     0          0          1      )
                  (    -1         -1         -1      )
                  (     1          0          0      )

 cart.    s( 3) = ( -1.0000000  0.0000000  0.0000000 )
                  (  0.0000000  1.0000000  0.0000000 )
                  (  0.0000000  0.0000000 -1.0000000 )


      isym =  4     180 deg rotation - cart. axis [1,0,0]        

 cryst.   s( 4) = (    -1         -1         -1      )
                  (     0          0          1      )
                  (     0          1          0      )

 cart.    s( 4) = (  1.0000000  0.0000000  0.0000000 )
                  (  0.0000000 -1.0000000  0.0000000 )
                  (  0.0000000  0.0000000 -1.0000000 )


      isym =  5     inversion                                    

 cryst.   s( 5) = (    -1          0          0      )
                  (     0         -1          0      )
                  (     0          0         -1      )

 cart.    s( 5) = ( -1.0000000  0.0000000  0.0000000 )
                  (  0.0000000 -1.0000000  0.0000000 )
                  (  0.0000000  0.0000000 -1.0000000 )


      isym =  6     inv. 180 deg rotation - cart. axis [0,0,1]   

 cryst.   s( 6) = (     0         -1          0      )
                  (    -1          0          0      )
                  (     1          1          1      )

 cart.    s( 6) = (  1.0000000  0.0000000  0.0000000 )
                  (  0.0000000  1.0000000  0.0000000 )
                  (  0.0000000  0.0000000 -1.0000000 )


      isym =  7     inv. 180 deg rotation - cart. axis [0,1,0]   

 cryst.   s( 7) = (     0          0         -1      )
                  (     1          1          1      )
                  (    -1          0          0      )

 cart.    s( 7) = (  1.0000000  0.0000000  0.0000000 )
                  (  0.0000000 -1.0000000  0.0000000 )
                  (  0.0000000  0.0000000  1.0000000 )


      isym =  8     inv. 180 deg rotation - cart. axis [1,0,0]   

 cryst.   s( 8) = (     1          1          1      )
                  (     0          0         -1      )
                  (     0         -1          0      )

 cart.    s( 8) = ( -1.0000000  0.0000000  0.0000000 )
                  (  0.0000000  1.0000000  0.0000000 )
                  (  0.0000000  0.0000000  1.0000000 )


   Cartesian axes

     site n.     atom                  positions (alat units)
         1           O   tau(   1) = (   0.0000000   0.2911613   0.0000000  )
         2           Cl  tau(   2) = (  -0.0000000   0.2911613   0.6365338  )
         3           Cl  tau(   3) = (   0.2504264  -0.0000000   0.2867819  )
         4           Nb  tau(   4) = (   0.0000000   0.0000000   0.0000000  )

   Crystallographic axes

     site n.     atom                  positions (cryst. coord.)
         1           O   tau(   1) = (  0.5000000  0.0000000  0.5000000  )
         2           Cl  tau(   2) = (  0.8447000  0.3447000  0.5000000  )
         3           Cl  tau(   3) = (  0.1553000  0.6553000  0.5000000  )
         4           Nb  tau(   4) = (  0.0000000  0.0000000  0.0000000  )

     number of k points=   621  Methfessel-Paxton smearing, width (Ry)=  0.0100
                       cart. coord. in units 2pi/alat
        k(    1) = (   0.0000000   0.0000000   0.0000000), wk =   0.0004883
        k(    2) = (   0.1247871   0.1073288   0.0000000), wk =   0.0019531
        k(    3) = (   0.2495743   0.2146577   0.0000000), wk =   0.0019531
        k(    4) = (   0.3743614   0.3219865   0.0000000), wk =   0.0019531
        k(    5) = (   0.4991486   0.4293153   0.0000000), wk =   0.0019531
        k(    6) = (   0.6239357   0.5366442   0.0000000), wk =   0.0019531
        k(    7) = (   0.7487229   0.6439730   0.0000000), wk =   0.0019531
        k(    8) = (   0.8735100   0.7513018   0.0000000), wk =   0.0019531
        k(    9) = (  -0.9982971  -0.8586307   0.0000000), wk =   0.0009766
        k(   10) = (   0.1247871   0.0000000   0.0338454), wk =   0.0019531
        k(   11) = (   0.2495743   0.1073288   0.0338454), wk =   0.0039062
        k(   12) = (   0.3743614   0.2146577   0.0338454), wk =   0.0039062
        k(   13) = (   0.4991486   0.3219865   0.0338454), wk =   0.0039062
        k(   14) = (   0.6239357   0.4293153   0.0338454), wk =   0.0039062
        k(   15) = (   0.7487229   0.5366442   0.0338454), wk =   0.0039062
        k(   16) = (   0.8735100   0.6439730   0.0338454), wk =   0.0039062
        k(   17) = (   0.9982971   0.7513018   0.0338454), wk =   0.0039062
        k(   18) = (  -0.8735100  -0.8586307   0.0338454), wk =   0.0039062
        k(   19) = (  -0.7487229  -0.7513018   0.0338454), wk =   0.0039062
        k(   20) = (  -0.6239357  -0.6439730   0.0338454), wk =   0.0039062
        k(   21) = (  -0.4991486  -0.5366442   0.0338454), wk =   0.0039062
        k(   22) = (  -0.3743614  -0.4293153   0.0338454), wk =   0.0039062
        k(   23) = (  -0.2495743  -0.3219865   0.0338454), wk =   0.0039062
        k(   24) = (  -0.1247871  -0.2146577   0.0338454), wk =   0.0039062
        k(   25) = (   0.0000000  -0.1073288   0.0338454), wk =   0.0019531
        k(   26) = (   0.2495743   0.0000000   0.0676908), wk =   0.0019531
        k(   27) = (   0.3743614   0.1073288   0.0676908), wk =   0.0039062
        k(   28) = (   0.4991486   0.2146577   0.0676908), wk =   0.0039062
        k(   29) = (   0.6239357   0.3219865   0.0676908), wk =   0.0039062
        k(   30) = (   0.7487229   0.4293153   0.0676908), wk =   0.0039062
        k(   31) = (   0.8735100   0.5366442   0.0676908), wk =   0.0039062
        k(   32) = (   0.9982971   0.6439730   0.0676908), wk =   0.0039062
        k(   33) = (   1.1230843   0.7513018   0.0676908), wk =   0.0039062
        k(   34) = (  -0.7487229  -0.8586307   0.0676908), wk =   0.0039062
        k(   35) = (  -0.6239357  -0.7513018   0.0676908), wk =   0.0039062
        k(   36) = (  -0.4991486  -0.6439730   0.0676908), wk =   0.0039062
        k(   37) = (  -0.3743614  -0.5366442   0.0676908), wk =   0.0039062
        k(   38) = (  -0.2495743  -0.4293153   0.0676908), wk =   0.0039062
        k(   39) = (  -0.1247871  -0.3219865   0.0676908), wk =   0.0039062
        k(   40) = (   0.0000000  -0.2146577   0.0676908), wk =   0.0019531
        k(   41) = (   0.1247871  -0.1073288   0.0676908), wk =   0.0039062
        k(   42) = (   0.3743614   0.0000000   0.1015362), wk =   0.0019531
        k(   43) = (   0.4991486   0.1073288   0.1015362), wk =   0.0039062
        k(   44) = (   0.6239357   0.2146577   0.1015362), wk =   0.0039062
        k(   45) = (   0.7487229   0.3219865   0.1015362), wk =   0.0039062
        k(   46) = (   0.8735100   0.4293153   0.1015362), wk =   0.0039062
        k(   47) = (   0.9982971   0.5366442   0.1015362), wk =   0.0039062
        k(   48) = (   1.1230843   0.6439730   0.1015362), wk =   0.0039062
        k(   49) = (   1.2478714   0.7513018   0.1015362), wk =   0.0039062
        k(   50) = (  -0.6239357  -0.8586307   0.1015362), wk =   0.0039062
        k(   51) = (  -0.4991486  -0.7513018   0.1015362), wk =   0.0039062
        k(   52) = (  -0.3743614  -0.6439730   0.1015362), wk =   0.0039062
        k(   53) = (  -0.2495743  -0.5366442   0.1015362), wk =   0.0039062
        k(   54) = (  -0.1247871  -0.4293153   0.1015362), wk =   0.0039062
        k(   55) = (   0.0000000  -0.3219865   0.1015362), wk =   0.0019531
        k(   56) = (   0.1247871  -0.2146577   0.1015362), wk =   0.0039062
        k(   57) = (   0.2495743  -0.1073288   0.1015362), wk =   0.0039062
        k(   58) = (   0.4991486   0.0000000   0.1353817), wk =   0.0019531
        k(   59) = (   0.6239357   0.1073288   0.1353817), wk =   0.0039062
        k(   60) = (   0.7487229   0.2146577   0.1353817), wk =   0.0039062
        k(   61) = (   0.8735100   0.3219865   0.1353817), wk =   0.0039062
        k(   62) = (   0.9982971   0.4293153   0.1353817), wk =   0.0039062
        k(   63) = (   1.1230843   0.5366442   0.1353817), wk =   0.0039062
        k(   64) = (   1.2478714   0.6439730   0.1353817), wk =   0.0039062
        k(   65) = (   1.3726586   0.7513018   0.1353817), wk =   0.0039062
        k(   66) = (  -0.4991486  -0.8586307   0.1353817), wk =   0.0039062
        k(   67) = (  -0.3743614  -0.7513018   0.1353817), wk =   0.0039062
        k(   68) = (  -0.2495743  -0.6439730   0.1353817), wk =   0.0039062
        k(   69) = (  -0.1247871  -0.5366442   0.1353817), wk =   0.0039062
        k(   70) = (   0.0000000  -0.4293153   0.1353817), wk =   0.0019531
        k(   71) = (   0.1247871  -0.3219865   0.1353817), wk =   0.0039062
        k(   72) = (   0.2495743  -0.2146577   0.1353817), wk =   0.0039062
        k(   73) = (   0.3743614  -0.1073288   0.1353817), wk =   0.0039062
        k(   74) = (   0.6239357   0.0000000   0.1692271), wk =   0.0019531
        k(   75) = (   0.7487229   0.1073288   0.1692271), wk =   0.0039062
        k(   76) = (   0.8735100   0.2146577   0.1692271), wk =   0.0039062
        k(   77) = (   0.9982971   0.3219865   0.1692271), wk =   0.0039062
        k(   78) = (   1.1230843   0.4293153   0.1692271), wk =   0.0039062
        k(   79) = (   1.2478714   0.5366442   0.1692271), wk =   0.0039062
        k(   80) = (   1.3726586   0.6439730   0.1692271), wk =   0.0039062
        k(   81) = (   1.4974457   0.7513018   0.1692271), wk =   0.0039062
        k(   82) = (  -0.3743614  -0.8586307   0.1692271), wk =   0.0039062
        k(   83) = (  -0.2495743  -0.7513018   0.1692271), wk =   0.0039062
        k(   84) = (  -0.1247871  -0.6439730   0.1692271), wk =   0.0039062
        k(   85) = (   0.0000000  -0.5366442   0.1692271), wk =   0.0019531
        k(   86) = (   0.1247871  -0.4293153   0.1692271), wk =   0.0039062
        k(   87) = (   0.2495743  -0.3219865   0.1692271), wk =   0.0039062
        k(   88) = (   0.3743614  -0.2146577   0.1692271), wk =   0.0039062
        k(   89) = (   0.4991486  -0.1073288   0.1692271), wk =   0.0039062
        k(   90) = (   0.7487229   0.0000000   0.2030725), wk =   0.0019531
        k(   91) = (   0.8735100   0.1073288   0.2030725), wk =   0.0039062
        k(   92) = (   0.9982971   0.2146577   0.2030725), wk =   0.0039062
        k(   93) = (   1.1230843   0.3219865   0.2030725), wk =   0.0039062
        k(   94) = (   1.2478714   0.4293153   0.2030725), wk =   0.0039062
        k(   95) = (   1.3726586   0.5366442   0.2030725), wk =   0.0039062
        k(   96) = (   1.4974457   0.6439730   0.2030725), wk =   0.0039062
        k(   97) = (   1.6222329   0.7513018   0.2030725), wk =   0.0039062
        k(   98) = (  -0.2495743  -0.8586307   0.2030725), wk =   0.0039062
        k(   99) = (  -0.1247871  -0.7513018   0.2030725), wk =   0.0039062
        k(  100) = (   0.0000000  -0.6439730   0.2030725), wk =   0.0019531
        k(  101) = (   0.1247871  -0.5366442   0.2030725), wk =   0.0039062
        k(  102) = (   0.2495743  -0.4293153   0.2030725), wk =   0.0039062
        k(  103) = (   0.3743614  -0.3219865   0.2030725), wk =   0.0039062
        k(  104) = (   0.4991486  -0.2146577   0.2030725), wk =   0.0039062
        k(  105) = (   0.6239357  -0.1073288   0.2030725), wk =   0.0039062
        k(  106) = (   0.8735100   0.0000000   0.2369179), wk =   0.0019531
        k(  107) = (   0.9982971   0.1073288   0.2369179), wk =   0.0039062
        k(  108) = (   1.1230843   0.2146577   0.2369179), wk =   0.0039062
        k(  109) = (   1.2478714   0.3219865   0.2369179), wk =   0.0039062
        k(  110) = (   1.3726586   0.4293153   0.2369179), wk =   0.0039062
        k(  111) = (   1.4974457   0.5366442   0.2369179), wk =   0.0039062
        k(  112) = (   1.6222329   0.6439730   0.2369179), wk =   0.0039062
        k(  113) = (   1.7470200   0.7513018   0.2369179), wk =   0.0039062
        k(  114) = (  -0.1247871  -0.8586307   0.2369179), wk =   0.0039062
        k(  115) = (   0.0000000  -0.7513018   0.2369179), wk =   0.0019531
        k(  116) = (   0.1247871  -0.6439730   0.2369179), wk =   0.0039062
        k(  117) = (   0.2495743  -0.5366442   0.2369179), wk =   0.0039062
        k(  118) = (   0.3743614  -0.4293153   0.2369179), wk =   0.0039062
        k(  119) = (   0.4991486  -0.3219865   0.2369179), wk =   0.0039062
        k(  120) = (   0.6239357  -0.2146577   0.2369179), wk =   0.0039062
        k(  121) = (   0.7487229  -0.1073288   0.2369179), wk =   0.0039062
        k(  122) = (  -0.9982971   0.0000000  -0.2707633), wk =   0.0009766
        k(  123) = (  -0.8735100   0.1073288  -0.2707633), wk =   0.0039062
        k(  124) = (  -0.7487229   0.2146577  -0.2707633), wk =   0.0039062
        k(  125) = (  -0.6239357   0.3219865  -0.2707633), wk =   0.0039062
        k(  126) = (  -0.4991486   0.4293153  -0.2707633), wk =   0.0039062
        k(  127) = (  -0.3743614   0.5366442  -0.2707633), wk =   0.0039062
        k(  128) = (  -0.2495743   0.6439730  -0.2707633), wk =   0.0039062
        k(  129) = (  -0.1247871   0.7513018  -0.2707633), wk =   0.0039062
        k(  130) = (  -1.9965943  -0.8586307  -0.2707633), wk =   0.0009766
        k(  131) = (   0.2495743   0.2146577   0.0676908), wk =   0.0039062
        k(  132) = (   0.3743614   0.3219865   0.0676908), wk =   0.0039062
        k(  133) = (   0.4991486   0.4293153   0.0676908), wk =   0.0039062
        k(  134) = (   0.6239357   0.5366442   0.0676908), wk =   0.0039062
        k(  135) = (   0.7487229   0.6439730   0.0676908), wk =   0.0039062
        k(  136) = (   0.8735100   0.7513018   0.0676908), wk =   0.0039062
        k(  137) = (   0.9982971   0.8586307   0.0676908), wk =   0.0019531
        k(  138) = (   0.0000000   0.0000000   0.0676908), wk =   0.0009766
        k(  139) = (   0.3743614   0.2146577   0.1015362), wk =   0.0039062
        k(  140) = (   0.4991486   0.3219865   0.1015362), wk =   0.0039062
        k(  141) = (   0.6239357   0.4293153   0.1015362), wk =   0.0039062
        k(  142) = (   0.7487229   0.5366442   0.1015362), wk =   0.0039062
        k(  143) = (   0.8735100   0.6439730   0.1015362), wk =   0.0039062
        k(  144) = (   0.9982971   0.7513018   0.1015362), wk =   0.0039062
        k(  145) = (   1.1230843   0.8586307   0.1015362), wk =   0.0039062
        k(  146) = (  -0.7487229  -0.7513018   0.1015362), wk =   0.0039062
        k(  147) = (  -0.6239357  -0.6439730   0.1015362), wk =   0.0039062
        k(  148) = (  -0.4991486  -0.5366442   0.1015362), wk =   0.0039062
        k(  149) = (  -0.3743614  -0.4293153   0.1015362), wk =   0.0039062
        k(  150) = (  -0.2495743  -0.3219865   0.1015362), wk =   0.0039062
        k(  151) = (   0.0000000  -0.1073288   0.1015362), wk =   0.0019531
        k(  152) = (   0.1247871   0.0000000   0.1015362), wk =   0.0019531
        k(  153) = (   0.4991486   0.2146577   0.1353817), wk =   0.0039062
        k(  154) = (   0.6239357   0.3219865   0.1353817), wk =   0.0039062
        k(  155) = (   0.7487229   0.4293153   0.1353817), wk =   0.0039062
        k(  156) = (   0.8735100   0.5366442   0.1353817), wk =   0.0039062
        k(  157) = (   0.9982971   0.6439730   0.1353817), wk =   0.0039062
        k(  158) = (   1.1230843   0.7513018   0.1353817), wk =   0.0039062
        k(  159) = (   1.2478714   0.8586307   0.1353817), wk =   0.0039062
        k(  160) = (  -0.6239357  -0.7513018   0.1353817), wk =   0.0039062
        k(  161) = (  -0.4991486  -0.6439730   0.1353817), wk =   0.0039062
        k(  162) = (  -0.3743614  -0.5366442   0.1353817), wk =   0.0039062
        k(  163) = (  -0.2495743  -0.4293153   0.1353817), wk =   0.0039062
        k(  164) = (   0.0000000  -0.2146577   0.1353817), wk =   0.0019531
        k(  165) = (   0.1247871  -0.1073288   0.1353817), wk =   0.0039062
        k(  166) = (   0.2495743   0.0000000   0.1353817), wk =   0.0019531
        k(  167) = (   0.6239357   0.2146577   0.1692271), wk =   0.0039062
        k(  168) = (   0.7487229   0.3219865   0.1692271), wk =   0.0039062
        k(  169) = (   0.8735100   0.4293153   0.1692271), wk =   0.0039062
        k(  170) = (   0.9982971   0.5366442   0.1692271), wk =   0.0039062
        k(  171) = (   1.1230843   0.6439730   0.1692271), wk =   0.0039062
        k(  172) = (   1.2478714   0.7513018   0.1692271), wk =   0.0039062
        k(  173) = (   1.3726586   0.8586307   0.1692271), wk =   0.0039062
        k(  174) = (  -0.4991486  -0.7513018   0.1692271), wk =   0.0039062
        k(  175) = (  -0.3743614  -0.6439730   0.1692271), wk =   0.0039062
        k(  176) = (  -0.2495743  -0.5366442   0.1692271), wk =   0.0039062
        k(  177) = (   0.0000000  -0.3219865   0.1692271), wk =   0.0019531
        k(  178) = (   0.1247871  -0.2146577   0.1692271), wk =   0.0039062
        k(  179) = (   0.2495743  -0.1073288   0.1692271), wk =   0.0039062
        k(  180) = (   0.3743614   0.0000000   0.1692271), wk =   0.0019531
        k(  181) = (   0.7487229   0.2146577   0.2030725), wk =   0.0039062
        k(  182) = (   0.8735100   0.3219865   0.2030725), wk =   0.0039062
        k(  183) = (   0.9982971   0.4293153   0.2030725), wk =   0.0039062
        k(  184) = (   1.1230843   0.5366442   0.2030725), wk =   0.0039062
        k(  185) = (   1.2478714   0.6439730   0.2030725), wk =   0.0039062
        k(  186) = (   1.3726586   0.7513018   0.2030725), wk =   0.0039062
        k(  187) = (   1.4974457   0.8586307   0.2030725), wk =   0.0039062
        k(  188) = (  -0.3743614  -0.7513018   0.2030725), wk =   0.0039062
        k(  189) = (  -0.2495743  -0.6439730   0.2030725), wk =   0.0039062
        k(  190) = (   0.0000000  -0.4293153   0.2030725), wk =   0.0019531
        k(  191) = (   0.1247871  -0.3219865   0.2030725), wk =   0.0039062
        k(  192) = (   0.2495743  -0.2146577   0.2030725), wk =   0.0039062
        k(  193) = (   0.3743614  -0.1073288   0.2030725), wk =   0.0039062
        k(  194) = (   0.4991486   0.0000000   0.2030725), wk =   0.0019531
        k(  195) = (   0.8735100   0.2146577   0.2369179), wk =   0.0039062
        k(  196) = (   0.9982971   0.3219865   0.2369179), wk =   0.0039062
        k(  197) = (   1.1230843   0.4293153   0.2369179), wk =   0.0039062
        k(  198) = (   1.2478714   0.5366442   0.2369179), wk =   0.0039062
        k(  199) = (   1.3726586   0.6439730   0.2369179), wk =   0.0039062
        k(  200) = (   1.4974457   0.7513018   0.2369179), wk =   0.0039062
        k(  201) = (   1.6222329   0.8586307   0.2369179), wk =   0.0039062
        k(  202) = (  -0.2495743  -0.7513018   0.2369179), wk =   0.0039062
        k(  203) = (   0.0000000  -0.5366442   0.2369179), wk =   0.0019531
        k(  204) = (   0.1247871  -0.4293153   0.2369179), wk =   0.0039062
        k(  205) = (   0.2495743  -0.3219865   0.2369179), wk =   0.0039062
        k(  206) = (   0.3743614  -0.2146577   0.2369179), wk =   0.0039062
        k(  207) = (   0.4991486  -0.1073288   0.2369179), wk =   0.0039062
        k(  208) = (   0.6239357   0.0000000   0.2369179), wk =   0.0019531
        k(  209) = (   0.9982971   0.2146577   0.2707633), wk =   0.0019531
        k(  210) = (   1.1230843   0.3219865   0.2707633), wk =   0.0039062
        k(  211) = (   1.2478714   0.4293153   0.2707633), wk =   0.0039062
        k(  212) = (   1.3726586   0.5366442   0.2707633), wk =   0.0039062
        k(  213) = (   1.4974457   0.6439730   0.2707633), wk =   0.0039062
        k(  214) = (   1.6222329   0.7513018   0.2707633), wk =   0.0039062
        k(  215) = (   1.7470200   0.8586307   0.2707633), wk =   0.0019531
        k(  216) = (   0.0000000  -0.6439730   0.2707633), wk =   0.0019531
        k(  217) = (   0.1247871  -0.5366442   0.2707633), wk =   0.0039062
        k(  218) = (   0.2495743  -0.4293153   0.2707633), wk =   0.0039062
        k(  219) = (   0.3743614  -0.3219865   0.2707633), wk =   0.0039062
        k(  220) = (   0.4991486  -0.2146577   0.2707633), wk =   0.0039062
        k(  221) = (   0.6239357  -0.1073288   0.2707633), wk =   0.0039062
        k(  222) = (   0.7487229   0.0000000   0.2707633), wk =   0.0019531
        k(  223) = (  -0.7487229   0.3219865  -0.2369179), wk =   0.0039062
        k(  224) = (  -0.6239357   0.4293153  -0.2369179), wk =   0.0039062
        k(  225) = (  -0.4991486   0.5366442  -0.2369179), wk =   0.0039062
        k(  226) = (  -0.3743614   0.6439730  -0.2369179), wk =   0.0039062
        k(  227) = (  -1.9965943  -0.7513018  -0.2369179), wk =   0.0019531
        k(  228) = (  -1.8718071  -0.6439730  -0.2369179), wk =   0.0039062
        k(  229) = (  -1.7470200  -0.5366442  -0.2369179), wk =   0.0039062
        k(  230) = (  -1.6222329  -0.4293153  -0.2369179), wk =   0.0039062
        k(  231) = (  -1.4974457  -0.3219865  -0.2369179), wk =   0.0039062
        k(  232) = (  -1.3726586  -0.2146577  -0.2369179), wk =   0.0039062
        k(  233) = (  -1.2478714  -0.1073288  -0.2369179), wk =   0.0039062
        k(  234) = (  -1.1230843   0.0000000  -0.2369179), wk =   0.0019531
        k(  235) = (  -0.6239357   0.3219865  -0.2030725), wk =   0.0039062
        k(  236) = (  -0.4991486   0.4293153  -0.2030725), wk =   0.0039062
        k(  237) = (  -0.3743614   0.5366442  -0.2030725), wk =   0.0039062
        k(  238) = (   0.0000000   0.8586307  -0.2030725), wk =   0.0019531
        k(  239) = (  -1.8718071  -0.7513018  -0.2030725), wk =   0.0039062
        k(  240) = (  -1.7470200  -0.6439730  -0.2030725), wk =   0.0039062
        k(  241) = (  -1.6222329  -0.5366442  -0.2030725), wk =   0.0039062
        k(  242) = (  -1.4974457  -0.4293153  -0.2030725), wk =   0.0039062
        k(  243) = (  -1.3726586  -0.3219865  -0.2030725), wk =   0.0039062
        k(  244) = (  -1.2478714  -0.2146577  -0.2030725), wk =   0.0039062
        k(  245) = (  -1.1230843  -0.1073288  -0.2030725), wk =   0.0039062
        k(  246) = (  -0.9982971   0.0000000  -0.2030725), wk =   0.0019531
        k(  247) = (  -0.4991486   0.3219865  -0.1692271), wk =   0.0039062
        k(  248) = (  -0.3743614   0.4293153  -0.1692271), wk =   0.0039062
        k(  249) = (   0.0000000   0.7513018  -0.1692271), wk =   0.0019531
        k(  250) = (   0.1247871   0.8586307  -0.1692271), wk =   0.0039062
        k(  251) = (  -1.7470200  -0.7513018  -0.1692271), wk =   0.0039062
        k(  252) = (  -1.6222329  -0.6439730  -0.1692271), wk =   0.0039062
        k(  253) = (  -1.4974457  -0.5366442  -0.1692271), wk =   0.0039062
        k(  254) = (  -1.3726586  -0.4293153  -0.1692271), wk =   0.0039062
        k(  255) = (  -1.2478714  -0.3219865  -0.1692271), wk =   0.0039062
        k(  256) = (  -1.1230843  -0.2146577  -0.1692271), wk =   0.0039062
        k(  257) = (  -0.9982971  -0.1073288  -0.1692271), wk =   0.0039062
        k(  258) = (  -0.8735100   0.0000000  -0.1692271), wk =   0.0019531
        k(  259) = (  -0.3743614   0.3219865  -0.1353817), wk =   0.0039062
        k(  260) = (   0.0000000   0.6439730  -0.1353817), wk =   0.0019531
        k(  261) = (   0.1247871   0.7513018  -0.1353817), wk =   0.0039062
        k(  262) = (   0.2495743   0.8586307  -0.1353817), wk =   0.0039062
        k(  263) = (  -1.6222329  -0.7513018  -0.1353817), wk =   0.0039062
        k(  264) = (  -1.4974457  -0.6439730  -0.1353817), wk =   0.0039062
        k(  265) = (  -1.3726586  -0.5366442  -0.1353817), wk =   0.0039062
        k(  266) = (  -1.2478714  -0.4293153  -0.1353817), wk =   0.0039062
        k(  267) = (  -1.1230843  -0.3219865  -0.1353817), wk =   0.0039062
        k(  268) = (  -0.9982971  -0.2146577  -0.1353817), wk =   0.0039062
        k(  269) = (  -0.8735100  -0.1073288  -0.1353817), wk =   0.0039062
        k(  270) = (  -0.7487229   0.0000000  -0.1353817), wk =   0.0019531
        k(  271) = (   0.0000000   0.5366442  -0.1015362), wk =   0.0019531
        k(  272) = (   0.1247871   0.6439730  -0.1015362), wk =   0.0039062
        k(  273) = (   0.2495743   0.7513018  -0.1015362), wk =   0.0039062
        k(  274) = (   0.3743614   0.8586307  -0.1015362), wk =   0.0039062
        k(  275) = (  -1.4974457  -0.7513018  -0.1015362), wk =   0.0039062
        k(  276) = (  -1.3726586  -0.6439730  -0.1015362), wk =   0.0039062
        k(  277) = (  -1.2478714  -0.5366442  -0.1015362), wk =   0.0039062
        k(  278) = (  -1.1230843  -0.4293153  -0.1015362), wk =   0.0039062
        k(  279) = (  -0.9982971  -0.3219865  -0.1015362), wk =   0.0039062
        k(  280) = (  -0.8735100  -0.2146577  -0.1015362), wk =   0.0039062
        k(  281) = (  -0.7487229  -0.1073288  -0.1015362), wk =   0.0039062
        k(  282) = (  -0.6239357   0.0000000  -0.1015362), wk =   0.0019531
        k(  283) = (   0.0000000   0.4293153  -0.0676908), wk =   0.0019531
        k(  284) = (   0.1247871   0.5366442  -0.0676908), wk =   0.0039062
        k(  285) = (   0.2495743   0.6439730  -0.0676908), wk =   0.0039062
        k(  286) = (   0.3743614   0.7513018  -0.0676908), wk =   0.0039062
        k(  287) = (   0.4991486   0.8586307  -0.0676908), wk =   0.0039062
        k(  288) = (  -1.3726586  -0.7513018  -0.0676908), wk =   0.0039062
        k(  289) = (  -1.2478714  -0.6439730  -0.0676908), wk =   0.0039062
        k(  290) = (  -1.1230843  -0.5366442  -0.0676908), wk =   0.0039062
        k(  291) = (  -0.9982971  -0.4293153  -0.0676908), wk =   0.0039062
        k(  292) = (  -0.8735100  -0.3219865  -0.0676908), wk =   0.0039062
        k(  293) = (  -0.7487229  -0.2146577  -0.0676908), wk =   0.0039062
        k(  294) = (  -0.6239357  -0.1073288  -0.0676908), wk =   0.0039062
        k(  295) = (  -0.4991486   0.0000000  -0.0676908), wk =   0.0019531
        k(  296) = (   0.0000000   0.3219865  -0.0338454), wk =   0.0019531
        k(  297) = (   0.1247871   0.4293153  -0.0338454), wk =   0.0039062
        k(  298) = (   0.2495743   0.5366442  -0.0338454), wk =   0.0039062
        k(  299) = (   0.3743614   0.6439730  -0.0338454), wk =   0.0039062
        k(  300) = (   0.4991486   0.7513018  -0.0338454), wk =   0.0039062
        k(  301) = (   0.6239357   0.8586307  -0.0338454), wk =   0.0039062
        k(  302) = (  -1.2478714  -0.7513018  -0.0338454), wk =   0.0039062
        k(  303) = (  -1.1230843  -0.6439730  -0.0338454), wk =   0.0039062
        k(  304) = (  -0.9982971  -0.5366442  -0.0338454), wk =   0.0039062
        k(  305) = (  -0.8735100  -0.4293153  -0.0338454), wk =   0.0039062
        k(  306) = (  -0.7487229  -0.3219865  -0.0338454), wk =   0.0039062
        k(  307) = (  -0.6239357  -0.2146577  -0.0338454), wk =   0.0039062
        k(  308) = (  -0.4991486  -0.1073288  -0.0338454), wk =   0.0039062
        k(  309) = (  -0.3743614   0.0000000  -0.0338454), wk =   0.0019531
        k(  310) = (   0.0000000   0.2146577   0.0000000), wk =   0.0009766
        k(  311) = (   0.1247871   0.3219865   0.0000000), wk =   0.0019531
        k(  312) = (   0.2495743   0.4293153   0.0000000), wk =   0.0019531
        k(  313) = (   0.3743614   0.5366442   0.0000000), wk =   0.0019531
        k(  314) = (   0.4991486   0.6439730   0.0000000), wk =   0.0019531
        k(  315) = (   0.6239357   0.7513018   0.0000000), wk =   0.0019531
        k(  316) = (   0.7487229   0.8586307   0.0000000), wk =   0.0019531
        k(  317) = (  -1.1230843  -0.7513018   0.0000000), wk =   0.0019531
        k(  318) = (  -0.9982971  -0.6439730   0.0000000), wk =   0.0019531
        k(  319) = (  -0.8735100  -0.5366442   0.0000000), wk =   0.0019531
        k(  320) = (  -0.7487229  -0.4293153   0.0000000), wk =   0.0019531
        k(  321) = (  -0.6239357  -0.3219865   0.0000000), wk =   0.0019531
        k(  322) = (  -0.4991486  -0.2146577   0.0000000), wk =   0.0019531
        k(  323) = (  -0.3743614  -0.1073288   0.0000000), wk =   0.0019531
        k(  324) = (  -0.2495743   0.0000000   0.0000000), wk =   0.0009766
        k(  325) = (   0.4991486   0.4293153   0.1353817), wk =   0.0039062
        k(  326) = (   0.6239357   0.5366442   0.1353817), wk =   0.0039062
        k(  327) = (   0.7487229   0.6439730   0.1353817), wk =   0.0039062
        k(  328) = (   0.8735100   0.7513018   0.1353817), wk =   0.0039062
        k(  329) = (   0.9982971   0.8586307   0.1353817), wk =   0.0019531
        k(  330) = (   0.0000000   0.0000000   0.1353817), wk =   0.0009766
        k(  331) = (   0.6239357   0.4293153   0.1692271), wk =   0.0039062
        k(  332) = (   0.7487229   0.5366442   0.1692271), wk =   0.0039062
        k(  333) = (   0.8735100   0.6439730   0.1692271), wk =   0.0039062
        k(  334) = (   0.9982971   0.7513018   0.1692271), wk =   0.0039062
        k(  335) = (   1.1230843   0.8586307   0.1692271), wk =   0.0039062
        k(  336) = (   1.2478714   0.9659595   0.1692271), wk =   0.0039062
        k(  337) = (  -0.6239357  -0.6439730   0.1692271), wk =   0.0039062
        k(  338) = (  -0.4991486  -0.5366442   0.1692271), wk =   0.0039062
        k(  339) = (   0.0000000  -0.1073288   0.1692271), wk =   0.0019531
        k(  340) = (   0.1247871   0.0000000   0.1692271), wk =   0.0019531
        k(  341) = (   0.7487229   0.4293153   0.2030725), wk =   0.0039062
        k(  342) = (   0.8735100   0.5366442   0.2030725), wk =   0.0039062
        k(  343) = (   0.9982971   0.6439730   0.2030725), wk =   0.0039062
        k(  344) = (   1.1230843   0.7513018   0.2030725), wk =   0.0039062
        k(  345) = (   1.2478714   0.8586307   0.2030725), wk =   0.0039062
        k(  346) = (   1.3726586   0.9659595   0.2030725), wk =   0.0039062
        k(  347) = (  -0.4991486  -0.6439730   0.2030725), wk =   0.0039062
        k(  348) = (   0.0000000  -0.2146577   0.2030725), wk =   0.0019531
        k(  349) = (   0.1247871  -0.1073288   0.2030725), wk =   0.0039062
        k(  350) = (   0.2495743   0.0000000   0.2030725), wk =   0.0019531
        k(  351) = (   0.8735100   0.4293153   0.2369179), wk =   0.0039062
        k(  352) = (   0.9982971   0.5366442   0.2369179), wk =   0.0039062
        k(  353) = (   1.1230843   0.6439730   0.2369179), wk =   0.0039062
        k(  354) = (   1.2478714   0.7513018   0.2369179), wk =   0.0039062
        k(  355) = (   1.3726586   0.8586307   0.2369179), wk =   0.0039062
        k(  356) = (   1.4974457   0.9659595   0.2369179), wk =   0.0039062
        k(  357) = (   0.0000000  -0.3219865   0.2369179), wk =   0.0019531
        k(  358) = (   0.1247871  -0.2146577   0.2369179), wk =   0.0039062
        k(  359) = (   0.2495743  -0.1073288   0.2369179), wk =   0.0039062
        k(  360) = (   0.3743614   0.0000000   0.2369179), wk =   0.0019531
        k(  361) = (   0.9982971   0.4293153   0.2707633), wk =   0.0019531
        k(  362) = (   1.1230843   0.5366442   0.2707633), wk =   0.0039062
        k(  363) = (   1.2478714   0.6439730   0.2707633), wk =   0.0039062
        k(  364) = (   1.3726586   0.7513018   0.2707633), wk =   0.0039062
        k(  365) = (   1.4974457   0.8586307   0.2707633), wk =   0.0019531
        k(  366) = (   0.0000000  -0.4293153   0.2707633), wk =   0.0019531
        k(  367) = (   0.1247871  -0.3219865   0.2707633), wk =   0.0039062
        k(  368) = (   0.2495743  -0.2146577   0.2707633), wk =   0.0039062
        k(  369) = (   0.3743614  -0.1073288   0.2707633), wk =   0.0039062
        k(  370) = (   0.4991486   0.0000000   0.2707633), wk =   0.0019531
        k(  371) = (   1.2478714   0.5366442   0.3046087), wk =   0.0039062
        k(  372) = (   1.3726586   0.6439730   0.3046087), wk =   0.0039062
        k(  373) = (   0.0000000  -0.5366442   0.3046087), wk =   0.0019531
        k(  374) = (   0.1247871  -0.4293153   0.3046087), wk =   0.0039062
        k(  375) = (   0.2495743  -0.3219865   0.3046087), wk =   0.0039062
        k(  376) = (   0.3743614  -0.2146577   0.3046087), wk =   0.0039062
        k(  377) = (   0.4991486  -0.1073288   0.3046087), wk =   0.0039062
        k(  378) = (   0.6239357   0.0000000   0.3046087), wk =   0.0019531
        k(  379) = (  -0.6239357   0.5366442  -0.2030725), wk =   0.0039062
        k(  380) = (  -1.9965943  -0.6439730  -0.2030725), wk =   0.0019531
        k(  381) = (  -1.8718071  -0.5366442  -0.2030725), wk =   0.0039062
        k(  382) = (  -1.7470200  -0.4293153  -0.2030725), wk =   0.0039062
        k(  383) = (  -1.6222329  -0.3219865  -0.2030725), wk =   0.0039062
        k(  384) = (  -1.4974457  -0.2146577  -0.2030725), wk =   0.0039062
        k(  385) = (  -1.3726586  -0.1073288  -0.2030725), wk =   0.0039062
        k(  386) = (  -1.2478714   0.0000000  -0.2030725), wk =   0.0019531
        k(  387) = (   0.0000000   0.9659595  -0.1692271), wk =   0.0019531
        k(  388) = (  -1.8718071  -0.6439730  -0.1692271), wk =   0.0039062
        k(  389) = (  -1.7470200  -0.5366442  -0.1692271), wk =   0.0039062
        k(  390) = (  -1.6222329  -0.4293153  -0.1692271), wk =   0.0039062
        k(  391) = (  -1.4974457  -0.3219865  -0.1692271), wk =   0.0039062
        k(  392) = (  -1.3726586  -0.2146577  -0.1692271), wk =   0.0039062
        k(  393) = (  -1.2478714  -0.1073288  -0.1692271), wk =   0.0039062
        k(  394) = (  -1.1230843   0.0000000  -0.1692271), wk =   0.0019531
        k(  395) = (   0.0000000   0.8586307  -0.1353817), wk =   0.0019531
        k(  396) = (   0.1247871   0.9659595  -0.1353817), wk =   0.0039062
        k(  397) = (  -1.7470200  -0.6439730  -0.1353817), wk =   0.0039062
        k(  398) = (  -1.6222329  -0.5366442  -0.1353817), wk =   0.0039062
        k(  399) = (  -1.4974457  -0.4293153  -0.1353817), wk =   0.0039062
        k(  400) = (  -1.3726586  -0.3219865  -0.1353817), wk =   0.0039062
        k(  401) = (  -1.2478714  -0.2146577  -0.1353817), wk =   0.0039062
        k(  402) = (  -1.1230843  -0.1073288  -0.1353817), wk =   0.0039062
        k(  403) = (  -0.9982971   0.0000000  -0.1353817), wk =   0.0019531
        k(  404) = (   0.0000000   0.7513018  -0.1015362), wk =   0.0019531
        k(  405) = (   0.1247871   0.8586307  -0.1015362), wk =   0.0039062
        k(  406) = (   0.2495743   0.9659595  -0.1015362), wk =   0.0039062
        k(  407) = (  -1.6222329  -0.6439730  -0.1015362), wk =   0.0039062
        k(  408) = (  -1.4974457  -0.5366442  -0.1015362), wk =   0.0039062
        k(  409) = (  -1.3726586  -0.4293153  -0.1015362), wk =   0.0039062
        k(  410) = (  -1.2478714  -0.3219865  -0.1015362), wk =   0.0039062
        k(  411) = (  -1.1230843  -0.2146577  -0.1015362), wk =   0.0039062
        k(  412) = (  -0.9982971  -0.1073288  -0.1015362), wk =   0.0039062
        k(  413) = (  -0.8735100   0.0000000  -0.1015362), wk =   0.0019531
        k(  414) = (   0.0000000   0.6439730  -0.0676908), wk =   0.0019531
        k(  415) = (   0.1247871   0.7513018  -0.0676908), wk =   0.0039062
        k(  416) = (   0.2495743   0.8586307  -0.0676908), wk =   0.0039062
        k(  417) = (   0.3743614   0.9659595  -0.0676908), wk =   0.0039062
        k(  418) = (  -1.4974457  -0.6439730  -0.0676908), wk =   0.0039062
        k(  419) = (  -1.3726586  -0.5366442  -0.0676908), wk =   0.0039062
        k(  420) = (  -1.2478714  -0.4293153  -0.0676908), wk =   0.0039062
        k(  421) = (  -1.1230843  -0.3219865  -0.0676908), wk =   0.0039062
        k(  422) = (  -0.9982971  -0.2146577  -0.0676908), wk =   0.0039062
        k(  423) = (  -0.8735100  -0.1073288  -0.0676908), wk =   0.0039062
        k(  424) = (  -0.7487229   0.0000000  -0.0676908), wk =   0.0019531
        k(  425) = (   0.0000000   0.5366442  -0.0338454), wk =   0.0019531
        k(  426) = (   0.1247871   0.6439730  -0.0338454), wk =   0.0039062
        k(  427) = (   0.2495743   0.7513018  -0.0338454), wk =   0.0039062
        k(  428) = (   0.3743614   0.8586307  -0.0338454), wk =   0.0039062
        k(  429) = (   0.4991486   0.9659595  -0.0338454), wk =   0.0039062
        k(  430) = (  -1.3726586  -0.6439730  -0.0338454), wk =   0.0039062
        k(  431) = (  -1.2478714  -0.5366442  -0.0338454), wk =   0.0039062
        k(  432) = (  -1.1230843  -0.4293153  -0.0338454), wk =   0.0039062
        k(  433) = (  -0.9982971  -0.3219865  -0.0338454), wk =   0.0039062
        k(  434) = (  -0.8735100  -0.2146577  -0.0338454), wk =   0.0039062
        k(  435) = (  -0.7487229  -0.1073288  -0.0338454), wk =   0.0039062
        k(  436) = (  -0.6239357   0.0000000  -0.0338454), wk =   0.0019531
        k(  437) = (   0.0000000   0.4293153   0.0000000), wk =   0.0009766
        k(  438) = (   0.1247871   0.5366442   0.0000000), wk =   0.0019531
        k(  439) = (   0.2495743   0.6439730   0.0000000), wk =   0.0019531
        k(  440) = (   0.3743614   0.7513018   0.0000000), wk =   0.0019531
        k(  441) = (   0.4991486   0.8586307   0.0000000), wk =   0.0019531
        k(  442) = (   0.6239357   0.9659595   0.0000000), wk =   0.0019531
        k(  443) = (  -1.2478714  -0.6439730   0.0000000), wk =   0.0019531
        k(  444) = (  -1.1230843  -0.5366442   0.0000000), wk =   0.0019531
        k(  445) = (  -0.9982971  -0.4293153   0.0000000), wk =   0.0019531
        k(  446) = (  -0.8735100  -0.3219865   0.0000000), wk =   0.0019531
        k(  447) = (  -0.7487229  -0.2146577   0.0000000), wk =   0.0019531
        k(  448) = (  -0.6239357  -0.1073288   0.0000000), wk =   0.0019531
        k(  449) = (  -0.4991486   0.0000000   0.0000000), wk =   0.0009766
        k(  450) = (   0.7487229   0.6439730   0.2030725), wk =   0.0039062
        k(  451) = (   0.8735100   0.7513018   0.2030725), wk =   0.0039062
        k(  452) = (   0.9982971   0.8586307   0.2030725), wk =   0.0019531
        k(  453) = (   0.0000000   0.0000000   0.2030725), wk =   0.0009766
        k(  454) = (   0.8735100   0.6439730   0.2369179), wk =   0.0039062
        k(  455) = (   0.9982971   0.7513018   0.2369179), wk =   0.0039062
        k(  456) = (   1.1230843   0.8586307   0.2369179), wk =   0.0039062
        k(  457) = (   1.2478714   0.9659595   0.2369179), wk =   0.0039062
        k(  458) = (   0.0000000  -0.1073288   0.2369179), wk =   0.0019531
        k(  459) = (   0.1247871   0.0000000   0.2369179), wk =   0.0019531
        k(  460) = (   0.9982971   0.6439730   0.2707633), wk =   0.0019531
        k(  461) = (   1.1230843   0.7513018   0.2707633), wk =   0.0039062
        k(  462) = (   1.2478714   0.8586307   0.2707633), wk =   0.0019531
        k(  463) = (   0.0000000  -0.2146577   0.2707633), wk =   0.0019531
        k(  464) = (   0.1247871  -0.1073288   0.2707633), wk =   0.0039062
        k(  465) = (   0.2495743   0.0000000   0.2707633), wk =   0.0019531
        k(  466) = (   0.0000000  -0.3219865   0.3046087), wk =   0.0019531
        k(  467) = (   0.1247871  -0.2146577   0.3046087), wk =   0.0039062
        k(  468) = (   0.2495743  -0.1073288   0.3046087), wk =   0.0039062
        k(  469) = (   0.3743614   0.0000000   0.3046087), wk =   0.0019531
        k(  470) = (   0.0000000  -0.4293153   0.3384542), wk =   0.0019531
        k(  471) = (   0.1247871  -0.3219865   0.3384542), wk =   0.0039062
        k(  472) = (   0.2495743  -0.2146577   0.3384542), wk =   0.0039062
        k(  473) = (   0.3743614  -0.1073288   0.3384542), wk =   0.0039062
        k(  474) = (   0.4991486   0.0000000   0.3384542), wk =   0.0019531
        k(  475) = (  -1.9965943  -0.5366442  -0.1692271), wk =   0.0019531
        k(  476) = (  -1.8718071  -0.4293153  -0.1692271), wk =   0.0039062
        k(  477) = (  -1.7470200  -0.3219865  -0.1692271), wk =   0.0039062
        k(  478) = (  -1.6222329  -0.2146577  -0.1692271), wk =   0.0039062
        k(  479) = (  -1.4974457  -0.1073288  -0.1692271), wk =   0.0039062
        k(  480) = (  -1.3726586   0.0000000  -0.1692271), wk =   0.0019531
        k(  481) = (   0.0000000   1.0732883  -0.1353817), wk =   0.0019531
        k(  482) = (  -1.8718071  -0.5366442  -0.1353817), wk =   0.0039062
        k(  483) = (  -1.7470200  -0.4293153  -0.1353817), wk =   0.0039062
        k(  484) = (  -1.6222329  -0.3219865  -0.1353817), wk =   0.0039062
        k(  485) = (  -1.4974457  -0.2146577  -0.1353817), wk =   0.0039062
        k(  486) = (  -1.3726586  -0.1073288  -0.1353817), wk =   0.0039062
        k(  487) = (  -1.2478714   0.0000000  -0.1353817), wk =   0.0019531
        k(  488) = (   0.0000000   0.9659595  -0.1015362), wk =   0.0019531
        k(  489) = (   0.1247871   1.0732883  -0.1015362), wk =   0.0039062
        k(  490) = (  -1.7470200  -0.5366442  -0.1015362), wk =   0.0039062
        k(  491) = (  -1.6222329  -0.4293153  -0.1015362), wk =   0.0039062
        k(  492) = (  -1.4974457  -0.3219865  -0.1015362), wk =   0.0039062
        k(  493) = (  -1.3726586  -0.2146577  -0.1015362), wk =   0.0039062
        k(  494) = (  -1.2478714  -0.1073288  -0.1015362), wk =   0.0039062
        k(  495) = (  -1.1230843   0.0000000  -0.1015362), wk =   0.0019531
        k(  496) = (   0.0000000   0.8586307  -0.0676908), wk =   0.0019531
        k(  497) = (   0.1247871   0.9659595  -0.0676908), wk =   0.0039062
        k(  498) = (   0.2495743   1.0732883  -0.0676908), wk =   0.0039062
        k(  499) = (  -1.6222329  -0.5366442  -0.0676908), wk =   0.0039062
        k(  500) = (  -1.4974457  -0.4293153  -0.0676908), wk =   0.0039062
        k(  501) = (  -1.3726586  -0.3219865  -0.0676908), wk =   0.0039062
        k(  502) = (  -1.2478714  -0.2146577  -0.0676908), wk =   0.0039062
        k(  503) = (  -1.1230843  -0.1073288  -0.0676908), wk =   0.0039062
        k(  504) = (  -0.9982971   0.0000000  -0.0676908), wk =   0.0019531
        k(  505) = (   0.0000000   0.7513018  -0.0338454), wk =   0.0019531
        k(  506) = (   0.1247871   0.8586307  -0.0338454), wk =   0.0039062
        k(  507) = (   0.2495743   0.9659595  -0.0338454), wk =   0.0039062
        k(  508) = (   0.3743614   1.0732883  -0.0338454), wk =   0.0039062
        k(  509) = (  -1.4974457  -0.5366442  -0.0338454), wk =   0.0039062
        k(  510) = (  -1.3726586  -0.4293153  -0.0338454), wk =   0.0039062
        k(  511) = (  -1.2478714  -0.3219865  -0.0338454), wk =   0.0039062
        k(  512) = (  -1.1230843  -0.2146577  -0.0338454), wk =   0.0039062
        k(  513) = (  -0.9982971  -0.1073288  -0.0338454), wk =   0.0039062
        k(  514) = (  -0.8735100   0.0000000  -0.0338454), wk =   0.0019531
        k(  515) = (   0.0000000   0.6439730   0.0000000), wk =   0.0009766
        k(  516) = (   0.1247871   0.7513018   0.0000000), wk =   0.0019531
        k(  517) = (   0.2495743   0.8586307   0.0000000), wk =   0.0019531
        k(  518) = (   0.3743614   0.9659595   0.0000000), wk =   0.0019531
        k(  519) = (   0.4991486   1.0732883   0.0000000), wk =   0.0019531
        k(  520) = (  -1.3726586  -0.5366442   0.0000000), wk =   0.0019531
        k(  521) = (  -1.2478714  -0.4293153   0.0000000), wk =   0.0019531
        k(  522) = (  -1.1230843  -0.3219865   0.0000000), wk =   0.0019531
        k(  523) = (  -0.9982971  -0.2146577   0.0000000), wk =   0.0019531
        k(  524) = (  -0.8735100  -0.1073288   0.0000000), wk =   0.0019531
        k(  525) = (  -0.7487229   0.0000000   0.0000000), wk =   0.0009766
        k(  526) = (   0.9982971   0.8586307   0.2707633), wk =   0.0009766
        k(  527) = (   0.0000000   0.0000000   0.2707633), wk =   0.0009766
        k(  528) = (   0.0000000  -0.1073288   0.3046087), wk =   0.0019531
        k(  529) = (   0.1247871   0.0000000   0.3046087), wk =   0.0019531
        k(  530) = (   0.0000000  -0.2146577   0.3384542), wk =   0.0019531
        k(  531) = (   0.1247871  -0.1073288   0.3384542), wk =   0.0039062
        k(  532) = (   0.2495743   0.0000000   0.3384542), wk =   0.0019531
        k(  533) = (   0.0000000  -0.3219865   0.3722996), wk =   0.0019531
        k(  534) = (   0.1247871  -0.2146577   0.3722996), wk =   0.0039062
        k(  535) = (   0.2495743  -0.1073288   0.3722996), wk =   0.0039062
        k(  536) = (   0.3743614   0.0000000   0.3722996), wk =   0.0019531
        k(  537) = (  -1.9965943  -0.4293153  -0.1353817), wk =   0.0019531
        k(  538) = (  -1.8718071  -0.3219865  -0.1353817), wk =   0.0039062
        k(  539) = (  -1.7470200  -0.2146577  -0.1353817), wk =   0.0039062
        k(  540) = (  -1.6222329  -0.1073288  -0.1353817), wk =   0.0039062
        k(  541) = (  -1.4974457   0.0000000  -0.1353817), wk =   0.0019531
        k(  542) = (   0.0000000   1.1806172  -0.1015362), wk =   0.0019531
        k(  543) = (  -1.8718071  -0.4293153  -0.1015362), wk =   0.0039062
        k(  544) = (  -1.7470200  -0.3219865  -0.1015362), wk =   0.0039062
        k(  545) = (  -1.6222329  -0.2146577  -0.1015362), wk =   0.0039062
        k(  546) = (  -1.4974457  -0.1073288  -0.1015362), wk =   0.0039062
        k(  547) = (  -1.3726586   0.0000000  -0.1015362), wk =   0.0019531
        k(  548) = (   0.0000000   1.0732883  -0.0676908), wk =   0.0019531
        k(  549) = (   0.1247871   1.1806172  -0.0676908), wk =   0.0039062
        k(  550) = (  -1.7470200  -0.4293153  -0.0676908), wk =   0.0039062
        k(  551) = (  -1.6222329  -0.3219865  -0.0676908), wk =   0.0039062
        k(  552) = (  -1.4974457  -0.2146577  -0.0676908), wk =   0.0039062
        k(  553) = (  -1.3726586  -0.1073288  -0.0676908), wk =   0.0039062
        k(  554) = (  -1.2478714   0.0000000  -0.0676908), wk =   0.0019531
        k(  555) = (   0.0000000   0.9659595  -0.0338454), wk =   0.0019531
        k(  556) = (   0.1247871   1.0732883  -0.0338454), wk =   0.0039062
        k(  557) = (   0.2495743   1.1806172  -0.0338454), wk =   0.0039062
        k(  558) = (  -1.6222329  -0.4293153  -0.0338454), wk =   0.0039062
        k(  559) = (  -1.4974457  -0.3219865  -0.0338454), wk =   0.0039062
        k(  560) = (  -1.3726586  -0.2146577  -0.0338454), wk =   0.0039062
        k(  561) = (  -1.2478714  -0.1073288  -0.0338454), wk =   0.0039062
        k(  562) = (  -1.1230843   0.0000000  -0.0338454), wk =   0.0019531
        k(  563) = (   0.0000000   0.8586307   0.0000000), wk =   0.0009766
        k(  564) = (   0.1247871   0.9659595   0.0000000), wk =   0.0019531
        k(  565) = (   0.2495743   1.0732883   0.0000000), wk =   0.0019531
        k(  566) = (   0.3743614   1.1806172   0.0000000), wk =   0.0019531
        k(  567) = (  -1.4974457  -0.4293153   0.0000000), wk =   0.0019531
        k(  568) = (  -1.3726586  -0.3219865   0.0000000), wk =   0.0019531
        k(  569) = (  -1.2478714  -0.2146577   0.0000000), wk =   0.0019531
        k(  570) = (  -1.1230843  -0.1073288   0.0000000), wk =   0.0019531
        k(  571) = (  -0.9982971   0.0000000   0.0000000), wk =   0.0009766
        k(  572) = (   0.0000000   0.0000000   0.3384542), wk =   0.0009766
        k(  573) = (   0.0000000  -0.1073288   0.3722996), wk =   0.0019531
        k(  574) = (   0.1247871   0.0000000   0.3722996), wk =   0.0019531
        k(  575) = (   0.0000000  -0.2146577   0.4061450), wk =   0.0019531
        k(  576) = (   0.1247871  -0.1073288   0.4061450), wk =   0.0039062
        k(  577) = (   0.2495743   0.0000000   0.4061450), wk =   0.0019531
        k(  578) = (  -1.9965943  -0.3219865  -0.1015362), wk =   0.0019531
        k(  579) = (  -1.8718071  -0.2146577  -0.1015362), wk =   0.0039062
        k(  580) = (  -1.7470200  -0.1073288  -0.1015362), wk =   0.0039062
        k(  581) = (  -1.6222329   0.0000000  -0.1015362), wk =   0.0019531
        k(  582) = (   0.0000000   1.2879460  -0.0676908), wk =   0.0019531
        k(  583) = (  -1.8718071  -0.3219865  -0.0676908), wk =   0.0039062
        k(  584) = (  -1.7470200  -0.2146577  -0.0676908), wk =   0.0039062
        k(  585) = (  -1.6222329  -0.1073288  -0.0676908), wk =   0.0039062
        k(  586) = (  -1.4974457   0.0000000  -0.0676908), wk =   0.0019531
        k(  587) = (   0.0000000   1.1806172  -0.0338454), wk =   0.0019531
        k(  588) = (   0.1247871   1.2879460  -0.0338454), wk =   0.0039062
        k(  589) = (  -1.7470200  -0.3219865  -0.0338454), wk =   0.0039062
        k(  590) = (  -1.6222329  -0.2146577  -0.0338454), wk =   0.0039062
        k(  591) = (  -1.4974457  -0.1073288  -0.0338454), wk =   0.0039062
        k(  592) = (  -1.3726586   0.0000000  -0.0338454), wk =   0.0019531
        k(  593) = (   0.0000000   1.0732883   0.0000000), wk =   0.0009766
        k(  594) = (   0.1247871   1.1806172   0.0000000), wk =   0.0019531
        k(  595) = (   0.2495743   1.2879460   0.0000000), wk =   0.0019531
        k(  596) = (  -1.6222329  -0.3219865   0.0000000), wk =   0.0019531
        k(  597) = (  -1.4974457  -0.2146577   0.0000000), wk =   0.0019531
        k(  598) = (  -1.3726586  -0.1073288   0.0000000), wk =   0.0019531
        k(  599) = (  -1.2478714   0.0000000   0.0000000), wk =   0.0009766
        k(  600) = (   0.0000000   0.0000000   0.4061450), wk =   0.0009766
        k(  601) = (   0.0000000  -0.1073288   0.4399904), wk =   0.0019531
        k(  602) = (   0.1247871   0.0000000   0.4399904), wk =   0.0019531
        k(  603) = (  -1.9965943  -0.2146577  -0.0676908), wk =   0.0019531
        k(  604) = (  -1.8718071  -0.1073288  -0.0676908), wk =   0.0039062
        k(  605) = (  -1.7470200   0.0000000  -0.0676908), wk =   0.0019531
        k(  606) = (   0.0000000   1.3952748  -0.0338454), wk =   0.0019531
        k(  607) = (  -1.8718071  -0.2146577  -0.0338454), wk =   0.0039062
        k(  608) = (  -1.7470200  -0.1073288  -0.0338454), wk =   0.0039062
        k(  609) = (  -1.6222329   0.0000000  -0.0338454), wk =   0.0019531
        k(  610) = (   0.0000000   1.2879460   0.0000000), wk =   0.0009766
        k(  611) = (   0.1247871   1.3952748   0.0000000), wk =   0.0019531
        k(  612) = (  -1.7470200  -0.2146577   0.0000000), wk =   0.0019531
        k(  613) = (  -1.6222329  -0.1073288   0.0000000), wk =   0.0019531
        k(  614) = (  -1.4974457   0.0000000   0.0000000), wk =   0.0009766
        k(  615) = (   0.0000000   0.0000000   0.4738358), wk =   0.0009766
        k(  616) = (  -1.9965943  -0.1073288  -0.0338454), wk =   0.0019531
        k(  617) = (  -1.8718071   0.0000000  -0.0338454), wk =   0.0019531
        k(  618) = (   0.0000000   1.5026037   0.0000000), wk =   0.0009766
        k(  619) = (  -1.8718071  -0.1073288   0.0000000), wk =   0.0019531
        k(  620) = (  -1.7470200   0.0000000   0.0000000), wk =   0.0009766
        k(  621) = (  -1.9965943  -1.7172613  -0.5415266), wk =   0.0004883

                       cryst. coord.
        k(    1) = (   0.0000000   0.0000000   0.0000000), wk =   0.0004883
        k(    2) = (   0.0000000   0.0000000   0.0625000), wk =   0.0019531
        k(    3) = (   0.0000000   0.0000000   0.1250000), wk =   0.0019531
        k(    4) = (  -0.0000000   0.0000000   0.1875000), wk =   0.0019531
        k(    5) = (   0.0000000   0.0000000   0.2500000), wk =   0.0019531
        k(    6) = (  -0.0000000   0.0000000   0.3125000), wk =   0.0019531
        k(    7) = (  -0.0000000   0.0000000   0.3750000), wk =   0.0019531
        k(    8) = (   0.0000000   0.0000000   0.4375000), wk =   0.0019531
        k(    9) = (   0.0000000   0.0000000  -0.5000000), wk =   0.0009766
        k(   10) = (   0.0000000   0.0625000   0.0000000), wk =   0.0019531
        k(   11) = (   0.0000000   0.0625000   0.0625000), wk =   0.0039062
        k(   12) = (   0.0000000   0.0625000   0.1250000), wk =   0.0039062
        k(   13) = (  -0.0000000   0.0625000   0.1875000), wk =   0.0039062
        k(   14) = (  -0.0000000   0.0625000   0.2500000), wk =   0.0039062
        k(   15) = (  -0.0000000   0.0625000   0.3125000), wk =   0.0039062
        k(   16) = (  -0.0000000   0.0625000   0.3750000), wk =   0.0039062
        k(   17) = (   0.0000000   0.0625000   0.4375000), wk =   0.0039062
        k(   18) = (   0.0000000   0.0625000  -0.5000000), wk =   0.0039062
        k(   19) = (   0.0000000   0.0625000  -0.4375000), wk =   0.0039062
        k(   20) = (   0.0000000   0.0625000  -0.3750000), wk =   0.0039062
        k(   21) = (   0.0000000   0.0625000  -0.3125000), wk =   0.0039062
        k(   22) = (   0.0000000   0.0625000  -0.2500000), wk =   0.0039062
        k(   23) = (   0.0000000   0.0625000  -0.1875000), wk =   0.0039062
        k(   24) = (   0.0000000   0.0625000  -0.1250000), wk =   0.0039062
        k(   25) = (   0.0000000   0.0625000  -0.0625000), wk =   0.0019531
        k(   26) = (   0.0000000   0.1250000   0.0000000), wk =   0.0019531
        k(   27) = (   0.0000000   0.1250000   0.0625000), wk =   0.0039062
        k(   28) = (   0.0000000   0.1250000   0.1250000), wk =   0.0039062
        k(   29) = (  -0.0000000   0.1250000   0.1875000), wk =   0.0039062
        k(   30) = (   0.0000000   0.1250000   0.2500000), wk =   0.0039062
        k(   31) = (  -0.0000000   0.1250000   0.3125000), wk =   0.0039062
        k(   32) = (  -0.0000000   0.1250000   0.3750000), wk =   0.0039062
        k(   33) = (   0.0000000   0.1250000   0.4375000), wk =   0.0039062
        k(   34) = (   0.0000000   0.1250000  -0.5000000), wk =   0.0039062
        k(   35) = (   0.0000000   0.1250000  -0.4375000), wk =   0.0039062
        k(   36) = (   0.0000000   0.1250000  -0.3750000), wk =   0.0039062
        k(   37) = (   0.0000000   0.1250000  -0.3125000), wk =   0.0039062
        k(   38) = (   0.0000000   0.1250000  -0.2500000), wk =   0.0039062
        k(   39) = (   0.0000000   0.1250000  -0.1875000), wk =   0.0039062
        k(   40) = (   0.0000000   0.1250000  -0.1250000), wk =   0.0019531
        k(   41) = (   0.0000000   0.1250000  -0.0625000), wk =   0.0039062
        k(   42) = (   0.0000000   0.1875000   0.0000000), wk =   0.0019531
        k(   43) = (   0.0000000   0.1875000   0.0625000), wk =   0.0039062
        k(   44) = (  -0.0000000   0.1875000   0.1250000), wk =   0.0039062
        k(   45) = (  -0.0000000   0.1875000   0.1875000), wk =   0.0039062
        k(   46) = (   0.0000000   0.1875000   0.2500000), wk =   0.0039062
        k(   47) = (   0.0000000   0.1875000   0.3125000), wk =   0.0039062
        k(   48) = (  -0.0000000   0.1875000   0.3750000), wk =   0.0039062
        k(   49) = (  -0.0000000   0.1875000   0.4375000), wk =   0.0039062
        k(   50) = (   0.0000000   0.1875000  -0.5000000), wk =   0.0039062
        k(   51) = (   0.0000000   0.1875000  -0.4375000), wk =   0.0039062
        k(   52) = (   0.0000000   0.1875000  -0.3750000), wk =   0.0039062
        k(   53) = (   0.0000000   0.1875000  -0.3125000), wk =   0.0039062
        k(   54) = (   0.0000000   0.1875000  -0.2500000), wk =   0.0039062
        k(   55) = (   0.0000000   0.1875000  -0.1875000), wk =   0.0019531
        k(   56) = (   0.0000000   0.1875000  -0.1250000), wk =   0.0039062
        k(   57) = (   0.0000000   0.1875000  -0.0625000), wk =   0.0039062
        k(   58) = (   0.0000000   0.2500000   0.0000000), wk =   0.0019531
        k(   59) = (  -0.0000000   0.2500000   0.0625000), wk =   0.0039062
        k(   60) = (   0.0000000   0.2500000   0.1250000), wk =   0.0039062
        k(   61) = (   0.0000000   0.2500000   0.1875000), wk =   0.0039062
        k(   62) = (   0.0000000   0.2500000   0.2500000), wk =   0.0039062
        k(   63) = (   0.0000000   0.2500000   0.3125000), wk =   0.0039062
        k(   64) = (  -0.0000000   0.2500000   0.3750000), wk =   0.0039062
        k(   65) = (   0.0000000   0.2500000   0.4375000), wk =   0.0039062
        k(   66) = (   0.0000000   0.2500000  -0.5000000), wk =   0.0039062
        k(   67) = (   0.0000000   0.2500000  -0.4375000), wk =   0.0039062
        k(   68) = (   0.0000000   0.2500000  -0.3750000), wk =   0.0039062
        k(   69) = (   0.0000000   0.2500000  -0.3125000), wk =   0.0039062
        k(   70) = (   0.0000000   0.2500000  -0.2500000), wk =   0.0019531
        k(   71) = (   0.0000000   0.2500000  -0.1875000), wk =   0.0039062
        k(   72) = (   0.0000000   0.2500000  -0.1250000), wk =   0.0039062
        k(   73) = (   0.0000000   0.2500000  -0.0625000), wk =   0.0039062
        k(   74) = (  -0.0000000   0.3125000   0.0000000), wk =   0.0019531
        k(   75) = (  -0.0000000   0.3125000   0.0625000), wk =   0.0039062
        k(   76) = (  -0.0000000   0.3125000   0.1250000), wk =   0.0039062
        k(   77) = (   0.0000000   0.3125000   0.1875000), wk =   0.0039062
        k(   78) = (   0.0000000   0.3125000   0.2500000), wk =   0.0039062
        k(   79) = (  -0.0000000   0.3125000   0.3125000), wk =   0.0039062
        k(   80) = (  -0.0000000   0.3125000   0.3750000), wk =   0.0039062
        k(   81) = (   0.0000000   0.3125000   0.4375000), wk =   0.0039062
        k(   82) = (   0.0000000   0.3125000  -0.5000000), wk =   0.0039062
        k(   83) = (   0.0000000   0.3125000  -0.4375000), wk =   0.0039062
        k(   84) = (   0.0000000   0.3125000  -0.3750000), wk =   0.0039062
        k(   85) = (   0.0000000   0.3125000  -0.3125000), wk =   0.0019531
        k(   86) = (   0.0000000   0.3125000  -0.2500000), wk =   0.0039062
        k(   87) = (   0.0000000   0.3125000  -0.1875000), wk =   0.0039062
        k(   88) = (   0.0000000   0.3125000  -0.1250000), wk =   0.0039062
        k(   89) = (   0.0000000   0.3125000  -0.0625000), wk =   0.0039062
        k(   90) = (   0.0000000   0.3750000   0.0000000), wk =   0.0019531
        k(   91) = (   0.0000000   0.3750000   0.0625000), wk =   0.0039062
        k(   92) = (   0.0000000   0.3750000   0.1250000), wk =   0.0039062
        k(   93) = (   0.0000000   0.3750000   0.1875000), wk =   0.0039062
        k(   94) = (  -0.0000000   0.3750000   0.2500000), wk =   0.0039062
        k(   95) = (   0.0000000   0.3750000   0.3125000), wk =   0.0039062
        k(   96) = (  -0.0000000   0.3750000   0.3750000), wk =   0.0039062
        k(   97) = (  -0.0000000   0.3750000   0.4375000), wk =   0.0039062
        k(   98) = (   0.0000000   0.3750000  -0.5000000), wk =   0.0039062
        k(   99) = (   0.0000000   0.3750000  -0.4375000), wk =   0.0039062
        k(  100) = (   0.0000000   0.3750000  -0.3750000), wk =   0.0019531
        k(  101) = (   0.0000000   0.3750000  -0.3125000), wk =   0.0039062
        k(  102) = (   0.0000000   0.3750000  -0.2500000), wk =   0.0039062
        k(  103) = (   0.0000000   0.3750000  -0.1875000), wk =   0.0039062
        k(  104) = (   0.0000000   0.3750000  -0.1250000), wk =   0.0039062
        k(  105) = (   0.0000000   0.3750000  -0.0625000), wk =   0.0039062
        k(  106) = (   0.0000000   0.4375000   0.0000000), wk =   0.0019531
        k(  107) = (   0.0000000   0.4375000   0.0625000), wk =   0.0039062
        k(  108) = (   0.0000000   0.4375000   0.1250000), wk =   0.0039062
        k(  109) = (  -0.0000000   0.4375000   0.1875000), wk =   0.0039062
        k(  110) = (   0.0000000   0.4375000   0.2500000), wk =   0.0039062
        k(  111) = (   0.0000000   0.4375000   0.3125000), wk =   0.0039062
        k(  112) = (  -0.0000000   0.4375000   0.3750000), wk =   0.0039062
        k(  113) = (   0.0000000   0.4375000   0.4375000), wk =   0.0039062
        k(  114) = (   0.0000000   0.4375000  -0.5000000), wk =   0.0039062
        k(  115) = (   0.0000000   0.4375000  -0.4375000), wk =   0.0019531
        k(  116) = (   0.0000000   0.4375000  -0.3750000), wk =   0.0039062
        k(  117) = (   0.0000000   0.4375000  -0.3125000), wk =   0.0039062
        k(  118) = (   0.0000000   0.4375000  -0.2500000), wk =   0.0039062
        k(  119) = (   0.0000000   0.4375000  -0.1875000), wk =   0.0039062
        k(  120) = (  -0.0000000   0.4375000  -0.1250000), wk =   0.0039062
        k(  121) = (   0.0000000   0.4375000  -0.0625000), wk =   0.0039062
        k(  122) = (   0.0000000  -0.5000000   0.0000000), wk =   0.0009766
        k(  123) = (   0.0000000  -0.5000000   0.0625000), wk =   0.0039062
        k(  124) = (   0.0000000  -0.5000000   0.1250000), wk =   0.0039062
        k(  125) = (   0.0000000  -0.5000000   0.1875000), wk =   0.0039062
        k(  126) = (   0.0000000  -0.5000000   0.2500000), wk =   0.0039062
        k(  127) = (   0.0000000  -0.5000000   0.3125000), wk =   0.0039062
        k(  128) = (   0.0000000  -0.5000000   0.3750000), wk =   0.0039062
        k(  129) = (   0.0000000  -0.5000000   0.4375000), wk =   0.0039062
        k(  130) = (   0.0000000  -0.5000000  -0.5000000), wk =   0.0009766
        k(  131) = (   0.0625000   0.0625000   0.0625000), wk =   0.0039062
        k(  132) = (   0.0625000   0.0625000   0.1250000), wk =   0.0039062
        k(  133) = (   0.0625000   0.0625000   0.1875000), wk =   0.0039062
        k(  134) = (   0.0625000   0.0625000   0.2500000), wk =   0.0039062
        k(  135) = (   0.0625000   0.0625000   0.3125000), wk =   0.0039062
        k(  136) = (   0.0625000   0.0625000   0.3750000), wk =   0.0039062
        k(  137) = (   0.0625000   0.0625000   0.4375000), wk =   0.0019531
        k(  138) = (   0.0625000   0.0625000  -0.0625000), wk =   0.0009766
        k(  139) = (   0.0625000   0.1250000   0.0625000), wk =   0.0039062
        k(  140) = (   0.0625000   0.1250000   0.1250000), wk =   0.0039062
        k(  141) = (   0.0625000   0.1250000   0.1875000), wk =   0.0039062
        k(  142) = (   0.0625000   0.1250000   0.2500000), wk =   0.0039062
        k(  143) = (   0.0625000   0.1250000   0.3125000), wk =   0.0039062
        k(  144) = (   0.0625000   0.1250000   0.3750000), wk =   0.0039062
        k(  145) = (   0.0625000   0.1250000   0.4375000), wk =   0.0039062
        k(  146) = (   0.0625000   0.1250000  -0.5000000), wk =   0.0039062
        k(  147) = (   0.0625000   0.1250000  -0.4375000), wk =   0.0039062
        k(  148) = (   0.0625000   0.1250000  -0.3750000), wk =   0.0039062
        k(  149) = (   0.0625000   0.1250000  -0.3125000), wk =   0.0039062
        k(  150) = (   0.0625000   0.1250000  -0.2500000), wk =   0.0039062
        k(  151) = (   0.0625000   0.1250000  -0.1250000), wk =   0.0019531
        k(  152) = (   0.0625000   0.1250000  -0.0625000), wk =   0.0019531
        k(  153) = (   0.0625000   0.1875000   0.0625000), wk =   0.0039062
        k(  154) = (   0.0625000   0.1875000   0.1250000), wk =   0.0039062
        k(  155) = (   0.0625000   0.1875000   0.1875000), wk =   0.0039062
        k(  156) = (   0.0625000   0.1875000   0.2500000), wk =   0.0039062
        k(  157) = (   0.0625000   0.1875000   0.3125000), wk =   0.0039062
        k(  158) = (   0.0625000   0.1875000   0.3750000), wk =   0.0039062
        k(  159) = (   0.0625000   0.1875000   0.4375000), wk =   0.0039062
        k(  160) = (   0.0625000   0.1875000  -0.5000000), wk =   0.0039062
        k(  161) = (   0.0625000   0.1875000  -0.4375000), wk =   0.0039062
        k(  162) = (   0.0625000   0.1875000  -0.3750000), wk =   0.0039062
        k(  163) = (   0.0625000   0.1875000  -0.3125000), wk =   0.0039062
        k(  164) = (   0.0625000   0.1875000  -0.1875000), wk =   0.0019531
        k(  165) = (   0.0625000   0.1875000  -0.1250000), wk =   0.0039062
        k(  166) = (   0.0625000   0.1875000  -0.0625000), wk =   0.0019531
        k(  167) = (   0.0625000   0.2500000   0.0625000), wk =   0.0039062
        k(  168) = (   0.0625000   0.2500000   0.1250000), wk =   0.0039062
        k(  169) = (   0.0625000   0.2500000   0.1875000), wk =   0.0039062
        k(  170) = (   0.0625000   0.2500000   0.2500000), wk =   0.0039062
        k(  171) = (   0.0625000   0.2500000   0.3125000), wk =   0.0039062
        k(  172) = (   0.0625000   0.2500000   0.3750000), wk =   0.0039062
        k(  173) = (   0.0625000   0.2500000   0.4375000), wk =   0.0039062
        k(  174) = (   0.0625000   0.2500000  -0.5000000), wk =   0.0039062
        k(  175) = (   0.0625000   0.2500000  -0.4375000), wk =   0.0039062
        k(  176) = (   0.0625000   0.2500000  -0.3750000), wk =   0.0039062
        k(  177) = (   0.0625000   0.2500000  -0.2500000), wk =   0.0019531
        k(  178) = (   0.0625000   0.2500000  -0.1875000), wk =   0.0039062
        k(  179) = (   0.0625000   0.2500000  -0.1250000), wk =   0.0039062
        k(  180) = (   0.0625000   0.2500000  -0.0625000), wk =   0.0019531
        k(  181) = (   0.0625000   0.3125000   0.0625000), wk =   0.0039062
        k(  182) = (   0.0625000   0.3125000   0.1250000), wk =   0.0039062
        k(  183) = (   0.0625000   0.3125000   0.1875000), wk =   0.0039062
        k(  184) = (   0.0625000   0.3125000   0.2500000), wk =   0.0039062
        k(  185) = (   0.0625000   0.3125000   0.3125000), wk =   0.0039062
        k(  186) = (   0.0625000   0.3125000   0.3750000), wk =   0.0039062
        k(  187) = (   0.0625000   0.3125000   0.4375000), wk =   0.0039062
        k(  188) = (   0.0625000   0.3125000  -0.5000000), wk =   0.0039062
        k(  189) = (   0.0625000   0.3125000  -0.4375000), wk =   0.0039062
        k(  190) = (   0.0625000   0.3125000  -0.3125000), wk =   0.0019531
        k(  191) = (   0.0625000   0.3125000  -0.2500000), wk =   0.0039062
        k(  192) = (   0.0625000   0.3125000  -0.1875000), wk =   0.0039062
        k(  193) = (   0.0625000   0.3125000  -0.1250000), wk =   0.0039062
        k(  194) = (   0.0625000   0.3125000  -0.0625000), wk =   0.0019531
        k(  195) = (   0.0625000   0.3750000   0.0625000), wk =   0.0039062
        k(  196) = (   0.0625000   0.3750000   0.1250000), wk =   0.0039062
        k(  197) = (   0.0625000   0.3750000   0.1875000), wk =   0.0039062
        k(  198) = (   0.0625000   0.3750000   0.2500000), wk =   0.0039062
        k(  199) = (   0.0625000   0.3750000   0.3125000), wk =   0.0039062
        k(  200) = (   0.0625000   0.3750000   0.3750000), wk =   0.0039062
        k(  201) = (   0.0625000   0.3750000   0.4375000), wk =   0.0039062
        k(  202) = (   0.0625000   0.3750000  -0.5000000), wk =   0.0039062
        k(  203) = (   0.0625000   0.3750000  -0.3750000), wk =   0.0019531
        k(  204) = (   0.0625000   0.3750000  -0.3125000), wk =   0.0039062
        k(  205) = (   0.0625000   0.3750000  -0.2500000), wk =   0.0039062
        k(  206) = (   0.0625000   0.3750000  -0.1875000), wk =   0.0039062
        k(  207) = (   0.0625000   0.3750000  -0.1250000), wk =   0.0039062
        k(  208) = (   0.0625000   0.3750000  -0.0625000), wk =   0.0019531
        k(  209) = (   0.0625000   0.4375000   0.0625000), wk =   0.0019531
        k(  210) = (   0.0625000   0.4375000   0.1250000), wk =   0.0039062
        k(  211) = (   0.0625000   0.4375000   0.1875000), wk =   0.0039062
        k(  212) = (   0.0625000   0.4375000   0.2500000), wk =   0.0039062
        k(  213) = (   0.0625000   0.4375000   0.3125000), wk =   0.0039062
        k(  214) = (   0.0625000   0.4375000   0.3750000), wk =   0.0039062
        k(  215) = (   0.0625000   0.4375000   0.4375000), wk =   0.0019531
        k(  216) = (   0.0625000   0.4375000  -0.4375000), wk =   0.0019531
        k(  217) = (   0.0625000   0.4375000  -0.3750000), wk =   0.0039062
        k(  218) = (   0.0625000   0.4375000  -0.3125000), wk =   0.0039062
        k(  219) = (   0.0625000   0.4375000  -0.2500000), wk =   0.0039062
        k(  220) = (   0.0625000   0.4375000  -0.1875000), wk =   0.0039062
        k(  221) = (   0.0625000   0.4375000  -0.1250000), wk =   0.0039062
        k(  222) = (   0.0625000   0.4375000  -0.0625000), wk =   0.0019531
        k(  223) = (   0.0625000  -0.5000000   0.1250000), wk =   0.0039062
        k(  224) = (   0.0625000  -0.5000000   0.1875000), wk =   0.0039062
        k(  225) = (   0.0625000  -0.5000000   0.2500000), wk =   0.0039062
        k(  226) = (   0.0625000  -0.5000000   0.3125000), wk =   0.0039062
        k(  227) = (   0.0625000  -0.5000000  -0.5000000), wk =   0.0019531
        k(  228) = (   0.0625000  -0.5000000  -0.4375000), wk =   0.0039062
        k(  229) = (   0.0625000  -0.5000000  -0.3750000), wk =   0.0039062
        k(  230) = (   0.0625000  -0.5000000  -0.3125000), wk =   0.0039062
        k(  231) = (   0.0625000  -0.5000000  -0.2500000), wk =   0.0039062
        k(  232) = (   0.0625000  -0.5000000  -0.1875000), wk =   0.0039062
        k(  233) = (   0.0625000  -0.5000000  -0.1250000), wk =   0.0039062
        k(  234) = (   0.0625000  -0.5000000  -0.0625000), wk =   0.0019531
        k(  235) = (   0.0625000  -0.4375000   0.1250000), wk =   0.0039062
        k(  236) = (   0.0625000  -0.4375000   0.1875000), wk =   0.0039062
        k(  237) = (   0.0625000  -0.4375000   0.2500000), wk =   0.0039062
        k(  238) = (   0.0625000  -0.4375000   0.4375000), wk =   0.0019531
        k(  239) = (   0.0625000  -0.4375000  -0.5000000), wk =   0.0039062
        k(  240) = (   0.0625000  -0.4375000  -0.4375000), wk =   0.0039062
        k(  241) = (   0.0625000  -0.4375000  -0.3750000), wk =   0.0039062
        k(  242) = (   0.0625000  -0.4375000  -0.3125000), wk =   0.0039062
        k(  243) = (   0.0625000  -0.4375000  -0.2500000), wk =   0.0039062
        k(  244) = (   0.0625000  -0.4375000  -0.1875000), wk =   0.0039062
        k(  245) = (   0.0625000  -0.4375000  -0.1250000), wk =   0.0039062
        k(  246) = (   0.0625000  -0.4375000  -0.0625000), wk =   0.0019531
        k(  247) = (   0.0625000  -0.3750000   0.1250000), wk =   0.0039062
        k(  248) = (   0.0625000  -0.3750000   0.1875000), wk =   0.0039062
        k(  249) = (   0.0625000  -0.3750000   0.3750000), wk =   0.0019531
        k(  250) = (   0.0625000  -0.3750000   0.4375000), wk =   0.0039062
        k(  251) = (   0.0625000  -0.3750000  -0.5000000), wk =   0.0039062
        k(  252) = (   0.0625000  -0.3750000  -0.4375000), wk =   0.0039062
        k(  253) = (   0.0625000  -0.3750000  -0.3750000), wk =   0.0039062
        k(  254) = (   0.0625000  -0.3750000  -0.3125000), wk =   0.0039062
        k(  255) = (   0.0625000  -0.3750000  -0.2500000), wk =   0.0039062
        k(  256) = (   0.0625000  -0.3750000  -0.1875000), wk =   0.0039062
        k(  257) = (   0.0625000  -0.3750000  -0.1250000), wk =   0.0039062
        k(  258) = (   0.0625000  -0.3750000  -0.0625000), wk =   0.0019531
        k(  259) = (   0.0625000  -0.3125000   0.1250000), wk =   0.0039062
        k(  260) = (   0.0625000  -0.3125000   0.3125000), wk =   0.0019531
        k(  261) = (   0.0625000  -0.3125000   0.3750000), wk =   0.0039062
        k(  262) = (   0.0625000  -0.3125000   0.4375000), wk =   0.0039062
        k(  263) = (   0.0625000  -0.3125000  -0.5000000), wk =   0.0039062
        k(  264) = (   0.0625000  -0.3125000  -0.4375000), wk =   0.0039062
        k(  265) = (   0.0625000  -0.3125000  -0.3750000), wk =   0.0039062
        k(  266) = (   0.0625000  -0.3125000  -0.3125000), wk =   0.0039062
        k(  267) = (   0.0625000  -0.3125000  -0.2500000), wk =   0.0039062
        k(  268) = (   0.0625000  -0.3125000  -0.1875000), wk =   0.0039062
        k(  269) = (   0.0625000  -0.3125000  -0.1250000), wk =   0.0039062
        k(  270) = (   0.0625000  -0.3125000  -0.0625000), wk =   0.0019531
        k(  271) = (   0.0625000  -0.2500000   0.2500000), wk =   0.0019531
        k(  272) = (   0.0625000  -0.2500000   0.3125000), wk =   0.0039062
        k(  273) = (   0.0625000  -0.2500000   0.3750000), wk =   0.0039062
        k(  274) = (   0.0625000  -0.2500000   0.4375000), wk =   0.0039062
        k(  275) = (   0.0625000  -0.2500000  -0.5000000), wk =   0.0039062
        k(  276) = (   0.0625000  -0.2500000  -0.4375000), wk =   0.0039062
        k(  277) = (   0.0625000  -0.2500000  -0.3750000), wk =   0.0039062
        k(  278) = (   0.0625000  -0.2500000  -0.3125000), wk =   0.0039062
        k(  279) = (   0.0625000  -0.2500000  -0.2500000), wk =   0.0039062
        k(  280) = (   0.0625000  -0.2500000  -0.1875000), wk =   0.0039062
        k(  281) = (   0.0625000  -0.2500000  -0.1250000), wk =   0.0039062
        k(  282) = (   0.0625000  -0.2500000  -0.0625000), wk =   0.0019531
        k(  283) = (   0.0625000  -0.1875000   0.1875000), wk =   0.0019531
        k(  284) = (   0.0625000  -0.1875000   0.2500000), wk =   0.0039062
        k(  285) = (   0.0625000  -0.1875000   0.3125000), wk =   0.0039062
        k(  286) = (   0.0625000  -0.1875000   0.3750000), wk =   0.0039062
        k(  287) = (   0.0625000  -0.1875000   0.4375000), wk =   0.0039062
        k(  288) = (   0.0625000  -0.1875000  -0.5000000), wk =   0.0039062
        k(  289) = (   0.0625000  -0.1875000  -0.4375000), wk =   0.0039062
        k(  290) = (   0.0625000  -0.1875000  -0.3750000), wk =   0.0039062
        k(  291) = (   0.0625000  -0.1875000  -0.3125000), wk =   0.0039062
        k(  292) = (   0.0625000  -0.1875000  -0.2500000), wk =   0.0039062
        k(  293) = (   0.0625000  -0.1875000  -0.1875000), wk =   0.0039062
        k(  294) = (   0.0625000  -0.1875000  -0.1250000), wk =   0.0039062
        k(  295) = (   0.0625000  -0.1875000  -0.0625000), wk =   0.0019531
        k(  296) = (   0.0625000  -0.1250000   0.1250000), wk =   0.0019531
        k(  297) = (   0.0625000  -0.1250000   0.1875000), wk =   0.0039062
        k(  298) = (   0.0625000  -0.1250000   0.2500000), wk =   0.0039062
        k(  299) = (   0.0625000  -0.1250000   0.3125000), wk =   0.0039062
        k(  300) = (   0.0625000  -0.1250000   0.3750000), wk =   0.0039062
        k(  301) = (   0.0625000  -0.1250000   0.4375000), wk =   0.0039062
        k(  302) = (   0.0625000  -0.1250000  -0.5000000), wk =   0.0039062
        k(  303) = (   0.0625000  -0.1250000  -0.4375000), wk =   0.0039062
        k(  304) = (   0.0625000  -0.1250000  -0.3750000), wk =   0.0039062
        k(  305) = (   0.0625000  -0.1250000  -0.3125000), wk =   0.0039062
        k(  306) = (   0.0625000  -0.1250000  -0.2500000), wk =   0.0039062
        k(  307) = (   0.0625000  -0.1250000  -0.1875000), wk =   0.0039062
        k(  308) = (   0.0625000  -0.1250000  -0.1250000), wk =   0.0039062
[...]

   -49.8610 -26.1076 -25.7976 -25.7212 -12.3571  -9.2874  -9.0712   1.3189
     2.2303   2.6605   2.6938   2.9217   3.3046   3.6095   3.8306   4.0287
     5.5661   7.3112   7.5767   8.9726   9.9954

     occupation numbers 
     1.0000   1.0000   1.0000   1.0000   1.0000   1.0000   1.0000   1.0000
     1.0000   1.0000   1.0000   1.0000   1.0000   1.0000   1.0000   1.0000
     1.0000  -0.0000  -0.0000  -0.0000  -0.0000

          k = 0.1248 0.0000 0.4400 ( 12133 PWs)   bands (ev):

   -49.8606 -26.0998 -25.7964 -25.7297 -12.3984  -9.2809  -9.0612   1.3441
     2.1193   2.6725   2.7849   3.2091   3.3554   3.4634   3.8310   3.9787
     5.7208   7.1590   7.4949   8.8982   9.9051

     occupation numbers 
     1.0000   1.0000   1.0000   1.0000   1.0000   1.0000   1.0000   1.0000
     1.0000   1.0000   1.0000   1.0000   1.0000   1.0000   1.0000   1.0000
     1.0000  -0.0002  -0.0000  -0.0000  -0.0000

          k =-1.9966-0.2147-0.0677 ( 12164 PWs)   bands (ev):

   -49.8606 -26.1280 -25.7969 -25.7205 -12.2246  -9.2437  -9.0980   1.3566
     2.1564   2.3867   2.4852   2.6744   3.2116   3.3828   3.9243   4.0833
     5.5799   7.6194   7.7493   8.9824  10.2925

     occupation numbers 
     1.0000   1.0000   1.0000   1.0000   1.0000   1.0000   1.0000   1.0000
     1.0000   1.0000   1.0000   1.0000   1.0000   1.0000   1.0000   1.0000
     1.0000  -0.0000  -0.0000  -0.0000  -0.0000

          k =-1.8718-0.1073-0.0677 ( 12141 PWs)   bands (ev):

   -49.8604 -26.1070 -25.7962 -25.7295 -12.3527  -9.2503  -9.0870   1.4095
     2.0495   2.6303   2.7000   3.0399   3.1851   3.6332   3.8275   3.9180
     5.7262   7.2739   7.5567   8.9136  10.0380

     occupation numbers 
     1.0000   1.0000   1.0000   1.0000   1.0000   1.0000   1.0000   1.0000
     1.0000   1.0000   1.0000   1.0000   1.0000   1.0000   1.0000   1.0000
     1.0000  -0.0000  -0.0000  -0.0000  -0.0000

          k =-1.7470 0.0000-0.0677 ( 12142 PWs)   bands (ev):

   -49.8590 -26.0979 -25.7923 -25.7533 -12.3859  -9.2287  -9.0484   1.4516
     1.8193   2.6748   2.8108   2.8658   3.4420   3.6457   3.7894   3.8298
     6.0796   7.0600   7.4154   8.7566   9.9507

     occupation numbers 
     1.0000   1.0000   1.0000   1.0000   1.0000   1.0000   1.0000   1.0000
     1.0000   1.0000   1.0000   1.0000   1.0000   1.0000   1.0000   1.0000
     1.0000  -0.0048  -0.0000  -0.0000  -0.0000

          k = 0.0000 1.3953-0.0338 ( 12164 PWs)   bands (ev):

   -49.8601 -26.1582 -25.7958 -25.7196 -12.0192  -9.1918  -9.1226   1.3099
     1.8399   2.0037   2.2315   2.6828   3.0588   3.1460   3.8437   4.2779
     5.5998   8.0350   8.0445   8.9803  10.5976

     occupation numbers 
     1.0000   1.0000   1.0000   1.0000   1.0000   1.0000   1.0000   1.0000
     1.0000   1.0000   1.0000   1.0000   1.0000   1.0000   1.0000   1.0000
     1.0000  -0.0000  -0.0000  -0.0000  -0.0000

          k =-1.8718-0.2147-0.0338 ( 12153 PWs)   bands (ev):

   -49.8601 -26.1273 -25.7954 -25.7288 -12.2202  -9.2106  -9.1089   1.4244
     2.0202   2.3810   2.3906   2.8630   3.0870   3.4045   3.7929   4.1009
     5.7387   7.5827   7.7282   8.9222  10.3295

     occupation numbers 
     1.0000   1.0000   1.0000   1.0000   1.0000   1.0000   1.0000   1.0000
     1.0000   1.0000   1.0000   1.0000   1.0000   1.0000   1.0000   1.0000
     1.0000  -0.0000  -0.0000  -0.0000  -0.0000

          k =-1.7470-0.1073-0.0338 ( 12137 PWs)   bands (ev):

   -49.8589 -26.1051 -25.7920 -25.7531 -12.3402  -9.2081  -9.0633   1.5170
     1.7458   2.6235   2.7062   2.8459   3.2437   3.6094   3.7840   3.8981
     6.0855   7.1746   7.4775   8.7663  10.0738

     occupation numbers 
     1.0000   1.0000   1.0000   1.0000   1.0000   1.0000   1.0000   1.0000
     1.0000   1.0000   1.0000   1.0000   1.0000   1.0000   1.0000   1.0000
     1.0000  -0.0001  -0.0000  -0.0000  -0.0000

          k =-1.6222 0.0000-0.0338 ( 12136 PWs)   bands (ev):

   -49.8566 -26.0952 -25.7884 -25.7861 -12.3671  -9.1827  -8.9937   1.4121
     1.6408   2.4062   2.6827   2.8547   3.5570   3.7092   3.7439   3.8294
     6.5124   6.9319   7.2786   8.6545   9.9419

     occupation numbers 
     1.0000   1.0000   1.0000   1.0000   1.0000   1.0000   1.0000   1.0000
     1.0000   1.0000   1.0000   1.0000   1.0000   1.0000   1.0000   1.0000
     1.0117  -0.0354  -0.0000  -0.0000  -0.0000

          k = 0.0000 1.2879 0.0000 ( 12185 PWs)   bands (ev):

   -49.8594 -26.1935 -25.7944 -25.7184 -11.7643  -9.1506  -9.1306   0.9800
     1.4289   1.6327   2.2754   2.6844   2.8701   2.9797   3.8133   4.3612
     5.6208   8.4123   8.5133   8.9666  10.8083

     occupation numbers 
     1.0000   1.0000   1.0000   1.0000   1.0000   1.0000   1.0000   1.0000
     1.0000   1.0000   1.0000   1.0000   1.0000   1.0000   1.0000   1.0000
     1.0000  -0.0000  -0.0000  -0.0000  -0.0000

          k = 0.1248 1.3953 0.0000 ( 12172 PWs)   bands (ev):

   -49.8595 -26.1575 -25.7943 -25.7278 -12.0149  -9.1676  -9.1239   1.3450
     1.8586   1.9951   2.0642   2.8309   2.9052   3.2362   3.6834   4.2823
     5.7552   8.0093   8.0144   8.9229  10.6328

     occupation numbers 
     1.0000   1.0000   1.0000   1.0000   1.0000   1.0000   1.0000   1.0000
     1.0000   1.0000   1.0000   1.0000   1.0000   1.0000   1.0000   1.0000
     1.0000  -0.0000  -0.0000  -0.0000  -0.0000

          k =-1.7470-0.2147 0.0000 ( 12152 PWs)   bands (ev):

   -49.8585 -26.1254 -25.7913 -25.7524 -12.2079  -9.1826  -9.0704   1.5117
     1.7261   2.3906   2.4020   2.7809   3.0854   3.3544   3.6482   4.1409
     6.0941   7.4846   7.6590   8.7801  10.3659

     occupation numbers 
     1.0000   1.0000   1.0000   1.0000   1.0000   1.0000   1.0000   1.0000
     1.0000   1.0000   1.0000   1.0000   1.0000   1.0000   1.0000   1.0000
     1.0000  -0.0000  -0.0000  -0.0000  -0.0000

          k =-1.6222-0.1073 0.0000 ( 12143 PWs)   bands (ev):

   -49.8565 -26.1023 -25.7882 -25.7858 -12.3216  -9.1737  -8.9964   1.4356
     1.6111   2.3891   2.6169   2.7706   3.4018   3.5229   3.7426   3.9896
     6.5159   7.0457   7.3489   8.6613  10.0625

     occupation numbers 
     1.0000   1.0000   1.0000   1.0000   1.0000   1.0000   1.0000   1.0000
     1.0000   1.0000   1.0000   1.0000   1.0000   1.0000   1.0000   1.0000
     1.0126  -0.0069  -0.0000  -0.0000  -0.0000

          k =-1.4974 0.0000 0.0000 ( 12179 PWs)   bands (ev):

   -49.8538 -26.0919 -25.8295 -25.7787 -12.3451  -9.1428  -8.9122   1.2125
     1.5072   2.1218   2.6274   2.9163   3.6634   3.6865   3.6904   3.8993
     6.8123   6.9797   7.1014   8.6906   9.8741

     occupation numbers 
     1.0000   1.0000   1.0000   1.0000   1.0000   1.0000   1.0000   1.0000
     1.0000   1.0000   1.0000   1.0000   1.0000   1.0000   1.0000   1.0000
     0.2376  -0.0250  -0.0014  -0.0000  -0.0000

          k = 0.0000 0.0000 0.4738 ( 12120 PWs)   bands (ev):

   -49.8611 -26.1004 -25.7979 -25.7214 -12.4027  -9.2666  -9.1006   1.3951
     2.1739   2.6718   2.7726   3.3212   3.3467   3.3603   3.8071   4.0637
     5.5616   7.1963   7.5328   8.9905   9.9000

     occupation numbers 
     1.0000   1.0000   1.0000   1.0000   1.0000   1.0000   1.0000   1.0000
     1.0000   1.0000   1.0000   1.0000   1.0000   1.0000   1.0000   1.0000
     1.0000  -0.0000  -0.0000  -0.0000  -0.0000

          k =-1.9966-0.1073-0.0338 ( 12148 PWs)   bands (ev):

   -49.8610 -26.1076 -25.7976 -25.7212 -12.3570  -9.2376  -9.1241   1.4348
     2.1304   2.6802   2.6821   2.9086   3.2907   3.6420   3.7760   4.0120
     5.5667   7.3113   7.5901   8.9983  10.0307

     occupation numbers 
     1.0000   1.0000   1.0000   1.0000   1.0000   1.0000   1.0000   1.0000
     1.0000   1.0000   1.0000   1.0000   1.0000   1.0000   1.0000   1.0000
     1.0000  -0.0000  -0.0000  -0.0000  -0.0000

          k =-1.8718 0.0000-0.0338 ( 12126 PWs)   bands (ev):

   -49.8606 -26.0998 -25.7964 -25.7297 -12.3983  -9.2364  -9.1086   1.4728
     1.9930   2.6939   2.7806   3.1909   3.3989   3.4411   3.7840   3.9639
     5.7234   7.1586   7.5080   8.9228   9.9278

     occupation numbers 
     1.0000   1.0000   1.0000   1.0000   1.0000   1.0000   1.0000   1.0000
     1.0000   1.0000   1.0000   1.0000   1.0000   1.0000   1.0000   1.0000
     1.0000  -0.0002  -0.0000  -0.0000  -0.0000

          k = 0.0000 1.5026 0.0000 ( 12172 PWs)   bands (ev):

   -49.8606 -26.1280 -25.7969 -25.7205 -12.2245  -9.2063  -9.1368   1.4118
     2.1401   2.3725   2.4568   2.6840   3.2067   3.3731   3.9144   4.0831
     5.5808   7.6194   7.7546   8.9947  10.3134

     occupation numbers 
     1.0000   1.0000   1.0000   1.0000   1.0000   1.0000   1.0000   1.0000
     1.0000   1.0000   1.0000   1.0000   1.0000   1.0000   1.0000   1.0000
     1.0000  -0.0000  -0.0000  -0.0000  -0.0000

          k =-1.8718-0.1073 0.0000 ( 12141 PWs)   bands (ev):

   -49.8604 -26.1070 -25.7962 -25.7295 -12.3526  -9.2209  -9.1178   1.4818
     1.9808   2.6471   2.6891   3.0454   3.1700   3.6475   3.8023   3.9099
     5.7278   7.2737   7.5627   8.9259  10.0506

     occupation numbers 
     1.0000   1.0000   1.0000   1.0000   1.0000   1.0000   1.0000   1.0000
     1.0000   1.0000   1.0000   1.0000   1.0000   1.0000   1.0000   1.0000
     1.0000  -0.0000  -0.0000  -0.0000  -0.0000

          k =-1.7470 0.0000 0.0000 ( 12151 PWs)   bands (ev):

   -49.8590 -26.0979 -25.7923 -25.7533 -12.3858  -9.2093  -9.0689   1.5660
     1.7018   2.7023   2.8081   2.8406   3.4681   3.6494   3.7633   3.8164
     6.0841   7.0590   7.4201   8.7637   9.9522

     occupation numbers 
     1.0000   1.0000   1.0000   1.0000   1.0000   1.0000   1.0000   1.0000
     1.0000   1.0000   1.0000   1.0000   1.0000   1.0000   1.0000   1.0000
     1.0000  -0.0049  -0.0000  -0.0000  -0.0000

          k =-1.9966-1.7173-0.5415 ( 12132 PWs)   bands (ev):

   -49.8611 -26.1004 -25.7979 -25.7214 -12.4026  -9.2344  -9.1344   1.4654
     2.1044   2.6823   2.7706   3.3129   3.3339   3.3837   3.7814   4.0559
     5.5616   7.1963   7.5403   9.0039   9.9164

     occupation numbers 
     1.0000   1.0000   1.0000   1.0000   1.0000   1.0000   1.0000   1.0000
     1.0000   1.0000   1.0000   1.0000   1.0000   1.0000   1.0000   1.0000
     1.0000  -0.0000  -0.0000  -0.0000  -0.0000

     the Fermi energy is     6.7675 ev

!    total energy              =    -534.96743477 Ry

     total all-electron energy =     -9636.857677 Ry
     estimated scf accuracy    <          4.9E-12 Ry
     smearing contrib. (-TS)   =      -0.00005811 Ry
     internal energy E=F+TS    =    -534.96737665 Ry

     The total energy is F=E-TS. E is the sum of the following terms:
     one-electron contribution =     -93.94241440 Ry
     hartree contribution      =      61.20988117 Ry
     xc contribution           =     -39.53549259 Ry
     ewald contribution        =    -135.48921389 Ry
     one-center paw contrib.   =    -327.21013694 Ry
      -> PAW hartree energy AE =      29.10067051 Ry
      -> PAW hartree energy PS =     -29.07060269 Ry
      -> PAW xc energy AE      =     -17.03936209 Ry
      -> PAW xc energy PS      =       7.41522474 Ry
      -> total E_H with PAW    =      61.23994898 Ry
      -> total E_XC with PAW   =     -49.15962994 Ry

     convergence has been achieved in  13 iterations

     Forces acting on atoms (cartesian axes, Ry/au):

     atom    1 type  1   force =     0.00000000    0.00000000    0.00000000
     atom    2 type  2   force =     0.00000000    0.00000000    0.03634697
     atom    3 type  2   force =     0.00000000    0.00000000   -0.03634697
     atom    4 type  3   force =    -0.00000000   -0.00000000    0.00000000
     The non-local contrib.  to forces
     atom    1 type  1   force =     0.00000000    0.00000000    0.00000000
     atom    2 type  2   force =     0.00000000    0.00000000    0.06517658
     atom    3 type  2   force =     0.00000000    0.00000000   -0.06517658
     atom    4 type  3   force =     0.00000000    0.00000000    0.00000000
     The ionic contribution  to forces
     atom    1 type  1   force =    -0.00000000   -0.00000000    0.00000000
     atom    2 type  2   force =     0.00000001    0.00000000  -10.07462875
     atom    3 type  2   force =    -0.00000001   -0.00000000   10.07462875
     atom    4 type  3   force =    -0.00000000   -0.00000000    0.00000000
     The local contribution  to forces
     atom    1 type  1   force =     0.00000000    0.00000000    0.00000000
     atom    2 type  2   force =     0.00000002   -0.00000003   10.04429494
     atom    3 type  2   force =    -0.00000002    0.00000003  -10.04429494
     atom    4 type  3   force =     0.00000000    0.00000000    0.00000000
     The core correction contribution to forces
     atom    1 type  1   force =     0.00000000    0.00000000    0.00000000
     atom    2 type  2   force =    -0.00000000    0.00000000    0.00150404
     atom    3 type  2   force =     0.00000000   -0.00000000   -0.00150404
     atom    4 type  3   force =     0.00000000    0.00000000    0.00000000
     The Hubbard contrib.    to forces
     atom    1 type  1   force =     0.00000000    0.00000000    0.00000000
     atom    2 type  2   force =     0.00000000    0.00000000    0.00000000
     atom    3 type  2   force =     0.00000000    0.00000000    0.00000000
     atom    4 type  3   force =     0.00000000    0.00000000    0.00000000
     The SCF correction term to forces
     atom    1 type  1   force =    -0.00000000   -0.00000000   -0.00000000
     atom    2 type  2   force =    -0.00000000    0.00000000    0.00000016
     atom    3 type  2   force =     0.00000000   -0.00000000   -0.00000016
     atom    4 type  3   force =     0.00000000    0.00000000   -0.00000000

     Total force =     0.051402     Total SCF correction =     0.000000


     Computing stress (Cartesian axis) and pressure

          total   stress  (Ry/bohr**3)                   (kbar)     P=      -39.36
  -0.00027931  -0.00000000   0.00000000          -41.09       -0.00        0.00
  -0.00000000  -0.00025584   0.00000000           -0.00      -37.64        0.00
   0.00000000  -0.00000000  -0.00026745            0.00       -0.00      -39.34

     kinetic stress (kbar)  14757.62     -0.00      0.00
                               -0.00  14815.80      0.00
                               -0.00      0.00  14775.99

     local   stress (kbar) -18899.56     -0.00      0.00
                               -0.00 -24199.76      0.00
                                0.00      0.00   4097.42

     nonloc. stress (kbar)   8010.29      0.00      0.00
                                0.00   7930.91      0.00
                                0.00      0.00   8006.01

     hartree stress (kbar)   8376.03      0.00     -0.00
                                0.00  10107.52      0.00
                               -0.00      0.00  -2050.31

     exc-cor stress (kbar)  -1130.95      0.00     -0.00
                                0.00  -1121.55     -0.00
                               -0.00     -0.00  -1130.45

     corecor stress (kbar)  -2029.38     -0.00      0.00
                               -0.00  -2029.10      0.00
                                0.00      0.00  -2029.31

     ewald   stress (kbar)  -9125.13      0.00     -0.00
                                0.00  -5541.44     -0.00
                               -0.00     -0.00 -21708.70

     hubbard stress (kbar)      0.00      0.00      0.00
                                0.00      0.00      0.00
                                0.00      0.00      0.00

     DFT-D   stress (kbar)      0.00      0.00      0.00
                                0.00      0.00      0.00
                                0.00      0.00      0.00

     XDM     stress (kbar)      0.00      0.00      0.00
                                0.00      0.00      0.00
                                0.00      0.00      0.00

     dft-nl  stress (kbar)      0.00      0.00      0.00
                                0.00      0.00      0.00
                                0.00      0.00      0.00

     TS-vdW  stress (kbar)      0.00      0.00      0.00
                                0.00      0.00      0.00
                                0.00      0.00      0.00



     Writing output data file /zfs_data/gutierre/Scratch/Cl2NbO/smearing/16x16x16/0.010/tmp/Cl2NbO.save/
 
     init_run     :     12.82s CPU     13.33s WALL (       1 calls)
     electrons    :    398.04s CPU    408.94s WALL (       1 calls)
     forces       :      1.45s CPU      1.48s WALL (       1 calls)
     stress       :      4.07s CPU      4.13s WALL (       1 calls)

     Called by init_run:
     wfcinit      :     11.59s CPU     12.00s WALL (       1 calls)
     wfcinit:atom :      0.09s CPU      0.09s WALL (     621 calls)
     wfcinit:wfcr :     11.15s CPU     11.55s WALL (     621 calls)
     potinit      :      0.37s CPU      0.39s WALL (       1 calls)
     hinit0       :      0.49s CPU      0.51s WALL (       1 calls)

     Called by electrons:
     c_bands      :    326.94s CPU    335.99s WALL (      13 calls)
     sum_band     :     67.78s CPU     69.54s WALL (      13 calls)
     v_of_rho     :      1.32s CPU      1.34s WALL (      14 calls)
     v_h          :      0.11s CPU      0.11s WALL (      14 calls)
     v_xc         :      1.37s CPU      1.41s WALL (      16 calls)
     newd         :      1.08s CPU      1.14s WALL (      14 calls)
     PAW_pot      :      0.75s CPU      0.76s WALL (      14 calls)
     mix_rho      :      0.19s CPU      0.20s WALL (      13 calls)

     Called by c_bands:
     init_us_2    :      4.41s CPU      4.67s WALL (   18009 calls)
     cegterg      :    317.64s CPU    325.98s WALL (    8073 calls)

     Called by sum_band:
     sum_band:wei :      0.26s CPU      0.26s WALL (      13 calls)
     sum_band:loo :     66.33s CPU     67.97s WALL (      13 calls)
     sum_band:buf :      0.65s CPU      0.67s WALL (    8073 calls)
     sum_band:ini :      2.07s CPU      2.14s WALL (    8073 calls)
     sum_band:cal :      2.26s CPU      2.29s WALL (    8073 calls)
     sum_band:bec :      0.24s CPU      0.25s WALL (    8073 calls)
     addusdens    :      1.01s CPU      1.12s WALL (      13 calls)
     addusd:skk   :      0.01s CPU      0.01s WALL (      39 calls)
     addusd:dgemm :      0.25s CPU      0.35s WALL (      39 calls)
     addusd:qvan2 :      0.71s CPU      0.71s WALL (      39 calls)

     Called by *egterg:
     cdiaghg      :     17.28s CPU     17.93s WALL (   29310 calls)
     cegterg:over :      6.32s CPU      6.52s WALL (   21237 calls)
     cegterg:upda :      1.89s CPU      1.94s WALL (   21237 calls)
     cegterg:last :      2.96s CPU      3.01s WALL (   15856 calls)
     h_psi        :    291.66s CPU    299.36s WALL (   29931 calls)
     s_psi        :      1.95s CPU      1.99s WALL (   29931 calls)
     g_psi        :      0.38s CPU      0.39s WALL (   21237 calls)

     Called by h_psi:
     h_psi:calbec :      7.33s CPU      7.54s WALL (   29931 calls)
     vloc_psi     :    280.07s CPU    287.44s WALL (   29931 calls)
     add_vuspsi   :      3.19s CPU      3.28s WALL (   29931 calls)

     General routines
     calbec       :      9.85s CPU     10.13s WALL (   41109 calls)
     fft          :      1.14s CPU      1.16s WALL (     205 calls)
     ffts         :      0.02s CPU      0.02s WALL (      27 calls)
     fftw         :    306.04s CPU    314.36s WALL ( 1031235 calls)
     interpolate  :      0.10s CPU      0.10s WALL (      14 calls)
 
     Parallel routines
     fft_scatt_xy :     39.79s CPU     40.58s WALL ( 1031467 calls)
     fft_scatt_yz :    134.74s CPU    138.55s WALL ( 1031467 calls)

     PAW routines
     PAW_pot      :      0.75s CPU      0.76s WALL (      14 calls)
     PAW_symme    :      0.01s CPU      0.01s WALL (      27 calls)
 
     PWSCF        :   7m 0.49s CPU   7m16.74s WALL

 
   This run was terminated on:  17:54:20  18May2022            

=------------------------------------------------------------------------------=
   JOB DONE.
=------------------------------------------------------------------------------=
