
     Program PWSCF v.6.7MaX starts on 18May2022 at 15:54: 6 

     This program is part of the open-source Quantum ESPRESSO suite
     for quantum simulation of materials; please cite
         "P. Giannozzi et al., J. Phys.:Condens. Matter 21 395502 (2009);
         "P. Giannozzi et al., J. Phys.:Condens. Matter 29 465901 (2017);
          URL http://www.quantum-espresso.org", 
     in publications or presentations arising from this work. More details at
     http://www.quantum-espresso.org/quote

     Parallel version (MPI), running on    48 processors

     MPI processes distributed on     1 nodes
     R & G space division:  proc/nbgrp/npool/nimage =      48
     Waiting for input...
     Reading input from standard input

     Current dimensions of program PWSCF are:
     Max number of different atomic species (ntypx) = 10
     Max number of k-points (npk) =  40000
     Max angular momentum in pseudopotentials (lmaxx) =  3
     file O.pbe-nl-kjpaw_psl.1.0.0.UPF: wavefunction(s)  2S 2P renormalized
     file Cl.pbe-nl-kjpaw_psl.1.0.0.UPF: wavefunction(s)  3S renormalized
     file Nb.pbe-spn-kjpaw_psl.1.0.0.UPF: wavefunction(s)  4S 4P 4D renormalized

     Subspace diagonalization in iterative solution of the eigenvalue problem:
     a serial algorithm will be used

     Message from routine setup:
     using ibrav=0 with symmetry is DISCOURAGED, use correct ibrav instead
 
     Parallelization info
     --------------------
     sticks:   dense  smooth     PW     G-vecs:    dense   smooth      PW
     Min         150      60     19                 4360     1102     208
     Max         151      61     20                 4363     1104     211
     Sum        7247    2901    949               209365    52925   10049
 


     bravais-lattice index     =            0
     lattice parameter (alat)  =      12.6717  a.u.
     unit-cell volume          =     547.9313 (a.u.)^3
     number of atoms/cell      =            4
     number of atomic types    =            3
     number of electrons       =        33.00
     number of Kohn-Sham states=           21
     kinetic-energy cutoff     =      80.0000  Ry
     charge density cutoff     =     800.0000  Ry
     scf convergence threshold =      1.0E-10
     mixing beta               =       0.7000
     number of iterations used =            8  plain     mixing
     Exchange-correlation= SLA  PW   PBX  PBC
                           (   1   4   3   4   0   0   0)

     celldm(1)=  12.671676  celldm(2)=   0.000000  celldm(3)=   0.000000
     celldm(4)=   0.000000  celldm(5)=   0.000000  celldm(6)=   0.000000

     crystal axes: (cart. coord. in units of alat)
               a(1) = (  -0.250426   0.291161   0.923316 )  
               a(2) = (   0.250426  -0.291161   0.923316 )  
               a(3) = (   0.250426   0.291161  -0.923316 )  

     reciprocal axes: (cart. coord. in units 2 pi/alat)
               b(1) = (  0.000000  1.717261  0.541527 )  
               b(2) = (  1.996594  0.000000  0.541527 )  
               b(3) = (  1.996594  1.717261  0.000000 )  


     PseudoPot. # 1 for O  read from file:
     /zfs_data/gutierre/Scratch/Cl2NbO/convergence/cutoff/10x10x10/80/pseudo/O.pbe-nl-kjpaw_psl.1.0.0.UPF
     MD5 check sum: df3ddea38124b4e5de5e1084591730e4
     Pseudo is Projector augmented-wave + core cor, Zval =  6.0
     Generated using 'atomic' code by A. Dal Corso  v.6.7MaX
     Shape of augmentation charge: PSQ
     Using radial grid of 1095 points,  4 beta functions with: 
                l(1) =   0
                l(2) =   0
                l(3) =   1
                l(4) =   1
     Q(r) pseudized with 0 coefficients 


     PseudoPot. # 2 for Cl read from file:
     /zfs_data/gutierre/Scratch/Cl2NbO/convergence/cutoff/10x10x10/80/pseudo/Cl.pbe-nl-kjpaw_psl.1.0.0.UPF
     MD5 check sum: 8cf6bde52c08f6236e0f72a8870677af
     Pseudo is Projector augmented-wave + core cor, Zval =  7.0
     Generated using 'atomic' code by A. Dal Corso  v.6.7MaX
     Shape of augmentation charge: PSQ
     Using radial grid of 1157 points,  4 beta functions with: 
                l(1) =   0
                l(2) =   0
                l(3) =   1
                l(4) =   1
     Q(r) pseudized with 0 coefficients 


     PseudoPot. # 3 for Nb read from file:
     /zfs_data/gutierre/Scratch/Cl2NbO/convergence/cutoff/10x10x10/80/pseudo/Nb.pbe-spn-kjpaw_psl.1.0.0.UPF
     MD5 check sum: 1ec1a3aa7bf3cbf7f7e0d720422bce7a
     Pseudo is Projector augmented-wave + core cor, Zval = 13.0
     Generated using 'atomic' code by A. Dal Corso  v.6.7MaX
     Shape of augmentation charge: PSQ
     Using radial grid of 1227 points,  6 beta functions with: 
                l(1) =   0
                l(2) =   0
                l(3) =   1
                l(4) =   1
                l(5) =   2
                l(6) =   2
     Q(r) pseudized with 0 coefficients 


     atomic species   valence    mass     pseudopotential
        O              6.00    15.99940     O ( 1.00)
        Cl             7.00    35.45150     Cl( 1.00)
        Nb            13.00    92.90637     Nb( 1.00)

      8 Sym. Ops., with inversion, found


                                    s                        frac. trans.

      isym =  1     identity                                     

 cryst.   s( 1) = (     1          0          0      )
                  (     0          1          0      )
                  (     0          0          1      )

 cart.    s( 1) = (  1.0000000  0.0000000  0.0000000 )
                  (  0.0000000  1.0000000  0.0000000 )
                  (  0.0000000  0.0000000  1.0000000 )


      isym =  2     180 deg rotation - cart. axis [0,0,1]        

 cryst.   s( 2) = (     0          1          0      )
                  (     1          0          0      )
                  (    -1         -1         -1      )

 cart.    s( 2) = ( -1.0000000  0.0000000  0.0000000 )
                  (  0.0000000 -1.0000000  0.0000000 )
                  (  0.0000000  0.0000000  1.0000000 )


      isym =  3     180 deg rotation - cart. axis [0,1,0]        

 cryst.   s( 3) = (     0          0          1      )
                  (    -1         -1         -1      )
                  (     1          0          0      )

 cart.    s( 3) = ( -1.0000000  0.0000000  0.0000000 )
                  (  0.0000000  1.0000000  0.0000000 )
                  (  0.0000000  0.0000000 -1.0000000 )


      isym =  4     180 deg rotation - cart. axis [1,0,0]        

 cryst.   s( 4) = (    -1         -1         -1      )
                  (     0          0          1      )
                  (     0          1          0      )

 cart.    s( 4) = (  1.0000000  0.0000000  0.0000000 )
                  (  0.0000000 -1.0000000  0.0000000 )
                  (  0.0000000  0.0000000 -1.0000000 )


      isym =  5     inversion                                    

 cryst.   s( 5) = (    -1          0          0      )
                  (     0         -1          0      )
                  (     0          0         -1      )

 cart.    s( 5) = ( -1.0000000  0.0000000  0.0000000 )
                  (  0.0000000 -1.0000000  0.0000000 )
                  (  0.0000000  0.0000000 -1.0000000 )


      isym =  6     inv. 180 deg rotation - cart. axis [0,0,1]   

 cryst.   s( 6) = (     0         -1          0      )
                  (    -1          0          0      )
                  (     1          1          1      )

 cart.    s( 6) = (  1.0000000  0.0000000  0.0000000 )
                  (  0.0000000  1.0000000  0.0000000 )
                  (  0.0000000  0.0000000 -1.0000000 )


      isym =  7     inv. 180 deg rotation - cart. axis [0,1,0]   

 cryst.   s( 7) = (     0          0         -1      )
                  (     1          1          1      )
                  (    -1          0          0      )

 cart.    s( 7) = (  1.0000000  0.0000000  0.0000000 )
                  (  0.0000000 -1.0000000  0.0000000 )
                  (  0.0000000  0.0000000  1.0000000 )


      isym =  8     inv. 180 deg rotation - cart. axis [1,0,0]   

 cryst.   s( 8) = (     1          1          1      )
                  (     0          0         -1      )
                  (     0         -1          0      )

 cart.    s( 8) = ( -1.0000000  0.0000000  0.0000000 )
                  (  0.0000000  1.0000000  0.0000000 )
                  (  0.0000000  0.0000000  1.0000000 )


   Cartesian axes

     site n.     atom                  positions (alat units)
         1           O   tau(   1) = (   0.0000000   0.2911613   0.0000000  )
         2           Cl  tau(   2) = (  -0.0000000   0.2911613   0.6365338  )
         3           Cl  tau(   3) = (   0.2504264  -0.0000000   0.2867819  )
         4           Nb  tau(   4) = (   0.0000000   0.0000000   0.0000000  )

   Crystallographic axes

     site n.     atom                  positions (cryst. coord.)
         1           O   tau(   1) = (  0.5000000  0.0000000  0.5000000  )
         2           Cl  tau(   2) = (  0.8447000  0.3447000  0.5000000  )
         3           Cl  tau(   3) = (  0.1553000  0.6553000  0.5000000  )
         4           Nb  tau(   4) = (  0.0000000  0.0000000  0.0000000  )

     number of k points=   171  Methfessel-Paxton smearing, width (Ry)=  0.0120
                       cart. coord. in units 2pi/alat
        k(    1) = (   0.0000000   0.0000000   0.0000000), wk =   0.0020000
        k(    2) = (   0.1996594   0.1717261   0.0000000), wk =   0.0080000
        k(    3) = (   0.3993189   0.3434523   0.0000000), wk =   0.0080000
        k(    4) = (   0.5989783   0.5151784   0.0000000), wk =   0.0080000
        k(    5) = (   0.7986377   0.6869045   0.0000000), wk =   0.0080000
        k(    6) = (  -0.9982971  -0.8586307   0.0000000), wk =   0.0040000
        k(    7) = (   0.1996594   0.0000000   0.0541527), wk =   0.0080000
        k(    8) = (   0.3993189   0.1717261   0.0541527), wk =   0.0160000
        k(    9) = (   0.5989783   0.3434523   0.0541527), wk =   0.0160000
        k(   10) = (   0.7986377   0.5151784   0.0541527), wk =   0.0160000
        k(   11) = (   0.9982971   0.6869045   0.0541527), wk =   0.0160000
        k(   12) = (  -0.7986377  -0.8586307   0.0541527), wk =   0.0160000
        k(   13) = (  -0.5989783  -0.6869045   0.0541527), wk =   0.0160000
        k(   14) = (  -0.3993189  -0.5151784   0.0541527), wk =   0.0160000
        k(   15) = (  -0.1996594  -0.3434523   0.0541527), wk =   0.0160000
        k(   16) = (   0.0000000  -0.1717261   0.0541527), wk =   0.0080000
        k(   17) = (   0.3993189   0.0000000   0.1083053), wk =   0.0080000
        k(   18) = (   0.5989783   0.1717261   0.1083053), wk =   0.0160000
        k(   19) = (   0.7986377   0.3434523   0.1083053), wk =   0.0160000
        k(   20) = (   0.9982971   0.5151784   0.1083053), wk =   0.0160000
        k(   21) = (   1.1979566   0.6869045   0.1083053), wk =   0.0160000
        k(   22) = (  -0.5989783  -0.8586307   0.1083053), wk =   0.0160000
        k(   23) = (  -0.3993189  -0.6869045   0.1083053), wk =   0.0160000
        k(   24) = (  -0.1996594  -0.5151784   0.1083053), wk =   0.0160000
        k(   25) = (   0.0000000  -0.3434523   0.1083053), wk =   0.0080000
        k(   26) = (   0.1996594  -0.1717261   0.1083053), wk =   0.0160000
        k(   27) = (   0.5989783   0.0000000   0.1624580), wk =   0.0080000
        k(   28) = (   0.7986377   0.1717261   0.1624580), wk =   0.0160000
        k(   29) = (   0.9982971   0.3434523   0.1624580), wk =   0.0160000
        k(   30) = (   1.1979566   0.5151784   0.1624580), wk =   0.0160000
        k(   31) = (   1.3976160   0.6869045   0.1624580), wk =   0.0160000
        k(   32) = (  -0.3993189  -0.8586307   0.1624580), wk =   0.0160000
        k(   33) = (  -0.1996594  -0.6869045   0.1624580), wk =   0.0160000
        k(   34) = (  -0.0000000  -0.5151784   0.1624580), wk =   0.0080000
        k(   35) = (   0.1996594  -0.3434523   0.1624580), wk =   0.0160000
        k(   36) = (   0.3993189  -0.1717261   0.1624580), wk =   0.0160000
        k(   37) = (   0.7986377   0.0000000   0.2166107), wk =   0.0080000
        k(   38) = (   0.9982971   0.1717261   0.2166107), wk =   0.0160000
        k(   39) = (   1.1979566   0.3434523   0.2166107), wk =   0.0160000
        k(   40) = (   1.3976160   0.5151784   0.2166107), wk =   0.0160000
        k(   41) = (   1.5972754   0.6869045   0.2166107), wk =   0.0160000
        k(   42) = (  -0.1996594  -0.8586307   0.2166107), wk =   0.0160000
        k(   43) = (   0.0000000  -0.6869045   0.2166107), wk =   0.0080000
        k(   44) = (   0.1996594  -0.5151784   0.2166107), wk =   0.0160000
        k(   45) = (   0.3993189  -0.3434523   0.2166107), wk =   0.0160000
        k(   46) = (   0.5989783  -0.1717261   0.2166107), wk =   0.0160000
        k(   47) = (  -0.9982971   0.0000000  -0.2707633), wk =   0.0040000
        k(   48) = (  -0.7986377   0.1717261  -0.2707633), wk =   0.0160000
        k(   49) = (  -0.5989783   0.3434523  -0.2707633), wk =   0.0160000
        k(   50) = (  -0.3993189   0.5151784  -0.2707633), wk =   0.0160000
        k(   51) = (  -0.1996594   0.6869045  -0.2707633), wk =   0.0160000
        k(   52) = (  -1.9965943  -0.8586307  -0.2707633), wk =   0.0040000
        k(   53) = (   0.3993189   0.3434523   0.1083053), wk =   0.0160000
        k(   54) = (   0.5989783   0.5151784   0.1083053), wk =   0.0160000
        k(   55) = (   0.7986377   0.6869045   0.1083053), wk =   0.0160000
        k(   56) = (   0.9982971   0.8586307   0.1083053), wk =   0.0080000
        k(   57) = (   0.0000000   0.0000000   0.1083053), wk =   0.0040000
        k(   58) = (   0.5989783   0.3434523   0.1624580), wk =   0.0160000
        k(   59) = (   0.7986377   0.5151784   0.1624580), wk =   0.0160000
        k(   60) = (   0.9982971   0.6869045   0.1624580), wk =   0.0160000
        k(   61) = (   1.1979566   0.8586307   0.1624580), wk =   0.0160000
        k(   62) = (  -0.5989783  -0.6869045   0.1624580), wk =   0.0160000
        k(   63) = (  -0.3993189  -0.5151784   0.1624580), wk =   0.0160000
        k(   64) = (   0.0000000  -0.1717261   0.1624580), wk =   0.0080000
        k(   65) = (   0.1996594   0.0000000   0.1624580), wk =   0.0080000
        k(   66) = (   0.7986377   0.3434523   0.2166107), wk =   0.0160000
        k(   67) = (   0.9982971   0.5151784   0.2166107), wk =   0.0160000
        k(   68) = (   1.1979566   0.6869045   0.2166107), wk =   0.0160000
        k(   69) = (   1.3976160   0.8586307   0.2166107), wk =   0.0160000
        k(   70) = (  -0.3993189  -0.6869045   0.2166107), wk =   0.0160000
        k(   71) = (  -0.0000000  -0.3434523   0.2166107), wk =   0.0080000
        k(   72) = (   0.1996594  -0.1717261   0.2166107), wk =   0.0160000
        k(   73) = (   0.3993189   0.0000000   0.2166107), wk =   0.0080000
        k(   74) = (   0.9982971   0.3434523   0.2707633), wk =   0.0080000
        k(   75) = (   1.1979566   0.5151784   0.2707633), wk =   0.0160000
        k(   76) = (   1.3976160   0.6869045   0.2707633), wk =   0.0160000
        k(   77) = (   1.5972754   0.8586307   0.2707633), wk =   0.0080000
        k(   78) = (   0.0000000  -0.5151784   0.2707633), wk =   0.0080000
        k(   79) = (   0.1996594  -0.3434523   0.2707633), wk =   0.0160000
        k(   80) = (   0.3993189  -0.1717261   0.2707633), wk =   0.0160000
        k(   81) = (   0.5989783   0.0000000   0.2707633), wk =   0.0080000
        k(   82) = (  -0.5989783   0.5151784  -0.2166107), wk =   0.0160000
        k(   83) = (  -1.9965943  -0.6869045  -0.2166107), wk =   0.0080000
        k(   84) = (  -1.7969349  -0.5151784  -0.2166107), wk =   0.0160000
        k(   85) = (  -1.5972754  -0.3434523  -0.2166107), wk =   0.0160000
        k(   86) = (  -1.3976160  -0.1717261  -0.2166107), wk =   0.0160000
        k(   87) = (  -1.1979566   0.0000000  -0.2166107), wk =   0.0080000
        k(   88) = (   0.0000000   0.8586307  -0.1624580), wk =   0.0080000
        k(   89) = (  -1.7969349  -0.6869045  -0.1624580), wk =   0.0160000
        k(   90) = (  -1.5972754  -0.5151784  -0.1624580), wk =   0.0160000
        k(   91) = (  -1.3976160  -0.3434523  -0.1624580), wk =   0.0160000
        k(   92) = (  -1.1979566  -0.1717261  -0.1624580), wk =   0.0160000
        k(   93) = (  -0.9982971   0.0000000  -0.1624580), wk =   0.0080000
        k(   94) = (  -0.0000000   0.6869045  -0.1083053), wk =   0.0080000
        k(   95) = (   0.1996594   0.8586307  -0.1083053), wk =   0.0160000
        k(   96) = (  -1.5972754  -0.6869045  -0.1083053), wk =   0.0160000
        k(   97) = (  -1.3976160  -0.5151784  -0.1083053), wk =   0.0160000
        k(   98) = (  -1.1979566  -0.3434523  -0.1083053), wk =   0.0160000
        k(   99) = (  -0.9982971  -0.1717261  -0.1083053), wk =   0.0160000
        k(  100) = (  -0.7986377   0.0000000  -0.1083053), wk =   0.0080000
        k(  101) = (   0.0000000   0.5151784  -0.0541527), wk =   0.0080000
        k(  102) = (   0.1996594   0.6869045  -0.0541527), wk =   0.0160000
        k(  103) = (   0.3993189   0.8586307  -0.0541527), wk =   0.0160000
        k(  104) = (  -1.3976160  -0.6869045  -0.0541527), wk =   0.0160000
        k(  105) = (  -1.1979566  -0.5151784  -0.0541527), wk =   0.0160000
        k(  106) = (  -0.9982971  -0.3434523  -0.0541527), wk =   0.0160000
        k(  107) = (  -0.7986377  -0.1717261  -0.0541527), wk =   0.0160000
        k(  108) = (  -0.5989783   0.0000000  -0.0541527), wk =   0.0080000
        k(  109) = (   0.0000000   0.3434523   0.0000000), wk =   0.0040000
        k(  110) = (   0.1996594   0.5151784   0.0000000), wk =   0.0080000
        k(  111) = (   0.3993189   0.6869045   0.0000000), wk =   0.0080000
        k(  112) = (   0.5989783   0.8586307   0.0000000), wk =   0.0080000
        k(  113) = (  -1.1979566  -0.6869045   0.0000000), wk =   0.0080000
        k(  114) = (  -0.9982971  -0.5151784   0.0000000), wk =   0.0080000
        k(  115) = (  -0.7986377  -0.3434523   0.0000000), wk =   0.0080000
        k(  116) = (  -0.5989783  -0.1717261   0.0000000), wk =   0.0080000
        k(  117) = (  -0.3993189   0.0000000   0.0000000), wk =   0.0040000
        k(  118) = (   0.7986377   0.6869045   0.2166107), wk =   0.0160000
        k(  119) = (   0.9982971   0.8586307   0.2166107), wk =   0.0080000
        k(  120) = (   0.0000000   0.0000000   0.2166107), wk =   0.0040000
        k(  121) = (   0.9982971   0.6869045   0.2707633), wk =   0.0080000
        k(  122) = (   1.1979566   0.8586307   0.2707633), wk =   0.0080000
        k(  123) = (  -0.0000000  -0.1717261   0.2707633), wk =   0.0080000
        k(  124) = (   0.1996594   0.0000000   0.2707633), wk =   0.0080000
        k(  125) = (   0.0000000  -0.3434523   0.3249160), wk =   0.0080000
        k(  126) = (   0.1996594  -0.1717261   0.3249160), wk =   0.0160000
        k(  127) = (   0.3993189   0.0000000   0.3249160), wk =   0.0080000
        k(  128) = (  -1.9965943  -0.5151784  -0.1624580), wk =   0.0080000
        k(  129) = (  -1.7969349  -0.3434523  -0.1624580), wk =   0.0160000
        k(  130) = (  -1.5972754  -0.1717261  -0.1624580), wk =   0.0160000
        k(  131) = (  -1.3976160   0.0000000  -0.1624580), wk =   0.0080000
        k(  132) = (   0.0000000   1.0303568  -0.1083053), wk =   0.0080000
        k(  133) = (  -1.7969349  -0.5151784  -0.1083053), wk =   0.0160000
        k(  134) = (  -1.5972754  -0.3434523  -0.1083053), wk =   0.0160000
        k(  135) = (  -1.3976160  -0.1717261  -0.1083053), wk =   0.0160000
        k(  136) = (  -1.1979566   0.0000000  -0.1083053), wk =   0.0080000
        k(  137) = (  -0.0000000   0.8586307  -0.0541527), wk =   0.0080000
        k(  138) = (   0.1996594   1.0303568  -0.0541527), wk =   0.0160000
        k(  139) = (  -1.5972754  -0.5151784  -0.0541527), wk =   0.0160000
        k(  140) = (  -1.3976160  -0.3434523  -0.0541527), wk =   0.0160000
        k(  141) = (  -1.1979566  -0.1717261  -0.0541527), wk =   0.0160000
        k(  142) = (  -0.9982971   0.0000000  -0.0541527), wk =   0.0080000
        k(  143) = (   0.0000000   0.6869045   0.0000000), wk =   0.0040000
        k(  144) = (   0.1996594   0.8586307   0.0000000), wk =   0.0080000
        k(  145) = (   0.3993189   1.0303568   0.0000000), wk =   0.0080000
        k(  146) = (  -1.3976160  -0.5151784   0.0000000), wk =   0.0080000
        k(  147) = (  -1.1979566  -0.3434523   0.0000000), wk =   0.0080000
        k(  148) = (  -0.9982971  -0.1717261   0.0000000), wk =   0.0080000
        k(  149) = (  -0.7986377   0.0000000   0.0000000), wk =   0.0040000
        k(  150) = (  -0.0000000   0.0000000   0.3249160), wk =   0.0040000
        k(  151) = (   0.0000000  -0.1717261   0.3790686), wk =   0.0080000
        k(  152) = (   0.1996594   0.0000000   0.3790686), wk =   0.0080000
        k(  153) = (  -1.9965943  -0.3434523  -0.1083053), wk =   0.0080000
        k(  154) = (  -1.7969349  -0.1717261  -0.1083053), wk =   0.0160000
        k(  155) = (  -1.5972754   0.0000000  -0.1083053), wk =   0.0080000
        k(  156) = (   0.0000000   1.2020829  -0.0541527), wk =   0.0080000
        k(  157) = (  -1.7969349  -0.3434523  -0.0541527), wk =   0.0160000
        k(  158) = (  -1.5972754  -0.1717261  -0.0541527), wk =   0.0160000
        k(  159) = (  -1.3976160   0.0000000  -0.0541527), wk =   0.0080000
        k(  160) = (  -0.0000000   1.0303568  -0.0000000), wk =   0.0040000
        k(  161) = (   0.1996594   1.2020829  -0.0000000), wk =   0.0080000
        k(  162) = (  -1.5972754  -0.3434523  -0.0000000), wk =   0.0080000
        k(  163) = (  -1.3976160  -0.1717261  -0.0000000), wk =   0.0080000
        k(  164) = (  -1.1979566   0.0000000  -0.0000000), wk =   0.0040000
        k(  165) = (   0.0000000   0.0000000   0.4332213), wk =   0.0040000
        k(  166) = (  -1.9965943  -0.1717261  -0.0541527), wk =   0.0080000
        k(  167) = (  -1.7969349   0.0000000  -0.0541527), wk =   0.0080000
        k(  168) = (   0.0000000   1.3738091   0.0000000), wk =   0.0040000
        k(  169) = (  -1.7969349  -0.1717261   0.0000000), wk =   0.0080000
        k(  170) = (  -1.5972754   0.0000000   0.0000000), wk =   0.0040000
        k(  171) = (  -1.9965943  -1.7172613  -0.5415266), wk =   0.0020000

                       cryst. coord.
        k(    1) = (   0.0000000   0.0000000   0.0000000), wk =   0.0020000
        k(    2) = (  -0.0000000   0.0000000   0.1000000), wk =   0.0080000
        k(    3) = (  -0.0000000   0.0000000   0.2000000), wk =   0.0080000
        k(    4) = (   0.0000000   0.0000000   0.3000000), wk =   0.0080000
        k(    5) = (  -0.0000000   0.0000000   0.4000000), wk =   0.0080000
        k(    6) = (   0.0000000   0.0000000  -0.5000000), wk =   0.0040000
        k(    7) = (  -0.0000000   0.1000000   0.0000000), wk =   0.0080000
        k(    8) = (  -0.0000000   0.1000000   0.1000000), wk =   0.0160000
        k(    9) = (  -0.0000000   0.1000000   0.2000000), wk =   0.0160000
        k(   10) = (  -0.0000000   0.1000000   0.3000000), wk =   0.0160000
        k(   11) = (  -0.0000000   0.1000000   0.4000000), wk =   0.0160000
        k(   12) = (   0.0000000   0.1000000  -0.5000000), wk =   0.0160000
        k(   13) = (   0.0000000   0.1000000  -0.4000000), wk =   0.0160000
        k(   14) = (   0.0000000   0.1000000  -0.3000000), wk =   0.0160000
        k(   15) = (   0.0000000   0.1000000  -0.2000000), wk =   0.0160000
        k(   16) = (   0.0000000   0.1000000  -0.1000000), wk =   0.0080000
        k(   17) = (  -0.0000000   0.2000000   0.0000000), wk =   0.0080000
        k(   18) = (  -0.0000000   0.2000000   0.1000000), wk =   0.0160000
        k(   19) = (  -0.0000000   0.2000000   0.2000000), wk =   0.0160000
        k(   20) = (   0.0000000   0.2000000   0.3000000), wk =   0.0160000
        k(   21) = (  -0.0000000   0.2000000   0.4000000), wk =   0.0160000
        k(   22) = (   0.0000000   0.2000000  -0.5000000), wk =   0.0160000
        k(   23) = (   0.0000000   0.2000000  -0.4000000), wk =   0.0160000
        k(   24) = (   0.0000000   0.2000000  -0.3000000), wk =   0.0160000
        k(   25) = (   0.0000000   0.2000000  -0.2000000), wk =   0.0080000
        k(   26) = (   0.0000000   0.2000000  -0.1000000), wk =   0.0160000
        k(   27) = (   0.0000000   0.3000000   0.0000000), wk =   0.0080000
        k(   28) = (  -0.0000000   0.3000000   0.1000000), wk =   0.0160000
        k(   29) = (   0.0000000   0.3000000   0.2000000), wk =   0.0160000
        k(   30) = (   0.0000000   0.3000000   0.3000000), wk =   0.0160000
        k(   31) = (  -0.0000000   0.3000000   0.4000000), wk =   0.0160000
        k(   32) = (   0.0000000   0.3000000  -0.5000000), wk =   0.0160000
        k(   33) = (   0.0000000   0.3000000  -0.4000000), wk =   0.0160000
        k(   34) = (   0.0000000   0.3000000  -0.3000000), wk =   0.0080000
        k(   35) = (   0.0000000   0.3000000  -0.2000000), wk =   0.0160000
        k(   36) = (   0.0000000   0.3000000  -0.1000000), wk =   0.0160000
        k(   37) = (  -0.0000000   0.4000000   0.0000000), wk =   0.0080000
        k(   38) = (  -0.0000000   0.4000000   0.1000000), wk =   0.0160000
        k(   39) = (  -0.0000000   0.4000000   0.2000000), wk =   0.0160000
        k(   40) = (  -0.0000000   0.4000000   0.3000000), wk =   0.0160000
        k(   41) = (  -0.0000000   0.4000000   0.4000000), wk =   0.0160000
        k(   42) = (   0.0000000   0.4000000  -0.5000000), wk =   0.0160000
        k(   43) = (   0.0000000   0.4000000  -0.4000000), wk =   0.0080000
        k(   44) = (   0.0000000   0.4000000  -0.3000000), wk =   0.0160000
        k(   45) = (   0.0000000   0.4000000  -0.2000000), wk =   0.0160000
        k(   46) = (  -0.0000000   0.4000000  -0.1000000), wk =   0.0160000
        k(   47) = (   0.0000000  -0.5000000   0.0000000), wk =   0.0040000
        k(   48) = (   0.0000000  -0.5000000   0.1000000), wk =   0.0160000
        k(   49) = (   0.0000000  -0.5000000   0.2000000), wk =   0.0160000
        k(   50) = (   0.0000000  -0.5000000   0.3000000), wk =   0.0160000
        k(   51) = (   0.0000000  -0.5000000   0.4000000), wk =   0.0160000
        k(   52) = (   0.0000000  -0.5000000  -0.5000000), wk =   0.0040000
        k(   53) = (   0.1000000   0.1000000   0.1000000), wk =   0.0160000
        k(   54) = (   0.1000000   0.1000000   0.2000000), wk =   0.0160000
        k(   55) = (   0.1000000   0.1000000   0.3000000), wk =   0.0160000
        k(   56) = (   0.1000000   0.1000000   0.4000000), wk =   0.0080000
        k(   57) = (   0.1000000   0.1000000  -0.1000000), wk =   0.0040000
        k(   58) = (   0.1000000   0.2000000   0.1000000), wk =   0.0160000
        k(   59) = (   0.1000000   0.2000000   0.2000000), wk =   0.0160000
        k(   60) = (   0.1000000   0.2000000   0.3000000), wk =   0.0160000
        k(   61) = (   0.1000000   0.2000000   0.4000000), wk =   0.0160000
        k(   62) = (   0.1000000   0.2000000  -0.5000000), wk =   0.0160000
        k(   63) = (   0.1000000   0.2000000  -0.4000000), wk =   0.0160000
        k(   64) = (   0.1000000   0.2000000  -0.2000000), wk =   0.0080000
        k(   65) = (   0.1000000   0.2000000  -0.1000000), wk =   0.0080000
        k(   66) = (   0.1000000   0.3000000   0.1000000), wk =   0.0160000
        k(   67) = (   0.1000000   0.3000000   0.2000000), wk =   0.0160000
        k(   68) = (   0.1000000   0.3000000   0.3000000), wk =   0.0160000
        k(   69) = (   0.1000000   0.3000000   0.4000000), wk =   0.0160000
        k(   70) = (   0.1000000   0.3000000  -0.5000000), wk =   0.0160000
        k(   71) = (   0.1000000   0.3000000  -0.3000000), wk =   0.0080000
        k(   72) = (   0.1000000   0.3000000  -0.2000000), wk =   0.0160000
        k(   73) = (   0.1000000   0.3000000  -0.1000000), wk =   0.0080000
        k(   74) = (   0.1000000   0.4000000   0.1000000), wk =   0.0080000
        k(   75) = (   0.1000000   0.4000000   0.2000000), wk =   0.0160000
        k(   76) = (   0.1000000   0.4000000   0.3000000), wk =   0.0160000
        k(   77) = (   0.1000000   0.4000000   0.4000000), wk =   0.0080000
        k(   78) = (   0.1000000   0.4000000  -0.4000000), wk =   0.0080000
        k(   79) = (   0.1000000   0.4000000  -0.3000000), wk =   0.0160000
        k(   80) = (   0.1000000   0.4000000  -0.2000000), wk =   0.0160000
        k(   81) = (   0.1000000   0.4000000  -0.1000000), wk =   0.0080000
        k(   82) = (   0.1000000  -0.5000000   0.2000000), wk =   0.0160000
        k(   83) = (   0.1000000  -0.5000000  -0.5000000), wk =   0.0080000
        k(   84) = (   0.1000000  -0.5000000  -0.4000000), wk =   0.0160000
        k(   85) = (   0.1000000  -0.5000000  -0.3000000), wk =   0.0160000
        k(   86) = (   0.1000000  -0.5000000  -0.2000000), wk =   0.0160000
        k(   87) = (   0.1000000  -0.5000000  -0.1000000), wk =   0.0080000
        k(   88) = (   0.1000000  -0.4000000   0.4000000), wk =   0.0080000
        k(   89) = (   0.1000000  -0.4000000  -0.5000000), wk =   0.0160000
        k(   90) = (   0.1000000  -0.4000000  -0.4000000), wk =   0.0160000
        k(   91) = (   0.1000000  -0.4000000  -0.3000000), wk =   0.0160000
        k(   92) = (   0.1000000  -0.4000000  -0.2000000), wk =   0.0160000
        k(   93) = (   0.1000000  -0.4000000  -0.1000000), wk =   0.0080000
        k(   94) = (   0.1000000  -0.3000000   0.3000000), wk =   0.0080000
        k(   95) = (   0.1000000  -0.3000000   0.4000000), wk =   0.0160000
        k(   96) = (   0.1000000  -0.3000000  -0.5000000), wk =   0.0160000
        k(   97) = (   0.1000000  -0.3000000  -0.4000000), wk =   0.0160000
        k(   98) = (   0.1000000  -0.3000000  -0.3000000), wk =   0.0160000
        k(   99) = (   0.1000000  -0.3000000  -0.2000000), wk =   0.0160000
        k(  100) = (   0.1000000  -0.3000000  -0.1000000), wk =   0.0080000
        k(  101) = (   0.1000000  -0.2000000   0.2000000), wk =   0.0080000
        k(  102) = (   0.1000000  -0.2000000   0.3000000), wk =   0.0160000
        k(  103) = (   0.1000000  -0.2000000   0.4000000), wk =   0.0160000
        k(  104) = (   0.1000000  -0.2000000  -0.5000000), wk =   0.0160000
        k(  105) = (   0.1000000  -0.2000000  -0.4000000), wk =   0.0160000
        k(  106) = (   0.1000000  -0.2000000  -0.3000000), wk =   0.0160000
        k(  107) = (   0.1000000  -0.2000000  -0.2000000), wk =   0.0160000
        k(  108) = (   0.1000000  -0.2000000  -0.1000000), wk =   0.0080000
        k(  109) = (   0.1000000  -0.1000000   0.1000000), wk =   0.0040000
        k(  110) = (   0.1000000  -0.1000000   0.2000000), wk =   0.0080000
        k(  111) = (   0.1000000  -0.1000000   0.3000000), wk =   0.0080000
        k(  112) = (   0.1000000  -0.1000000   0.4000000), wk =   0.0080000
        k(  113) = (   0.1000000  -0.1000000  -0.5000000), wk =   0.0080000
        k(  114) = (   0.1000000  -0.1000000  -0.4000000), wk =   0.0080000
        k(  115) = (   0.1000000  -0.1000000  -0.3000000), wk =   0.0080000
        k(  116) = (   0.1000000  -0.1000000  -0.2000000), wk =   0.0080000
        k(  117) = (   0.1000000  -0.1000000  -0.1000000), wk =   0.0040000
        k(  118) = (   0.2000000   0.2000000   0.2000000), wk =   0.0160000
        k(  119) = (   0.2000000   0.2000000   0.3000000), wk =   0.0080000
        k(  120) = (   0.2000000   0.2000000  -0.2000000), wk =   0.0040000
        k(  121) = (   0.2000000   0.3000000   0.2000000), wk =   0.0080000
        k(  122) = (   0.2000000   0.3000000   0.3000000), wk =   0.0080000
        k(  123) = (   0.2000000   0.3000000  -0.3000000), wk =   0.0080000
        k(  124) = (   0.2000000   0.3000000  -0.2000000), wk =   0.0080000
        k(  125) = (   0.2000000   0.4000000  -0.4000000), wk =   0.0080000
        k(  126) = (   0.2000000   0.4000000  -0.3000000), wk =   0.0160000
        k(  127) = (   0.2000000   0.4000000  -0.2000000), wk =   0.0080000
        k(  128) = (   0.2000000  -0.5000000  -0.5000000), wk =   0.0080000
        k(  129) = (   0.2000000  -0.5000000  -0.4000000), wk =   0.0160000
        k(  130) = (   0.2000000  -0.5000000  -0.3000000), wk =   0.0160000
        k(  131) = (   0.2000000  -0.5000000  -0.2000000), wk =   0.0080000
        k(  132) = (   0.2000000  -0.4000000   0.4000000), wk =   0.0080000
        k(  133) = (   0.2000000  -0.4000000  -0.5000000), wk =   0.0160000
        k(  134) = (   0.2000000  -0.4000000  -0.4000000), wk =   0.0160000
        k(  135) = (   0.2000000  -0.4000000  -0.3000000), wk =   0.0160000
        k(  136) = (   0.2000000  -0.4000000  -0.2000000), wk =   0.0080000
        k(  137) = (   0.2000000  -0.3000000   0.3000000), wk =   0.0080000
        k(  138) = (   0.2000000  -0.3000000   0.4000000), wk =   0.0160000
        k(  139) = (   0.2000000  -0.3000000  -0.5000000), wk =   0.0160000
        k(  140) = (   0.2000000  -0.3000000  -0.4000000), wk =   0.0160000
        k(  141) = (   0.2000000  -0.3000000  -0.3000000), wk =   0.0160000
        k(  142) = (   0.2000000  -0.3000000  -0.2000000), wk =   0.0080000
        k(  143) = (   0.2000000  -0.2000000   0.2000000), wk =   0.0040000
        k(  144) = (   0.2000000  -0.2000000   0.3000000), wk =   0.0080000
        k(  145) = (   0.2000000  -0.2000000   0.4000000), wk =   0.0080000
        k(  146) = (   0.2000000  -0.2000000  -0.5000000), wk =   0.0080000
        k(  147) = (   0.2000000  -0.2000000  -0.4000000), wk =   0.0080000
        k(  148) = (   0.2000000  -0.2000000  -0.3000000), wk =   0.0080000
        k(  149) = (   0.2000000  -0.2000000  -0.2000000), wk =   0.0040000
        k(  150) = (   0.3000000   0.3000000  -0.3000000), wk =   0.0040000
        k(  151) = (   0.3000000   0.4000000  -0.4000000), wk =   0.0080000
        k(  152) = (   0.3000000   0.4000000  -0.3000000), wk =   0.0080000
        k(  153) = (   0.3000000  -0.5000000  -0.5000000), wk =   0.0080000
        k(  154) = (   0.3000000  -0.5000000  -0.4000000), wk =   0.0160000
        k(  155) = (   0.3000000  -0.5000000  -0.3000000), wk =   0.0080000
        k(  156) = (   0.3000000  -0.4000000   0.4000000), wk =   0.0080000
        k(  157) = (   0.3000000  -0.4000000  -0.5000000), wk =   0.0160000
        k(  158) = (   0.3000000  -0.4000000  -0.4000000), wk =   0.0160000
        k(  159) = (   0.3000000  -0.4000000  -0.3000000), wk =   0.0080000
        k(  160) = (   0.3000000  -0.3000000   0.3000000), wk =   0.0040000
        k(  161) = (   0.3000000  -0.3000000   0.4000000), wk =   0.0080000
        k(  162) = (   0.3000000  -0.3000000  -0.5000000), wk =   0.0080000
        k(  163) = (   0.3000000  -0.3000000  -0.4000000), wk =   0.0080000
        k(  164) = (   0.3000000  -0.3000000  -0.3000000), wk =   0.0040000
        k(  165) = (   0.4000000   0.4000000  -0.4000000), wk =   0.0040000
        k(  166) = (   0.4000000  -0.5000000  -0.5000000), wk =   0.0080000
        k(  167) = (   0.4000000  -0.5000000  -0.4000000), wk =   0.0080000
        k(  168) = (   0.4000000  -0.4000000   0.4000000), wk =   0.0040000
        k(  169) = (   0.4000000  -0.4000000  -0.5000000), wk =   0.0080000
        k(  170) = (   0.4000000  -0.4000000  -0.4000000), wk =   0.0040000
        k(  171) = (  -0.5000000  -0.5000000  -0.5000000), wk =   0.0020000

     Dense  grid:   209365 G-vectors     FFT dimensions: ( 120, 120, 120)

     Smooth grid:    52925 G-vectors     FFT dimensions: (  75,  75,  75)

     Dynamical RAM for                 wfc:       0.04 MB

     Dynamical RAM for     wfc (w. buffer):       7.55 MB

     Dynamical RAM for           str. fact:       0.20 MB

     Dynamical RAM for           local pot:       0.00 MB

     Dynamical RAM for          nlocal pot:       0.09 MB

     Dynamical RAM for                qrad:       6.81 MB

     Dynamical RAM for          rho,v,vnew:       1.19 MB

     Dynamical RAM for               rhoin:       0.40 MB

     Dynamical RAM for            rho*nmix:       1.07 MB

     Dynamical RAM for           G-vectors:       0.26 MB

     Dynamical RAM for          h,s,v(r/c):       0.08 MB

     Dynamical RAM for          <psi|beta>:       0.01 MB

     Dynamical RAM for                 psi:       0.09 MB

     Dynamical RAM for                hpsi:       0.09 MB

     Dynamical RAM for                spsi:       0.09 MB

     Dynamical RAM for      wfcinit/wfcrot:       0.12 MB

     Dynamical RAM for           addusdens:      12.52 MB

     Dynamical RAM for          addusforce:      12.69 MB

     Dynamical RAM for         addusstress:      13.38 MB

     Estimated static dynamical RAM per process >      19.47 MB

     Estimated max dynamical RAM per process >      32.85 MB

     Estimated total dynamical RAM >       1.54 GB

     Initial potential from superposition of free atoms

     starting charge   32.99867, renormalised to   33.00000
     Starting wfcs are   25 randomized atomic wfcs
     Checking if some PAW data can be deallocated... 
       PAW data deallocated on   36 nodes for type:  1
       PAW data deallocated on   24 nodes for type:  2
       PAW data deallocated on   36 nodes for type:  3

     total cpu time spent up to now is        4.2 secs

     Self-consistent Calculation

     iteration #  1     ecut=    80.00 Ry     beta= 0.70
     Davidson diagonalization with overlap
     ethr =  1.00E-02,  avg # of iterations =  2.2

     total cpu time spent up to now is       11.9 secs

     total energy              =    -534.52915702 Ry
     estimated scf accuracy    <       0.75998408 Ry

     iteration #  2     ecut=    80.00 Ry     beta= 0.70
     Davidson diagonalization with overlap
     ethr =  2.30E-03,  avg # of iterations =  3.7

     total cpu time spent up to now is       20.9 secs

     total energy              =    -533.59190257 Ry
     estimated scf accuracy    <       8.54037455 Ry

     iteration #  3     ecut=    80.00 Ry     beta= 0.70
     Davidson diagonalization with overlap
     ethr =  2.30E-03,  avg # of iterations =  3.5

     total cpu time spent up to now is       29.4 secs

     total energy              =    -534.97433833 Ry
     estimated scf accuracy    <       0.12710192 Ry

     iteration #  4     ecut=    80.00 Ry     beta= 0.70
     Davidson diagonalization with overlap
     ethr =  3.85E-04,  avg # of iterations =  1.3

     total cpu time spent up to now is       36.3 secs

     total energy              =    -534.96674910 Ry
     estimated scf accuracy    <       0.06118321 Ry

     iteration #  5     ecut=    80.00 Ry     beta= 0.70
     Davidson diagonalization with overlap
     ethr =  1.85E-04,  avg # of iterations =  1.5

     total cpu time spent up to now is       43.1 secs

     total energy              =    -534.96358574 Ry
     estimated scf accuracy    <       0.02317019 Ry

     iteration #  6     ecut=    80.00 Ry     beta= 0.70
     Davidson diagonalization with overlap
     ethr =  7.02E-05,  avg # of iterations =  1.9

     total cpu time spent up to now is       50.2 secs

     total energy              =    -534.96595053 Ry
     estimated scf accuracy    <       0.00081351 Ry

     iteration #  7     ecut=    80.00 Ry     beta= 0.70
     Davidson diagonalization with overlap
     ethr =  2.47E-06,  avg # of iterations =  3.3

     total cpu time spent up to now is       59.1 secs

     total energy              =    -534.96619150 Ry
     estimated scf accuracy    <       0.00014666 Ry

     iteration #  8     ecut=    80.00 Ry     beta= 0.70
     Davidson diagonalization with overlap
     ethr =  4.44E-07,  avg # of iterations =  1.6

     total cpu time spent up to now is       66.1 secs

     total energy              =    -534.96618671 Ry
     estimated scf accuracy    <       0.00003714 Ry

     iteration #  9     ecut=    80.00 Ry     beta= 0.70
     Davidson diagonalization with overlap
     ethr =  1.13E-07,  avg # of iterations =  2.0

     total cpu time spent up to now is       73.6 secs

     total energy              =    -534.96619506 Ry
     estimated scf accuracy    <       0.00000104 Ry

     iteration # 10     ecut=    80.00 Ry     beta= 0.70
     Davidson diagonalization with overlap
     ethr =  3.16E-09,  avg # of iterations =  3.5

     total cpu time spent up to now is       82.2 secs

     total energy              =    -534.96619541 Ry
     estimated scf accuracy    <       0.00000001 Ry

     iteration # 11     ecut=    80.00 Ry     beta= 0.70
     Davidson diagonalization with overlap
     ethr =  3.55E-11,  avg # of iterations =  4.9

     total cpu time spent up to now is       93.7 secs

     total energy              =    -534.96619542 Ry
     estimated scf accuracy    <       0.00000002 Ry

     iteration # 12     ecut=    80.00 Ry     beta= 0.70
     Davidson diagonalization with overlap
     ethr =  3.55E-11,  avg # of iterations =  2.6

     total cpu time spent up to now is      101.4 secs

     total energy              =    -534.96619543 Ry
     estimated scf accuracy    <          6.9E-10 Ry

     iteration # 13     ecut=    80.00 Ry     beta= 0.70
     Davidson diagonalization with overlap
     ethr =  2.08E-12,  avg # of iterations =  2.0

     total cpu time spent up to now is      108.6 secs

     End of self-consistent calculation

          k = 0.0000 0.0000 0.0000 (  6623 PWs)   bands (ev):

   -49.8705 -26.1487 -25.7924 -25.7119 -12.4406  -9.4962  -8.8061   0.6415
     2.4919   2.7191   2.8782   2.9564   3.4301   3.9407   4.1890   4.2876
     5.5264   7.1787   7.3228   8.6697   9.3620

     occupation numbers 
     1.0000   1.0000   1.0000   1.0000   1.0000   1.0000   1.0000   1.0000
     1.0000   1.0000   1.0000   1.0000   1.0000   1.0000   1.0000   1.0000
     1.0000  -0.0000  -0.0000  -0.0000  -0.0000

          k = 0.1997 0.1717 0.0000 (  6608 PWs)   bands (ev):

   -49.8688 -26.1650 -25.7881 -25.7321 -12.3141  -9.4256  -8.8109   0.7780
     2.2258   2.3508   2.5848   3.1334   3.2695   3.7438   3.8829   4.0606
     5.8255   7.3897   7.4796   8.7292   9.8416

     occupation numbers 
     1.0000   1.0000   1.0000   1.0000   1.0000   1.0000   1.0000   1.0000
     1.0000   1.0000   1.0000   1.0000   1.0000   1.0000   1.0000   1.0000
     1.0000  -0.0000  -0.0000  -0.0000  -0.0000

          k = 0.3993 0.3435 0.0000 (  6615 PWs)   bands (ev):

   -49.8644 -26.2070 -25.7845 -25.7769 -11.9702  -9.2338  -8.8252   1.1442
     1.6405   1.8231   2.0558   2.3859   2.7100   3.1669   3.8719   4.0001
     6.4484   7.8522   7.9272   8.9918  10.7713

     occupation numbers 
     1.0000   1.0000   1.0000   1.0000   1.0000   1.0000   1.0000   1.0000
     1.0000   1.0000   1.0000   1.0000   1.0000   1.0000   1.0000   1.0000
     1.0336  -0.0000  -0.0000  -0.0000  -0.0000

          k = 0.5990 0.5152 0.0000 (  6621 PWs)   bands (ev):

   -49.8588 -26.2572 -25.8482 -25.7630 -11.5142  -8.9801  -8.8465   0.5265
     1.4154   1.6636   1.7289   1.8197   1.8795   2.6934   3.7391   4.0087
     7.2482   8.4187   8.5700   9.3668  11.3253

     occupation numbers 
     1.0000   1.0000   1.0000   1.0000   1.0000   1.0000   1.0000   1.0000
     1.0000   1.0000   1.0000   1.0000   1.0000   1.0000   1.0000   1.0000
    -0.0000  -0.0000  -0.0000  -0.0000  -0.0000

          k = 0.7986 0.6869 0.0000 (  6636 PWs)   bands (ev):

   -49.8544 -26.2965 -25.8990 -25.7518 -11.1129  -8.8665  -8.7578  -0.3132
     0.8193   1.1723   1.6808   1.7852   2.2220   2.3353   3.4484   3.9491
     8.0780   8.9289   9.1351   9.6574  11.3664

     occupation numbers 
     1.0000   1.0000   1.0000   1.0000   1.0000   1.0000   1.0000   1.0000
     1.0000   1.0000   1.0000   1.0000   1.0000   1.0000   1.0000   1.0000
    -0.0000  -0.0000  -0.0000  -0.0000  -0.0000

          k =-0.9983-0.8586 0.0000 (  6616 PWs)   bands (ev):

   -49.8527 -26.3112 -25.9182 -25.7476 -10.9501  -8.8748  -8.6679  -0.6323
     0.5800   0.9706   1.7533   1.8545   1.9617   2.6014   3.2784   3.8759
     8.4847   9.1488   9.3388   9.7841  11.3963

     occupation numbers 
     1.0000   1.0000   1.0000   1.0000   1.0000   1.0000   1.0000   1.0000
     1.0000   1.0000   1.0000   1.0000   1.0000   1.0000   1.0000   1.0000
    -0.0000  -0.0000  -0.0000  -0.0000  -0.0000

          k = 0.1997 0.0000 0.0542 (  6615 PWs)   bands (ev):

   -49.8692 -26.1471 -25.7888 -25.7327 -12.4294  -9.4381  -8.8145   0.7656
     2.3424   2.6810   2.9197   3.0009   3.2277   3.8732   3.9720   4.1353
     5.8137   7.1207   7.2845   8.7182   9.6242

     occupation numbers 
     1.0000   1.0000   1.0000   1.0000   1.0000   1.0000   1.0000   1.0000
     1.0000   1.0000   1.0000   1.0000   1.0000   1.0000   1.0000   1.0000
     1.0000  -0.0003  -0.0000  -0.0000  -0.0000

          k = 0.3993 0.1717 0.0542 (  6624 PWs)   bands (ev):

   -49.8652 -26.1607 -25.7861 -25.7786 -12.2852  -9.2735  -8.8269   1.0786
     2.0481   2.2935   2.5385   2.6168   3.1362   3.2164   3.8521   4.0525
     6.4161   7.2373   7.3646   8.9779  10.2777

     occupation numbers 
     1.0000   1.0000   1.0000   1.0000   1.0000   1.0000   1.0000   1.0000
     1.0000   1.0000   1.0000   1.0000   1.0000   1.0000   1.0000   1.0000
     1.0257  -0.0000  -0.0000  -0.0000  -0.0000

          k = 0.5990 0.3435 0.0542 (  6618 PWs)   bands (ev):

   -49.8599 -26.2013 -25.8504 -25.7651 -11.9354  -9.0332  -8.8459   1.4008
     1.5909   1.7922   1.9290   2.0009   2.2204   2.8034   3.8403   4.1036
     7.1751   7.7046   7.8169   9.4069  10.9605

     occupation numbers 
     1.0000   1.0000   1.0000   1.0000   1.0000   1.0000   1.0000   1.0000
     1.0000   1.0000   1.0000   1.0000   1.0000   1.0000   1.0000   1.0000
    -0.0001  -0.0000  -0.0000  -0.0000  -0.0000

          k = 0.7986 0.5152 0.0542 (  6623 PWs)   bands (ev):

   -49.8552 -26.2523 -25.9008 -25.7535 -11.4871  -8.8732  -8.7953   0.5478
     1.1225   1.1348   1.7022   1.8740   2.3336   2.3615   3.5920   4.0705
     7.9836   8.3406   8.5076   9.7202  11.2332

     occupation numbers 
     1.0000   1.0000   1.0000   1.0000   1.0000   1.0000   1.0000   1.0000
     1.0000   1.0000   1.0000   1.0000   1.0000   1.0000   1.0000   1.0000
    -0.0000  -0.0000  -0.0000  -0.0000  -0.0000

          k = 0.9983 0.6869 0.0542 (  6618 PWs)   bands (ev):

   -49.8530 -26.2946 -25.9189 -25.7482 -11.1030  -8.8827  -8.6766  -0.3053
     0.6792   0.9482   1.6075   1.9517   2.1072   2.6189   3.3261   3.9196
     8.4773   8.8829   9.1061   9.7742  11.3145

     occupation numbers 
     1.0000   1.0000   1.0000   1.0000   1.0000   1.0000   1.0000   1.0000
     1.0000   1.0000   1.0000   1.0000   1.0000   1.0000   1.0000   1.0000
    -0.0000  -0.0000  -0.0000  -0.0000  -0.0000

          k =-0.7986-0.8586 0.0542 (  6612 PWs)   bands (ev):

   -49.8540 -26.3132 -25.8983 -25.7512 -10.9597  -8.8787  -8.7274  -0.6392
     0.6995   1.1610   1.4949   1.8291   2.2984   2.4368   3.3826   3.8447
     8.1144   9.1847   9.3718   9.5904  11.3268

     occupation numbers 
     1.0000   1.0000   1.0000   1.0000   1.0000   1.0000   1.0000   1.0000
     1.0000   1.0000   1.0000   1.0000   1.0000   1.0000   1.0000   1.0000
    -0.0000  -0.0000  -0.0000  -0.0000  -0.0000

          k =-0.5990-0.6869 0.0542 (  6629 PWs)   bands (ev):

   -49.8580 -26.3015 -25.8465 -25.7614 -11.1386  -8.9252  -8.8588  -0.3330
     1.1474   1.4040   1.7369   1.7607   1.9256   2.7252   3.6348   3.8390
     7.3083   9.0313   9.1610   9.3185  11.4392

     occupation numbers 
     1.0000   1.0000   1.0000   1.0000   1.0000   1.0000   1.0000   1.0000
     1.0000   1.0000   1.0000   1.0000   1.0000   1.0000   1.0000   1.0000
    -0.0000  -0.0000  -0.0000  -0.0000  -0.0000

          k =-0.3993-0.5152 0.0542 (  6609 PWs)   bands (ev):

   -49.8633 -26.2631 -25.7825 -25.7748 -11.5474  -9.1730  -8.8365   0.4984
     1.2756   1.4214   1.9100   2.0535   2.6101   3.1587   3.7659   3.8730
     6.5086   8.5876   8.6226   9.0008  11.1469

     occupation numbers 
     1.0000   1.0000   1.0000   1.0000   1.0000   1.0000   1.0000   1.0000
     1.0000   1.0000   1.0000   1.0000   1.0000   1.0000   1.0000   1.0000
     1.0225  -0.0000  -0.0000  -0.0000  -0.0000

          k =-0.1997-0.3435 0.0542 (  6598 PWs)   bands (ev):

   -49.8680 -26.2115 -25.7864 -25.7306 -11.9983  -9.3786  -8.8189   0.8493
     1.6097   1.6799   2.3603   2.7934   3.3756   3.5436   3.8024   3.9117
     5.8707   8.0189   8.0342   8.7547  10.2973

     occupation numbers 
     1.0000   1.0000   1.0000   1.0000   1.0000   1.0000   1.0000   1.0000
     1.0000   1.0000   1.0000   1.0000   1.0000   1.0000   1.0000   1.0000
     1.0000  -0.0000  -0.0000  -0.0000  -0.0000

          k = 0.0000-0.1717 0.0542 (  6586 PWs)   bands (ev):

   -49.8702 -26.1667 -25.7918 -25.7113 -12.3251  -9.4765  -8.8115   0.6757
     2.1941   2.5065   2.5757   3.2934   3.3168   3.8283   3.9972   4.2074
     5.5460   7.4610   7.5238   8.6889   9.5943

     occupation numbers 
     1.0000   1.0000   1.0000   1.0000   1.0000   1.0000   1.0000   1.0000
     1.0000   1.0000   1.0000   1.0000   1.0000   1.0000   1.0000   1.0000
     1.0000  -0.0000  -0.0000  -0.0000  -0.0000

          k = 0.3993 0.0000 0.1083 (  6619 PWs)   bands (ev):

   -49.8655 -26.1428 -25.7867 -25.7793 -12.4002  -9.2821  -8.8350   1.0643
     2.0622   2.4191   2.6476   2.9788   3.1878   3.5181   3.8268   3.9873
     6.4261   6.9828   7.1610   8.9411  10.0078

     occupation numbers 
     1.0000   1.0000   1.0000   1.0000   1.0000   1.0000   1.0000   1.0000
     1.0000   1.0000   1.0000   1.0000   1.0000   1.0000   1.0000   1.0000
     1.0285  -0.0100  -0.0001  -0.0000  -0.0000

          k = 0.5990 0.1717 0.1083 (  6633 PWs)   bands (ev):

   -49.8607 -26.1553 -25.8521 -25.7668 -12.2495  -9.0720  -8.8490   1.3255
     1.6854   1.8960   2.2336   2.6540   2.9537   3.1336   3.8206   3.9993
     7.0132   7.1839   7.2763   9.3905  10.3863

     occupation numbers 
     1.0000   1.0000   1.0000   1.0000   1.0000   1.0000   1.0000   1.0000
     1.0000   1.0000   1.0000   1.0000   1.0000   1.0000   1.0000   1.0000
    -0.0054  -0.0000  -0.0000  -0.0000  -0.0000

          k = 0.7986 0.3435 0.1083 (  6636 PWs)   bands (ev):

   -49.8562 -26.1968 -25.9031 -25.7555 -11.9072  -8.9046  -8.8169   1.0298
     1.4276   1.6270   1.7871   1.9606   2.4978   2.7790   3.7561   4.0990
     7.4694   7.7102   8.0855   9.7404  10.8158

     occupation numbers 
     1.0000   1.0000   1.0000   1.0000   1.0000   1.0000   1.0000   1.0000
     1.0000   1.0000   1.0000   1.0000   1.0000   1.0000   1.0000   1.0000
    -0.0000  -0.0000  -0.0000  -0.0000  -0.0000

          k = 0.9983 0.5152 0.1083 (  6628 PWs)   bands (ev):

   -49.8538 -26.2505 -25.9208 -25.7498 -11.4766  -8.9032  -8.6993   0.5501
     0.8674   1.0059   1.4828   1.9723   2.4598   2.7009   3.4657   4.0097
     8.1985   8.4792   8.4909   9.7626  11.0684

     occupation numbers 
     1.0000   1.0000   1.0000   1.0000   1.0000   1.0000   1.0000   1.0000
     1.0000   1.0000   1.0000   1.0000   1.0000   1.0000   1.0000   1.0000
    -0.0000  -0.0000  -0.0000  -0.0000  -0.0000

          k = 1.1980 0.6869 0.1083 (  6615 PWs)   bands (ev):

   -49.8544 -26.2965 -25.8990 -25.7519 -11.1128  -8.9039  -8.7171  -0.3133
     0.7843   1.1024   1.3860   1.9052   2.4474   2.5738   3.4198   3.8254
     8.1303   8.9197   9.1374   9.5306  11.2038

     occupation numbers 
     1.0000   1.0000   1.0000   1.0000   1.0000   1.0000   1.0000   1.0000
     1.0000   1.0000   1.0000   1.0000   1.0000   1.0000   1.0000   1.0000
    -0.0000  -0.0000  -0.0000  -0.0000  -0.0000

          k =-0.5990-0.8586 0.1083 (  6606 PWs)   bands (ev):

   -49.8577 -26.3183 -25.8458 -25.7608 -10.9846  -8.8895  -8.8779  -0.6574
     1.0056   1.2857   1.6876   1.7082   2.1121   2.8019   3.6110   3.6937
     7.3503   9.1400   9.3373   9.4442  11.4247

     occupation numbers 
     1.0000   1.0000   1.0000   1.0000   1.0000   1.0000   1.0000   1.0000
     1.0000   1.0000   1.0000   1.0000   1.0000   1.0000   1.0000   1.0000
    -0.0000  -0.0000  -0.0000  -0.0000  -0.0000

          k =-0.3993-0.6869 0.1083 (  6602 PWs)   bands (ev):

   -49.8625 -26.3078 -25.7808 -25.7731 -11.1699  -9.1061  -8.8654  -0.3570
     1.1123   1.4231   1.6206   1.9879   2.5797   3.1216   3.5871   3.8328
     6.5668   8.8764   9.2098   9.2938  11.3524

     occupation numbers 
     1.0000   1.0000   1.0000   1.0000   1.0000   1.0000   1.0000   1.0000
     1.0000   1.0000   1.0000   1.0000   1.0000   1.0000   1.0000   1.0000
     0.9289  -0.0000  -0.0000  -0.0000  -0.0000

          k =-0.1997-0.5152 0.1083 (  6607 PWs)   bands (ev):

   -49.8669 -26.2680 -25.7843 -25.7287 -11.5741  -9.3091  -8.8428   0.4743
     0.9577   1.2749   2.3020   2.4402   3.1109   3.5160   3.6411   3.9278
     5.9259   8.6770   8.7695   8.8266  10.7181

     occupation numbers 
     1.0000   1.0000   1.0000   1.0000   1.0000   1.0000   1.0000   1.0000
     1.0000   1.0000   1.0000   1.0000   1.0000   1.0000   1.0000   1.0000
     1.0000  -0.0000  -0.0000  -0.0000  -0.0000

          k = 0.0000-0.3435 0.1083 (  6591 PWs)   bands (ev):

   -49.8694 -26.2133 -25.7901 -25.7098 -12.0089  -9.4221  -8.8293   0.7635
     1.5916   1.6504   2.5459   3.0252   3.2853   3.5850   3.9163   4.0830
     5.5868   8.0534   8.1207   8.7395  10.0715

     occupation numbers 
     1.0000   1.0000   1.0000   1.0000   1.0000   1.0000   1.0000   1.0000
     1.0000   1.0000   1.0000   1.0000   1.0000   1.0000   1.0000   1.0000
     1.0000  -0.0000  -0.0000  -0.0000  -0.0000

          k = 0.1997-0.1717 0.1083 (  6599 PWs)   bands (ev):

   -49.8688 -26.1650 -25.7881 -25.7321 -12.3139  -9.4125  -8.8271   0.8194
     2.2359   2.3517   2.5871   3.1139   3.2437   3.6641   3.9129   4.0597
     5.8403   7.3860   7.4931   8.7270   9.8935

     occupation numbers 
     1.0000   1.0000   1.0000   1.0000   1.0000   1.0000   1.0000   1.0000
     1.0000   1.0000   1.0000   1.0000   1.0000   1.0000   1.0000   1.0000
     1.0000  -0.0000  -0.0000  -0.0000  -0.0000

          k = 0.5990 0.0000 0.1625 (  6623 PWs)   bands (ev):

   -49.8610 -26.1376 -25.8528 -25.7674 -12.3642  -9.0871  -8.8492   1.2694
     1.6055   1.9595   2.3373   3.0562   3.3855   3.4659   3.7135   3.7909
     6.8428   6.9424   7.2266   9.3281  10.0483

     occupation numbers 
     1.0000   1.0000   1.0000   1.0000   1.0000   1.0000   1.0000   1.0000
     1.0000   1.0000   1.0000   1.0000   1.0000   1.0000   1.0000   1.0000
    -0.0309  -0.0194  -0.0000  -0.0000  -0.0000

          k = 0.7986 0.1717 0.1625 (  6644 PWs)   bands (ev):

   -49.8571 -26.1510 -25.9050 -25.7572 -12.2206  -8.9442  -8.8188   0.9611
     1.4237   1.8723   2.0029   2.7872   2.9264   3.3122   3.8002   3.9433
     6.9424   7.0036   8.0473   9.6933  10.2356

     occupation numbers 
     1.0000   1.0000   1.0000   1.0000   1.0000   1.0000   1.0000   1.0000
     1.0000   1.0000   1.0000   1.0000   1.0000   1.0000   1.0000   1.0000
    -0.0194  -0.0067  -0.0000  -0.0000  -0.0000

          k = 0.9983 0.3435 0.1625 (  6636 PWs)   bands (ev):

   -49.8549 -26.1950 -25.9231 -25.7519 -11.8963  -8.9283  -8.7270   0.7627
     1.3460   1.4699   1.7606   1.9705   2.7347   3.0227   3.6665   4.0342
     7.4549   7.6648   8.4650   9.7404  10.6518

     occupation numbers 
     1.0000   1.0000   1.0000   1.0000   1.0000   1.0000   1.0000   1.0000
     1.0000   1.0000   1.0000   1.0000   1.0000   1.0000   1.0000   1.0000
    -0.0000  -0.0000  -0.0000  -0.0000  -0.0000

          k = 1.1980 0.5152 0.1625 (  6621 PWs)   bands (ev):

   -49.8552 -26.2523 -25.9008 -25.7535 -11.4868  -8.9351  -8.7281   0.5457
     0.9989   1.1064   1.3255   2.0322   2.6051   2.7248   3.5578   3.9049
     8.1167   8.2731   8.5134   9.5030  10.9807

     occupation numbers 
     1.0000   1.0000   1.0000   1.0000   1.0000   1.0000   1.0000   1.0000
     1.0000   1.0000   1.0000   1.0000   1.0000   1.0000   1.0000   1.0000
    -0.0000  -0.0000  -0.0000  -0.0000  -0.0000

          k = 1.3976 0.6869 0.1625 (  6612 PWs)   bands (ev):

   -49.8580 -26.3015 -25.8465 -25.7614 -11.1383  -8.9344  -8.8481  -0.3335
     1.0728   1.2932   1.6176   1.7106   2.2978   2.8703   3.6280   3.7108
     7.3638   8.9659   9.1959   9.2252  11.3306

     occupation numbers 
     1.0000   1.0000   1.0000   1.0000   1.0000   1.0000   1.0000   1.0000
     1.0000   1.0000   1.0000   1.0000   1.0000   1.0000   1.0000   1.0000
    -0.0000  -0.0000  -0.0000  -0.0000  -0.0000

          k =-0.3993-0.8586 0.1625 (  6599 PWs)   bands (ev):

   -49.8621 -26.3247 -25.7802 -25.7725 -11.0149  -9.0547  -8.9040  -0.6797
     1.0215   1.3708   1.6964   1.8855   2.5928   3.0566   3.5011   3.8512
     6.6029   8.8567   9.4542   9.5081  11.4153

     occupation numbers 
     1.0000   1.0000   1.0000   1.0000   1.0000   1.0000   1.0000   1.0000
     1.0000   1.0000   1.0000   1.0000   1.0000   1.0000   1.0000   1.0000
     0.8098  -0.0000  -0.0000  -0.0000  -0.0000

          k =-0.1997-0.6869 0.1625 (  6598 PWs)   bands (ev):

   -49.8661 -26.3128 -25.7826 -25.7271 -11.1949  -9.2367  -8.8816  -0.3760
     0.8565   1.2556   2.0322   2.3343   2.8927   3.4651   3.5379   3.9541
     5.9725   8.7971   9.3073   9.3677  11.0051

     occupation numbers 
     1.0000   1.0000   1.0000   1.0000   1.0000   1.0000   1.0000   1.0000
     1.0000   1.0000   1.0000   1.0000   1.0000   1.0000   1.0000   1.0000
     1.0000  -0.0000  -0.0000  -0.0000  -0.0000

          k =-0.0000-0.5152 0.1625 (  6599 PWs)   bands (ev):

   -49.8683 -26.2698 -25.7880 -25.7080 -11.5841  -9.3468  -8.8609   0.4627
     0.8632   1.2681   2.5962   2.7017   2.7640   3.5327   3.9602   3.9948
     5.6336   8.7290   8.7994   8.8636  10.5286

     occupation numbers 
     1.0000   1.0000   1.0000   1.0000   1.0000   1.0000   1.0000   1.0000
     1.0000   1.0000   1.0000   1.0000   1.0000   1.0000   1.0000   1.0000
     1.0000  -0.0000  -0.0000  -0.0000  -0.0000

          k = 0.1997-0.3435 0.1625 (  6608 PWs)   bands (ev):

   -49.8680 -26.2115 -25.7864 -25.7306 -11.9980  -9.3539  -8.8488   0.9157
     1.6031   1.7343   2.3497   2.7895   3.1599   3.5577   3.7241   4.0411
     5.8894   8.0273   8.0347   8.7561  10.3903

     occupation numbers 
     1.0000   1.0000   1.0000   1.0000   1.0000   1.0000   1.0000   1.0000
     1.0000   1.0000   1.0000   1.0000   1.0000   1.0000   1.0000   1.0000
     1.0000  -0.0000  -0.0000  -0.0000  -0.0000

          k = 0.3993-0.1717 0.1625 (  6617 PWs)   bands (ev):

   -49.8652 -26.1607 -25.7861 -25.7786 -12.2849  -9.2564  -8.8463   1.1075
     2.0631   2.2419   2.4986   2.6209   3.1100   3.2886   3.8515   4.0518
     6.4520   7.2168   7.3836   8.9043  10.2846

     occupation numbers 
     1.0000   1.0000   1.0000   1.0000   1.0000   1.0000   1.0000   1.0000
     1.0000   1.0000   1.0000   1.0000   1.0000   1.0000   1.0000   1.0000
     1.0342  -0.0000  -0.0000  -0.0000  -0.0000

          k = 0.7986 0.0000 0.2166 (  6656 PWs)   bands (ev):

   -49.8574 -26.1333 -25.9057 -25.7578 -12.3351  -8.9710  -8.8065   0.9130
     1.3391   2.0092   2.0547   3.1688   3.4370   3.5105   3.7072   3.8132
     6.6902   6.7517   8.0455   9.5847   9.9413

     occupation numbers 
     1.0000   1.0000   1.0000   1.0000   1.0000   1.0000   1.0000   1.0000
     1.0000   1.0000   1.0000   1.0000   1.0000   1.0000   1.0000   1.0000
     0.3864   0.1232  -0.0000  -0.0000  -0.0000

          k = 0.9983 0.1717 0.2166 (  6632 PWs)   bands (ev):

   -49.8557 -26.1493 -25.9250 -25.7535 -12.2096  -8.9484  -8.7490   0.7073
     1.3402   1.8386   1.9513   2.8562   2.9828   3.4793   3.8518   3.8571
     6.8859   6.9313   8.4477   9.6535  10.1856

     occupation numbers 
     1.0000   1.0000   1.0000   1.0000   1.0000   1.0000   1.0000   1.0000
     1.0000   1.0000   1.0000   1.0000   1.0000   1.0000   1.0000   1.0000
    -0.0339  -0.0225  -0.0000  -0.0000  -0.0000

          k = 1.1980 0.3435 0.2166 (  6633 PWs)   bands (ev):

   -49.8562 -26.1968 -25.9031 -25.7555 -11.9070  -8.9628  -8.7535   0.9292
     1.2796   1.4784   1.7718   2.1211   2.7490   2.9909   3.7354   3.9968
     7.4942   7.7100   8.1083   9.5171  10.6136

     occupation numbers 
     1.0000   1.0000   1.0000   1.0000   1.0000   1.0000   1.0000   1.0000
     1.0000   1.0000   1.0000   1.0000   1.0000   1.0000   1.0000   1.0000
    -0.0000  -0.0000  -0.0000  -0.0000  -0.0000

          k = 1.3976 0.5152 0.2166 (  6633 PWs)   bands (ev):

   -49.8588 -26.2572 -25.8482 -25.7631 -11.5137  -8.9885  -8.8356   0.5224
     1.3094   1.3428   1.5737   1.8559   2.4267   2.9263   3.6733   3.8984
     7.3422   8.3860   8.5870   9.1612  11.1332

     occupation numbers 
     1.0000   1.0000   1.0000   1.0000   1.0000   1.0000   1.0000   1.0000
     1.0000   1.0000   1.0000   1.0000   1.0000   1.0000   1.0000   1.0000
    -0.0000  -0.0000  -0.0000  -0.0000  -0.0000

          k = 1.5973 0.6869 0.2166 (  6603 PWs)   bands (ev):

   -49.8625 -26.3078 -25.7808 -25.7732 -11.1695  -9.0634  -8.9107  -0.3577
     1.0956   1.4541   1.6707   1.9557   2.5828   3.0796   3.4909   3.9305
     6.6045   8.8254   9.2365   9.2678  11.3536

     occupation numbers 
     1.0000   1.0000   1.0000   1.0000   1.0000   1.0000   1.0000   1.0000
     1.0000   1.0000   1.0000   1.0000   1.0000   1.0000   1.0000   1.0000
     0.8034  -0.0000  -0.0000  -0.0000  -0.0000

          k =-0.1997-0.8586 0.2166 (  6590 PWs)   bands (ev):

   -49.8658 -26.3298 -25.7820 -25.7265 -11.0390  -9.1913  -8.9165  -0.6976
     0.7764   1.4002   1.8546   2.2590   2.8216   3.4288   3.5069   3.9719
     5.9950   8.8139   9.5343   9.5934  11.1250

     occupation numbers 
     1.0000   1.0000   1.0000   1.0000   1.0000   1.0000   1.0000   1.0000
     1.0000   1.0000   1.0000   1.0000   1.0000   1.0000   1.0000   1.0000
     1.0000  -0.0000  -0.0000  -0.0000  -0.0000

          k = 0.0000-0.6869 0.2166 (  6606 PWs)   bands (ev):

   -49.8675 -26.3147 -25.7862 -25.7065 -11.2043  -9.2747  -8.9004  -0.3835
     0.7537   1.2603   2.3264   2.4673   2.6418   3.4635   3.9408   3.9735
     5.6717   8.8527   9.3051   9.4390  10.8416

     occupation numbers 
     1.0000   1.0000   1.0000   1.0000   1.0000   1.0000   1.0000   1.0000
     1.0000   1.0000   1.0000   1.0000   1.0000   1.0000   1.0000   1.0000
     1.0000  -0.0000  -0.0000  -0.0000  -0.0000

          k = 0.1997-0.5152 0.2166 (  6612 PWs)   bands (ev):

   -49.8669 -26.2680 -25.7843 -25.7287 -11.5737  -9.2771  -8.8802   0.4705
     0.9948   1.4059   2.1842   2.4760   2.9428   3.5242   3.5688   4.0346
     5.9448   8.7123   8.7547   8.8145  10.8151

     occupation numbers 
     1.0000   1.0000   1.0000   1.0000   1.0000   1.0000   1.0000   1.0000
     1.0000   1.0000   1.0000   1.0000   1.0000   1.0000   1.0000   1.0000
     1.0000  -0.0000  -0.0000  -0.0000  -0.0000

          k = 0.3993-0.3435 0.2166 (  6628 PWs)   bands (ev):

   -49.8644 -26.2070 -25.7845 -25.7769 -11.9697  -9.2010  -8.8618   1.1780
     1.6139   1.9053   2.0247   2.3368   2.6371   3.2666   3.7225   4.1077
     6.5081   7.8350   7.9515   8.8822  10.7847

     occupation numbers 
     1.0000   1.0000   1.0000   1.0000   1.0000   1.0000   1.0000   1.0000
     1.0000   1.0000   1.0000   1.0000   1.0000   1.0000   1.0000   1.0000
     1.0229  -0.0000  -0.0000  -0.0000  -0.0000

          k = 0.5990-0.1717 0.2166 (  6637 PWs)   bands (ev):

   -49.8607 -26.1553 -25.8521 -25.7668 -12.2493  -9.0752  -8.8442   1.2568
     1.5454   1.9268   2.3080   2.6845   3.0212   3.2125   3.8035   4.0160
     7.0152   7.1802   7.2918   9.2517  10.2980

     occupation numbers 
     1.0000   1.0000   1.0000   1.0000   1.0000   1.0000   1.0000   1.0000
     1.0000   1.0000   1.0000   1.0000   1.0000   1.0000   1.0000   1.0000
    -0.0052  -0.0000  -0.0000  -0.0000  -0.0000

          k =-0.9983 0.0000-0.2708 (  6638 PWs)   bands (ev):

   -49.8560 -26.1317 -25.9257 -25.7541 -12.3240  -8.9560  -8.7574   0.6853
     1.3281   1.9178   2.0336   3.3102   3.3385   3.4764   3.7581   3.9317
     6.5689   6.7215   8.4388   9.5276  10.0184

     occupation numbers 
     1.0000   1.0000   1.0000   1.0000   1.0000   1.0000   1.0000   1.0000
     1.0000   1.0000   1.0000   1.0000   1.0000   1.0000   1.0000   1.0000
     0.9233   0.2388  -0.0000  -0.0000  -0.0000

          k =-0.7986 0.1717-0.2708 (  6645 PWs)   bands (ev):

   -49.8571 -26.1510 -25.9050 -25.7572 -12.2205  -8.9769  -8.7829   0.9034
     1.2905   1.8728   2.1108   2.7968   3.0033   3.3959   3.7763   3.9611
     6.9263   6.9966   8.0727   9.5502  10.1495

     occupation numbers 
     1.0000   1.0000   1.0000   1.0000   1.0000   1.0000   1.0000   1.0000
     1.0000   1.0000   1.0000   1.0000   1.0000   1.0000   1.0000   1.0000
    -0.0239  -0.0077  -0.0000  -0.0000  -0.0000

          k =-0.5990 0.3435-0.2708 (  6629 PWs)   bands (ev):

   -49.8599 -26.2013 -25.8504 -25.7651 -11.9350  -9.0393  -8.8371   1.2756
     1.4558   1.6383   1.8470   2.1258   2.5750   3.0014   3.7802   4.0606
     7.2779   7.6523   7.8269   9.1885  10.7811

     occupation numbers 
     1.0000   1.0000   1.0000   1.0000   1.0000   1.0000   1.0000   1.0000
     1.0000   1.0000   1.0000   1.0000   1.0000   1.0000   1.0000   1.0000
    -0.0000  -0.0000  -0.0000  -0.0000  -0.0000

          k =-0.3993 0.5152-0.2708 (  6609 PWs)   bands (ev):

   -49.8633 -26.2631 -25.7825 -25.7749 -11.5469  -9.1287  -8.8848   0.4933
     1.2389   1.6191   1.7366   2.1375   2.5346   3.2058   3.5523   4.0400
     6.5690   8.5595   8.6671   8.8954  11.1559

     occupation numbers 
     1.0000   1.0000   1.0000   1.0000   1.0000   1.0000   1.0000   1.0000
     1.0000   1.0000   1.0000   1.0000   1.0000   1.0000   1.0000   1.0000
     0.9231  -0.0000  -0.0000  -0.0000  -0.0000

          k =-0.1997 0.6869-0.2708 (  6613 PWs)   bands (ev):

   -49.8661 -26.3128 -25.7826 -25.7271 -11.1946  -9.2090  -8.9128  -0.3766
     0.8526   1.4225   1.9058   2.3191   2.8351   3.4404   3.5274   4.0012
     5.9849   8.8092   9.2978   9.3700  11.0650

     occupation numbers 
     1.0000   1.0000   1.0000   1.0000   1.0000   1.0000   1.0000   1.0000
     1.0000   1.0000   1.0000   1.0000   1.0000   1.0000   1.0000   1.0000
     1.0000  -0.0000  -0.0000  -0.0000  -0.0000

          k =-1.9966-0.8586-0.2708 (  6594 PWs)   bands (ev):

   -49.8671 -26.3317 -25.7856 -25.7059 -11.0481  -9.2422  -8.9215  -0.7044
     0.6797   1.3362   2.1354   2.3848   2.6589   3.4368   3.9219   3.9706
     5.6862   8.8723   9.5350   9.6592  10.9526

     occupation numbers 
     1.0000   1.0000   1.0000   1.0000   1.0000   1.0000   1.0000   1.0000
     1.0000   1.0000   1.0000   1.0000   1.0000   1.0000   1.0000   1.0000
     1.0000  -0.0000  -0.0000  -0.0000  -0.0000

          k = 0.3993 0.3435 0.1083 (  6625 PWs)   bands (ev):

   -49.8644 -26.2070 -25.7845 -25.7769 -11.9701  -9.2254  -8.8347   1.1514
     1.6335   1.8475   2.0476   2.3901   2.6563   3.2101   3.8180   4.0425
     6.4644   7.8454   7.9365   8.9592  10.7782

     occupation numbers 
     1.0000   1.0000   1.0000   1.0000   1.0000   1.0000   1.0000   1.0000
     1.0000   1.0000   1.0000   1.0000   1.0000   1.0000   1.0000   1.0000
     1.0354  -0.0000  -0.0000  -0.0000  -0.0000

          k = 0.5990 0.5152 0.1083 (  6625 PWs)   bands (ev):

   -49.8588 -26.2572 -25.8482 -25.7631 -11.5141  -8.9814  -8.8448   0.5259
     1.3965   1.6033   1.6913   1.7675   2.0402   2.7346   3.7300   3.9932
     7.2614   8.4086   8.5736   9.3416  11.3027

     occupation numbers 
     1.0000   1.0000   1.0000   1.0000   1.0000   1.0000   1.0000   1.0000
     1.0000   1.0000   1.0000   1.0000   1.0000   1.0000   1.0000   1.0000
    -0.0000  -0.0000  -0.0000  -0.0000  -0.0000

          k = 0.7986 0.6869 0.1083 (  6632 PWs)   bands (ev):

   -49.8544 -26.2965 -25.8990 -25.7518 -11.1129  -8.8717  -8.7523  -0.3132
     0.8190   1.1518   1.6947   1.7438   2.2487   2.3783   3.4402   3.9392
     8.0843   8.9230   9.1355   9.6458  11.3579

     occupation numbers 
     1.0000   1.0000   1.0000   1.0000   1.0000   1.0000   1.0000   1.0000
     1.0000   1.0000   1.0000   1.0000   1.0000   1.0000   1.0000   1.0000
    -0.0000  -0.0000  -0.0000  -0.0000  -0.0000

          k = 0.9983 0.8586 0.1083 (  6622 PWs)   bands (ev):

   -49.8527 -26.3112 -25.9182 -25.7476 -10.9501  -8.8748  -8.6679  -0.6323
     0.5878   0.9524   1.7702   1.8762   1.9380   2.6087   3.2474   3.8962
     8.4860   9.1498   9.3444   9.7652  11.3834

     occupation numbers 
     1.0000   1.0000   1.0000   1.0000   1.0000   1.0000   1.0000   1.0000
     1.0000   1.0000   1.0000   1.0000   1.0000   1.0000   1.0000   1.0000
    -0.0000  -0.0000  -0.0000  -0.0000  -0.0000

          k = 0.0000 0.0000 0.1083 (  6599 PWs)   bands (ev):

   -49.8705 -26.1487 -25.7924 -25.7119 -12.4404  -9.4815  -8.8248   0.6919
     2.5075   2.7025   2.8452   3.0079   3.4228   3.8590   4.1580   4.2631
     5.5385   7.1788   7.3427   8.7034   9.4218

     occupation numbers 
     1.0000   1.0000   1.0000   1.0000   1.0000   1.0000   1.0000   1.0000
     1.0000   1.0000   1.0000   1.0000   1.0000   1.0000   1.0000   1.0000
     1.0000  -0.0000  -0.0000  -0.0000  -0.0000

          k = 0.5990 0.3435 0.1625 (  6621 PWs)   bands (ev):

   -49.8599 -26.2013 -25.8504 -25.7651 -11.9353  -9.0356  -8.8425   1.3500
     1.5402   1.7100   1.8841   2.0531   2.3821   2.8853   3.8183   4.0882
     7.2124   7.6818   7.8221   9.3253  10.8936

     occupation numbers 
     1.0000   1.0000   1.0000   1.0000   1.0000   1.0000   1.0000   1.0000
     1.0000   1.0000   1.0000   1.0000   1.0000   1.0000   1.0000   1.0000
    -0.0000  -0.0000  -0.0000  -0.0000  -0.0000

          k = 0.7986 0.5152 0.1625 (  6629 PWs)   bands (ev):

   -49.8552 -26.2523 -25.9008 -25.7535 -11.4870  -8.8944  -8.7730   0.5472
     1.0943   1.1156   1.6052   1.8926   2.4093   2.4726   3.5790   4.0377
     8.0145   8.3218   8.5086   9.6684  11.1783

     occupation numbers 
     1.0000   1.0000   1.0000   1.0000   1.0000   1.0000   1.0000   1.0000
     1.0000   1.0000   1.0000   1.0000   1.0000   1.0000   1.0000   1.0000
    -0.0000  -0.0000  -0.0000  -0.0000  -0.0000

          k = 0.9983 0.6869 0.1625 (  6625 PWs)   bands (ev):

   -49.8530 -26.2946 -25.9189 -25.7482 -11.1030  -8.8827  -8.6767  -0.3053
     0.6950   0.9167   1.6597   1.8972   2.1211   2.6428   3.2810   3.9464
     8.4820   8.8814   9.1119   9.7480  11.3031

     occupation numbers 
     1.0000   1.0000   1.0000   1.0000   1.0000   1.0000   1.0000   1.0000
     1.0000   1.0000   1.0000   1.0000   1.0000   1.0000   1.0000   1.0000
    -0.0000  -0.0000  -0.0000  -0.0000  -0.0000

          k = 1.1980 0.8586 0.1625 (  6614 PWs)   bands (ev):

   -49.8540 -26.3132 -25.8983 -25.7512 -10.9597  -8.8787  -8.7274  -0.6392
     0.7052   1.1347   1.5584   1.7668   2.3074   2.4554   3.3689   3.8501
     8.1156   9.1698   9.3759   9.5960  11.3490

     occupation numbers 
     1.0000   1.0000   1.0000   1.0000   1.0000   1.0000   1.0000   1.0000
     1.0000   1.0000   1.0000   1.0000   1.0000   1.0000   1.0000   1.0000
    -0.0000  -0.0000  -0.0000  -0.0000  -0.0000

          k =-0.5990-0.6869 0.1625 (  6624 PWs)   bands (ev):

   -49.8580 -26.3015 -25.8465 -25.7614 -11.1385  -8.9277  -8.8560  -0.3332
     1.1197   1.4291   1.6271   1.7198   2.0801   2.7638   3.6309   3.8091
     7.3210   8.9861   9.1821   9.3160  11.4328

     occupation numbers 
     1.0000   1.0000   1.0000   1.0000   1.0000   1.0000   1.0000   1.0000
     1.0000   1.0000   1.0000   1.0000   1.0000   1.0000   1.0000   1.0000
    -0.0000  -0.0000  -0.0000  -0.0000  -0.0000

          k =-0.3993-0.5152 0.1625 (  6603 PWs)   bands (ev):

   -49.8633 -26.2631 -25.7825 -25.7748 -11.5472  -9.1577  -8.8532   0.4964
     1.2420   1.5126   1.8276   2.1277   2.5419   3.1954   3.6560   3.9642
     6.5311   8.5694   8.6498   8.9561  11.1534

     occupation numbers 
     1.0000   1.0000   1.0000   1.0000   1.0000   1.0000   1.0000   1.0000
     1.0000   1.0000   1.0000   1.0000   1.0000   1.0000   1.0000   1.0000
     0.9993  -0.0000  -0.0000  -0.0000  -0.0000

          k = 0.0000-0.1717 0.1625 (  6588 PWs)   bands (ev):

   -49.8702 -26.1667 -25.7918 -25.7113 -12.3247  -9.4479  -8.8476   0.7714
     2.2136   2.5358   2.5723   3.2178   3.3072   3.6592   4.0435   4.1590
     5.5595   7.4608   7.5453   8.7499   9.7146

     occupation numbers 
     1.0000   1.0000   1.0000   1.0000   1.0000   1.0000   1.0000   1.0000
     1.0000   1.0000   1.0000   1.0000   1.0000   1.0000   1.0000   1.0000
     1.0000  -0.0000  -0.0000  -0.0000  -0.0000

          k = 0.1997 0.0000 0.1625 (  6608 PWs)   bands (ev):

   -49.8692 -26.1471 -25.7888 -25.7327 -12.4291  -9.4118  -8.8470   0.8509
     2.3564   2.6392   2.8624   3.0937   3.1941   3.7448   3.9999   4.0829
     5.8475   7.1102   7.3197   8.7165   9.7121

     occupation numbers 
     1.0000   1.0000   1.0000   1.0000   1.0000   1.0000   1.0000   1.0000
     1.0000   1.0000   1.0000   1.0000   1.0000   1.0000   1.0000   1.0000
     1.0000  -0.0004  -0.0000  -0.0000  -0.0000

          k = 0.7986 0.3435 0.2166 (  6632 PWs)   bands (ev):

   -49.8562 -26.1968 -25.9031 -25.7555 -11.9071  -8.9367  -8.7824   0.9758
     1.3717   1.5561   1.7747   2.0180   2.6302   2.8747   3.7431   4.0590
     7.4825   7.7097   8.0916   9.6368  10.7308

     occupation numbers 
     1.0000   1.0000   1.0000   1.0000   1.0000   1.0000   1.0000   1.0000
     1.0000   1.0000   1.0000   1.0000   1.0000   1.0000   1.0000   1.0000
    -0.0000  -0.0000  -0.0000  -0.0000  -0.0000

          k = 0.9983 0.5152 0.2166 (  6625 PWs)   bands (ev):

   -49.8538 -26.2505 -25.9208 -25.7498 -11.4766  -8.9032  -8.6994   0.5495
     0.8627   0.9969   1.5526   1.8914   2.4468   2.7602   3.4303   4.0249
     8.2136   8.4768   8.4836   9.7388  11.0781

     occupation numbers 
     1.0000   1.0000   1.0000   1.0000   1.0000   1.0000   1.0000   1.0000
     1.0000   1.0000   1.0000   1.0000   1.0000   1.0000   1.0000   1.0000
    -0.0000  -0.0000  -0.0000  -0.0000  -0.0000

          k = 1.1980 0.6869 0.2166 (  6617 PWs)   bands (ev):

   -49.8544 -26.2965 -25.8990 -25.7519 -11.1128  -8.8954  -8.7266  -0.3132
     0.8021   1.0920   1.4886   1.8435   2.3913   2.5367   3.4126   3.8685
     8.1179   8.9100   9.1383   9.5693  11.2673

     occupation numbers 
     1.0000   1.0000   1.0000   1.0000   1.0000   1.0000   1.0000   1.0000
     1.0000   1.0000   1.0000   1.0000   1.0000   1.0000   1.0000   1.0000
    -0.0000  -0.0000  -0.0000  -0.0000  -0.0000

          k = 1.3976 0.8586 0.2166 (  6602 PWs)   bands (ev):

   -49.8577 -26.3183 -25.8458 -25.7608 -10.9846  -8.8895  -8.8779  -0.6574
     0.9964   1.3304   1.6390   1.6848   2.1550   2.7995   3.6303   3.6697
     7.3500   9.1004   9.3874   9.4375  11.4542

     occupation numbers 
     1.0000   1.0000   1.0000   1.0000   1.0000   1.0000   1.0000   1.0000
     1.0000   1.0000   1.0000   1.0000   1.0000   1.0000   1.0000   1.0000
    -0.0000  -0.0000  -0.0000  -0.0000  -0.0000

          k =-0.3993-0.6869 0.2166 (  6606 PWs)   bands (ev):

   -49.8625 -26.3078 -25.7808 -25.7731 -11.1697  -9.0894  -8.8833  -0.3573
     1.0916   1.4813   1.6073   1.9867   2.5661   3.1002   3.5492   3.8806
     6.5836   8.8525   9.2304   9.2731  11.3536

     occupation numbers 
     1.0000   1.0000   1.0000   1.0000   1.0000   1.0000   1.0000   1.0000
     1.0000   1.0000   1.0000   1.0000   1.0000   1.0000   1.0000   1.0000
     0.8795  -0.0000  -0.0000  -0.0000  -0.0000

          k =-0.0000-0.3435 0.2166 (  6615 PWs)   bands (ev):

   -49.8694 -26.2133 -25.7901 -25.7098 -12.0084  -9.3821  -8.8783   0.8787
     1.5917   1.7242   2.5825   2.9725   3.0207   3.4771   4.0183   4.0802
     5.5964   8.0529   8.1199   8.8111  10.2381

     occupation numbers 
     1.0000   1.0000   1.0000   1.0000   1.0000   1.0000   1.0000   1.0000
     1.0000   1.0000   1.0000   1.0000   1.0000   1.0000   1.0000   1.0000
     1.0000  -0.0000  -0.0000  -0.0000  -0.0000

          k = 0.1997-0.1717 0.2166 (  6604 PWs)   bands (ev):

   -49.8688 -26.1650 -25.7882 -25.7321 -12.3135  -9.3742  -8.8735   0.9400
     2.2436   2.3605   2.5898   3.0362   3.1914   3.5695   3.8896   4.0613
     5.8764   7.3796   7.5240   8.7384  10.0106

     occupation numbers 
     1.0000   1.0000   1.0000   1.0000   1.0000   1.0000   1.0000   1.0000
     1.0000   1.0000   1.0000   1.0000   1.0000   1.0000   1.0000   1.0000
     1.0000  -0.0000  -0.0000  -0.0000  -0.0000

          k = 0.3993 0.0000 0.2166 (  6627 PWs)   bands (ev):

   -49.8655 -26.1428 -25.7867 -25.7793 -12.3998  -9.2569  -8.8634   1.1128
     2.0789   2.2639   2.6827   2.9247   3.2867   3.5387   3.8686   3.9406
     6.4768   6.9506   7.1871   8.8405  10.0047

     occupation numbers 
     1.0000   1.0000   1.0000   1.0000   1.0000   1.0000   1.0000   1.0000
     1.0000   1.0000   1.0000   1.0000   1.0000   1.0000   1.0000   1.0000
     1.0350  -0.0172  -0.0000  -0.0000  -0.0000

          k = 0.9983 0.3435 0.2708 (  6644 PWs)   bands (ev):

   -49.8549 -26.1950 -25.9231 -25.7519 -11.8963  -8.9283  -8.7270   0.7520
     1.3487   1.5284   1.7537   1.9092   2.7294   3.0579   3.6516   4.0368
     7.4595   7.6654   8.4616   9.7206  10.6735

     occupation numbers 
     1.0000   1.0000   1.0000   1.0000   1.0000   1.0000   1.0000   1.0000
     1.0000   1.0000   1.0000   1.0000   1.0000   1.0000   1.0000   1.0000
    -0.0000  -0.0000  -0.0000  -0.0000  -0.0000

          k = 1.1980 0.5152 0.2708 (  6628 PWs)   bands (ev):

   -49.8552 -26.2523 -25.9008 -25.7535 -11.4869  -8.9175  -8.7478   0.5463
     1.0410   1.1076   1.4572   1.9618   2.5018   2.6213   3.5622   3.9780
     8.0663   8.2936   8.5108   9.5852  11.0843

     occupation numbers 
     1.0000   1.0000   1.0000   1.0000   1.0000   1.0000   1.0000   1.0000
     1.0000   1.0000   1.0000   1.0000   1.0000   1.0000   1.0000   1.0000
    -0.0000  -0.0000  -0.0000  -0.0000  -0.0000

          k = 1.3976 0.6869 0.2708 (  6607 PWs)   bands (ev):

   -49.8580 -26.3015 -25.8465 -25.7614 -11.1384  -8.9312  -8.8519  -0.3334
     1.0904   1.3774   1.6377   1.6647   2.2125   2.8193   3.6276   3.7603
     7.3421   8.9551   9.1959   9.2866  11.3965

     occupation numbers 
     1.0000   1.0000   1.0000   1.0000   1.0000   1.0000   1.0000   1.0000
     1.0000   1.0000   1.0000   1.0000   1.0000   1.0000   1.0000   1.0000
    -0.0000  -0.0000  -0.0000  -0.0000  -0.0000

          k = 1.5973 0.8586 0.2708 (  6600 PWs)   bands (ev):

   -49.8621 -26.3247 -25.7802 -25.7725 -11.0149  -9.0547  -8.9040  -0.6797
     1.0114   1.3907   1.6967   1.8762   2.5997   3.0303   3.5256   3.8456
     6.6032   8.8553   9.4627   9.4996  11.4147

     occupation numbers 
     1.0000   1.0000   1.0000   1.0000   1.0000   1.0000   1.0000   1.0000
     1.0000   1.0000   1.0000   1.0000   1.0000   1.0000   1.0000   1.0000
     0.8087  -0.0000  -0.0000  -0.0000  -0.0000

          k = 0.0000-0.5152 0.2708 (  6607 PWs)   bands (ev):

   -49.8683 -26.2698 -25.7880 -25.7080 -11.5836  -9.3016  -8.9140   0.4582
     0.9423   1.4152   2.4749   2.6284   2.7019   3.4072   3.9351   4.1100
     5.6421   8.7173   8.8460   8.8774  10.6836

     occupation numbers 
     1.0000   1.0000   1.0000   1.0000   1.0000   1.0000   1.0000   1.0000
     1.0000   1.0000   1.0000   1.0000   1.0000   1.0000   1.0000   1.0000
     1.0000  -0.0000  -0.0000  -0.0000  -0.0000

          k = 0.1997-0.3435 0.2708 (  6615 PWs)   bands (ev):

   -49.8680 -26.2115 -25.7865 -25.7306 -11.9974  -9.3064  -8.9046   1.0393
     1.6052   1.8209   2.2872   2.7807   2.9770   3.4706   3.6489   4.1619
     5.9199   8.0335   8.0359   8.7804  10.5243

     occupation numbers 
     1.0000   1.0000   1.0000   1.0000   1.0000   1.0000   1.0000   1.0000
     1.0000   1.0000   1.0000   1.0000   1.0000   1.0000   1.0000   1.0000
     1.0000  -0.0000  -0.0000  -0.0000  -0.0000

          k = 0.3993-0.1717 0.2708 (  6636 PWs)   bands (ev):

   -49.8652 -26.1607 -25.7861 -25.7786 -12.2845  -9.2245  -8.8818   1.1689
     1.9886   2.2264   2.4596   2.6309   3.1425   3.3296   3.8213   4.0652
     6.5132   7.1939   7.4030   8.8050  10.2727

     occupation numbers 
[...]

   -49.8702 -26.1667 -25.7919 -25.7113 -12.3235  -9.3160  -9.0033   1.1895
     2.2423   2.5473   2.6489   2.7557   3.2601   3.4979   3.9919   4.0045
     5.5858   7.4605   7.6268   8.9464  10.0689

     occupation numbers 
     1.0000   1.0000   1.0000   1.0000   1.0000   1.0000   1.0000   1.0000
     1.0000   1.0000   1.0000   1.0000   1.0000   1.0000   1.0000   1.0000
     1.0000  -0.0000  -0.0000  -0.0000  -0.0000

          k = 0.1997 0.0000 0.3791 (  6611 PWs)   bands (ev):

   -49.8692 -26.1471 -25.7889 -25.7327 -12.4280  -9.2927  -8.9857   1.2389
     2.1397   2.6332   2.7931   3.0646   3.3220   3.5787   3.8713   3.9041
     5.9252   7.0923   7.4162   8.7958   9.8934

     occupation numbers 
     1.0000   1.0000   1.0000   1.0000   1.0000   1.0000   1.0000   1.0000
     1.0000   1.0000   1.0000   1.0000   1.0000   1.0000   1.0000   1.0000
     1.0000  -0.0007  -0.0000  -0.0000  -0.0000

          k =-1.9966-0.3435-0.1083 (  6623 PWs)   bands (ev):

   -49.8694 -26.2133 -25.7901 -25.7098 -12.0073  -9.2366  -9.0436   1.2143
     1.6545   1.9016   2.3618   2.6805   3.0032   3.1686   3.8677   4.2737
     5.6169   8.0791   8.1188   8.9703  10.5873

     occupation numbers 
     1.0000   1.0000   1.0000   1.0000   1.0000   1.0000   1.0000   1.0000
     1.0000   1.0000   1.0000   1.0000   1.0000   1.0000   1.0000   1.0000
     1.0000  -0.0000  -0.0000  -0.0000  -0.0000

          k =-1.7969-0.1717-0.1083 (  6626 PWs)   bands (ev):

   -49.8688 -26.1650 -25.7882 -25.7321 -12.3124  -9.2405  -9.0252   1.3564
     1.9983   2.4556   2.5451   2.9318   3.0944   3.4858   3.7577   4.0290
     5.9419   7.3715   7.5819   8.8300  10.1920

     occupation numbers 
     1.0000   1.0000   1.0000   1.0000   1.0000   1.0000   1.0000   1.0000
     1.0000   1.0000   1.0000   1.0000   1.0000   1.0000   1.0000   1.0000
     1.0000  -0.0000  -0.0000  -0.0000  -0.0000

          k =-1.5973 0.0000-0.1083 (  6626 PWs)   bands (ev):

   -49.8655 -26.1428 -25.7867 -25.7793 -12.3991  -9.1803  -8.9471   1.3108
     1.7475   2.3124   2.6733   2.8571   3.5143   3.6450   3.7762   3.8633
     6.5995   6.8992   7.2250   8.6827   9.9323

     occupation numbers 
     1.0000   1.0000   1.0000   1.0000   1.0000   1.0000   1.0000   1.0000
     1.0000   1.0000   1.0000   1.0000   1.0000   1.0000   1.0000   1.0000
     0.8229  -0.0312  -0.0000  -0.0000  -0.0000

          k = 0.0000 1.2021-0.0542 (  6619 PWs)   bands (ev):

   -49.8683 -26.2698 -25.7880 -25.7080 -11.5828  -9.1692  -9.0593   0.4528
     1.2460   1.4276   2.3353   2.6887   2.6997   2.9336   3.8340   4.3480
     5.6518   8.7233   8.8588   8.9623  10.8868

     occupation numbers 
     1.0000   1.0000   1.0000   1.0000   1.0000   1.0000   1.0000   1.0000
     1.0000   1.0000   1.0000   1.0000   1.0000   1.0000   1.0000   1.0000
     1.0000  -0.0000  -0.0000  -0.0000  -0.0000

          k =-1.7969-0.3435-0.0542 (  6628 PWs)   bands (ev):

   -49.8680 -26.2115 -25.7865 -25.7306 -11.9966  -9.1635  -9.0610   1.3184
     1.7042   1.9018   2.0002   2.7126   2.9583   3.2677   3.5047   4.2879
     5.9682   8.0339   8.0369   8.8625  10.7034

     occupation numbers 
     1.0000   1.0000   1.0000   1.0000   1.0000   1.0000   1.0000   1.0000
     1.0000   1.0000   1.0000   1.0000   1.0000   1.0000   1.0000   1.0000
     1.0000  -0.0000  -0.0000  -0.0000  -0.0000

          k =-1.5973-0.1717-0.0542 (  6637 PWs)   bands (ev):

   -49.8652 -26.1607 -25.7861 -25.7787 -12.2839  -9.1504  -8.9617   1.3806
     1.6438   2.2766   2.4954   2.6131   3.2872   3.3316   3.6961   4.1008
     6.6193   7.1715   7.4152   8.6890  10.2065

     occupation numbers 
     1.0000   1.0000   1.0000   1.0000   1.0000   1.0000   1.0000   1.0000
     1.0000   1.0000   1.0000   1.0000   1.0000   1.0000   1.0000   1.0000
     0.7405  -0.0001  -0.0000  -0.0000  -0.0000

          k =-1.3976 0.0000-0.0542 (  6631 PWs)   bands (ev):

   -49.8610 -26.1376 -25.8528 -25.7675 -12.3636  -9.0963  -8.8348   1.1149
     1.2832   2.0539   2.5474   2.9640   3.6141   3.6337   3.7904   3.8738
     6.7332   6.9320   7.3791   8.8698   9.7865

     occupation numbers 
     1.0000   1.0000   1.0000   1.0000   1.0000   1.0000   1.0000   1.0000
     1.0000   1.0000   1.0000   1.0000   1.0000   1.0000   1.0000   1.0000
     0.1904  -0.0223  -0.0000  -0.0000  -0.0000

          k =-0.0000 1.0304-0.0000 (  6606 PWs)   bands (ev):

   -49.8675 -26.3147 -25.7863 -25.7065 -11.2036  -9.1877  -8.9971  -0.3849
     0.9822   1.1656   2.4662   2.5271   2.6850   2.7891   3.8672   4.2835
     5.6739   8.9246   9.3077   9.4377  10.9393

     occupation numbers 
     1.0000   1.0000   1.0000   1.0000   1.0000   1.0000   1.0000   1.0000
     1.0000   1.0000   1.0000   1.0000   1.0000   1.0000   1.0000   1.0000
     1.0000  -0.0000  -0.0000  -0.0000  -0.0000

          k = 0.1997 1.2021-0.0000 (  6621 PWs)   bands (ev):

   -49.8669 -26.2680 -25.7844 -25.7287 -11.5727  -9.1037  -9.0677   0.4627
     1.3861   1.3991   2.0363   2.4012   2.9637   3.1272   3.4048   4.3105
     5.9898   8.6398   8.7829   8.9212  11.0229

     occupation numbers 
     1.0000   1.0000   1.0000   1.0000   1.0000   1.0000   1.0000   1.0000
     1.0000   1.0000   1.0000   1.0000   1.0000   1.0000   1.0000   1.0000
     1.0000  -0.0000  -0.0000  -0.0000  -0.0000

          k =-1.5973-0.3435-0.0000 (  6643 PWs)   bands (ev):

   -49.8644 -26.2070 -25.7845 -25.7770 -11.9689  -9.1001  -8.9700   1.4129
     1.4333   1.8223   2.1023   2.1552   2.9346   3.1754   3.5215   4.2173
     6.6340   7.8385   7.9391   8.7388  10.7337

     occupation numbers 
     1.0000   1.0000   1.0000   1.0000   1.0000   1.0000   1.0000   1.0000
     1.0000   1.0000   1.0000   1.0000   1.0000   1.0000   1.0000   1.0000
     0.6724  -0.0000  -0.0000  -0.0000  -0.0000

          k =-1.3976-0.1717-0.0000 (  6646 PWs)   bands (ev):

   -49.8607 -26.1553 -25.8521 -25.7668 -12.2488  -9.0830  -8.8322   1.1284
     1.2945   1.9227   2.4729   2.7029   3.1971   3.4613   3.7400   4.0492
     6.9877   7.1862   7.3909   8.8755  10.0558

     occupation numbers 
     1.0000   1.0000   1.0000   1.0000   1.0000   1.0000   1.0000   1.0000
     1.0000   1.0000   1.0000   1.0000   1.0000   1.0000   1.0000   1.0000
    -0.0091  -0.0000  -0.0000  -0.0000  -0.0000

          k =-1.1980 0.0000-0.0000 (  6615 PWs)   bands (ev):

   -49.8574 -26.1333 -25.9057 -25.7578 -12.3349  -9.0249  -8.7452   0.8316
     1.0559   1.9917   2.3460   3.1161   3.4851   3.6392   3.7750   3.9451
     6.6672   6.6749   8.1255   9.3443   9.6624

     occupation numbers 
     1.0000   1.0000   1.0000   1.0000   1.0000   1.0000   1.0000   1.0000
     1.0000   1.0000   1.0000   1.0000   1.0000   1.0000   1.0000   1.0000
     0.5043   0.4644  -0.0000  -0.0000  -0.0000

          k = 0.0000 0.0000 0.4332 (  6592 PWs)   bands (ev):

   -49.8705 -26.1487 -25.7925 -25.7119 -12.4387  -9.2864  -9.0539   1.3245
     2.2662   2.6723   2.7595   3.3233   3.3265   3.3447   3.8260   4.0687
     5.5772   7.1797   7.5058   8.9876   9.8577

     occupation numbers 
     1.0000   1.0000   1.0000   1.0000   1.0000   1.0000   1.0000   1.0000
     1.0000   1.0000   1.0000   1.0000   1.0000   1.0000   1.0000   1.0000
     1.0000  -0.0000  -0.0000  -0.0000  -0.0000

          k =-1.9966-0.1717-0.0542 (  6610 PWs)   bands (ev):

   -49.8702 -26.1667 -25.7919 -25.7113 -12.3231  -9.2290  -9.0975   1.4073
     2.1631   2.5087   2.6316   2.6928   3.2369   3.4786   3.9578   3.9640
     5.5896   7.4605   7.6548   9.0071  10.1654

     occupation numbers 
     1.0000   1.0000   1.0000   1.0000   1.0000   1.0000   1.0000   1.0000
     1.0000   1.0000   1.0000   1.0000   1.0000   1.0000   1.0000   1.0000
     1.0000  -0.0000  -0.0000  -0.0000  -0.0000

          k =-1.7969 0.0000-0.0542 (  6610 PWs)   bands (ev):

   -49.8692 -26.1471 -25.7889 -25.7327 -12.4276  -9.2217  -9.0627   1.4852
     1.8950   2.6912   2.7798   3.0105   3.4217   3.5536   3.7692   3.8597
     5.9412   7.0890   7.4433   8.8403   9.9240

     occupation numbers 
     1.0000   1.0000   1.0000   1.0000   1.0000   1.0000   1.0000   1.0000
     1.0000   1.0000   1.0000   1.0000   1.0000   1.0000   1.0000   1.0000
     1.0000  -0.0008  -0.0000  -0.0000  -0.0000

          k = 0.0000 1.3738 0.0000 (  6628 PWs)   bands (ev):

   -49.8694 -26.2133 -25.7902 -25.7098 -12.0071  -9.1530  -9.1305   1.2865
     1.7132   1.9109   2.2364   2.7008   2.9983   3.1052   3.8407   4.2970
     5.6201   8.0867   8.1187   8.9974  10.6438

     occupation numbers 
     1.0000   1.0000   1.0000   1.0000   1.0000   1.0000   1.0000   1.0000
     1.0000   1.0000   1.0000   1.0000   1.0000   1.0000   1.0000   1.0000
     1.0000  -0.0000  -0.0000  -0.0000  -0.0000

          k =-1.7969-0.1717 0.0000 (  6613 PWs)   bands (ev):

   -49.8688 -26.1650 -25.7882 -25.7321 -12.3123  -9.1883  -9.0804   1.5150
     1.8493   2.4902   2.5206   2.9558   3.0583   3.4750   3.7323   4.0200
     5.9511   7.3704   7.5910   8.8529  10.2133

     occupation numbers 
     1.0000   1.0000   1.0000   1.0000   1.0000   1.0000   1.0000   1.0000
     1.0000   1.0000   1.0000   1.0000   1.0000   1.0000   1.0000   1.0000
     1.0000  -0.0000  -0.0000  -0.0000  -0.0000

          k =-1.5973 0.0000 0.0000 (  6625 PWs)   bands (ev):

   -49.8655 -26.1428 -25.7867 -25.7793 -12.3990  -9.1608  -8.9678   1.3967
     1.6301   2.3389   2.6653   2.8485   3.5903   3.6805   3.7081   3.8407
     6.6214   6.8919   7.2299   8.6640   9.9126

     occupation numbers 
     1.0000   1.0000   1.0000   1.0000   1.0000   1.0000   1.0000   1.0000
     1.0000   1.0000   1.0000   1.0000   1.0000   1.0000   1.0000   1.0000
     0.7312  -0.0328  -0.0000  -0.0000  -0.0000

          k =-1.9966-1.7173-0.5415 (  6606 PWs)   bands (ev):

   -49.8705 -26.1487 -25.7926 -25.7119 -12.4385  -9.2222  -9.1221   1.4813
     2.1146   2.6981   2.7540   3.3042   3.3091   3.3847   3.7622   4.0476
     5.5772   7.1798   7.5245   9.0211   9.8991

     occupation numbers 
     1.0000   1.0000   1.0000   1.0000   1.0000   1.0000   1.0000   1.0000
     1.0000   1.0000   1.0000   1.0000   1.0000   1.0000   1.0000   1.0000
     1.0000  -0.0000  -0.0000  -0.0000  -0.0000

     the Fermi energy is     6.6681 ev

!    total energy              =    -534.96619543 Ry

     total all-electron energy =     -9636.856438 Ry
     estimated scf accuracy    <          2.6E-11 Ry
     smearing contrib. (-TS)   =      -0.00010184 Ry
     internal energy E=F+TS    =    -534.96609359 Ry

     The total energy is F=E-TS. E is the sum of the following terms:
     one-electron contribution =     -93.92769644 Ry
     hartree contribution      =      61.19788288 Ry
     xc contribution           =     -39.53676603 Ry
     ewald contribution        =    -135.48921389 Ry
     one-center paw contrib.   =    -327.21030011 Ry
      -> PAW hartree energy AE =      29.12022711 Ry
      -> PAW hartree energy PS =     -29.09014499 Ry
      -> PAW xc energy AE      =     -17.04256263 Ry
      -> PAW xc energy PS      =       7.41837635 Ry
      -> total E_H with PAW    =      61.22796500 Ry
      -> total E_XC with PAW   =     -49.16095231 Ry

     convergence has been achieved in  13 iterations

     Forces acting on atoms (cartesian axes, Ry/au):

     atom    1 type  1   force =     0.00000000    0.00000000    0.00000000
     atom    2 type  2   force =     0.00000000    0.00000000    0.03581839
     atom    3 type  2   force =     0.00000000    0.00000000   -0.03581839
     atom    4 type  3   force =     0.00000000    0.00000000    0.00000000
     The non-local contrib.  to forces
     atom    1 type  1   force =    -0.00000000   -0.00000000    0.00000000
     atom    2 type  2   force =     0.00000000    0.00000000    0.07040944
     atom    3 type  2   force =     0.00000000    0.00000000   -0.07040944
     atom    4 type  3   force =    -0.00000000   -0.00000000    0.00000000
     The ionic contribution  to forces
     atom    1 type  1   force =    -0.00000000   -0.00000000    0.00000000
     atom    2 type  2   force =     0.00000001    0.00000000  -10.07462875
     atom    3 type  2   force =    -0.00000001   -0.00000000   10.07462875
     atom    4 type  3   force =    -0.00000000   -0.00000000    0.00000000
     The local contribution  to forces
     atom    1 type  1   force =    -0.00000000    0.00000000    0.00000000
     atom    2 type  2   force =     0.00000002   -0.00000003   10.03863912
     atom    3 type  2   force =    -0.00000002    0.00000003  -10.03863912
     atom    4 type  3   force =     0.00000000    0.00000000    0.00000000
     The core correction contribution to forces
     atom    1 type  1   force =     0.00000000    0.00000000    0.00000000
     atom    2 type  2   force =    -0.00000000    0.00000000    0.00139677
     atom    3 type  2   force =     0.00000000   -0.00000000   -0.00139677
     atom    4 type  3   force =     0.00000000    0.00000000    0.00000000
     The Hubbard contrib.    to forces
     atom    1 type  1   force =     0.00000000    0.00000000    0.00000000
     atom    2 type  2   force =     0.00000000    0.00000000    0.00000000
     atom    3 type  2   force =     0.00000000    0.00000000    0.00000000
     atom    4 type  3   force =     0.00000000    0.00000000    0.00000000
     The SCF correction term to forces
     atom    1 type  1   force =     0.00000000    0.00000000    0.00000000
     atom    2 type  2   force =    -0.00000000    0.00000000    0.00000180
     atom    3 type  2   force =     0.00000000   -0.00000000   -0.00000180
     atom    4 type  3   force =    -0.00000000   -0.00000000    0.00000000

     Total force =     0.050655     Total SCF correction =     0.000003


     Computing stress (Cartesian axis) and pressure

          total   stress  (Ry/bohr**3)                   (kbar)     P=      -39.17
  -0.00028182  -0.00000000   0.00000000          -41.46       -0.00        0.00
   0.00000000  -0.00025840   0.00000000            0.00      -38.01        0.00
   0.00000000  -0.00000000  -0.00025850            0.00       -0.00      -38.03

     kinetic stress (kbar)  14779.27     -0.00      0.00
                                0.00  14772.98      0.00
                                0.00     -0.00  14794.55

     local   stress (kbar) -18930.31      0.00      0.00
                                0.00 -24136.55      0.00
                                0.00      0.00   4068.70

     nonloc. stress (kbar)   8009.55      0.00      0.00
                                0.00   7932.88      0.00
                                0.00      0.00   8007.84

     hartree stress (kbar)   8385.48      0.00      0.00
                                0.00  10085.04      0.00
                                0.00      0.00  -2040.51

     exc-cor stress (kbar)  -1130.79     -0.00     -0.00
                               -0.00  -1122.10     -0.00
                               -0.00     -0.00  -1130.36

     corecor stress (kbar)  -2029.53     -0.00      0.00
                               -0.00  -2028.81      0.00
                                0.00      0.00  -2029.54

     ewald   stress (kbar)  -9125.13     -0.00     -0.00
                               -0.00  -5541.44     -0.00
                               -0.00     -0.00 -21708.70

     hubbard stress (kbar)      0.00      0.00      0.00
                                0.00      0.00      0.00
                                0.00      0.00      0.00

     DFT-D   stress (kbar)      0.00      0.00      0.00
                                0.00      0.00      0.00
                                0.00      0.00      0.00

     XDM     stress (kbar)      0.00      0.00      0.00
                                0.00      0.00      0.00
                                0.00      0.00      0.00

     dft-nl  stress (kbar)      0.00      0.00      0.00
                                0.00      0.00      0.00
                                0.00      0.00      0.00

     TS-vdW  stress (kbar)      0.00      0.00      0.00
                                0.00      0.00      0.00
                                0.00      0.00      0.00



     Writing output data file /zfs_data/gutierre/Scratch/Cl2NbO/convergence/cutoff/10x10x10/80/tmp/Cl2NbO.save/
 
     init_run     :      3.68s CPU      3.90s WALL (       1 calls)
     electrons    :    102.17s CPU    104.48s WALL (       1 calls)
     forces       :      0.49s CPU      0.50s WALL (       1 calls)
     stress       :      1.16s CPU      1.16s WALL (       1 calls)

     Called by init_run:
     wfcinit      :      3.04s CPU      3.13s WALL (       1 calls)
     wfcinit:atom :      0.01s CPU      0.02s WALL (     171 calls)
     wfcinit:wfcr :      2.97s CPU      3.06s WALL (     171 calls)
     potinit      :      0.22s CPU      0.32s WALL (       1 calls)
     hinit0       :      0.27s CPU      0.28s WALL (       1 calls)

     Called by electrons:
     c_bands      :     82.90s CPU     84.78s WALL (      13 calls)
     sum_band     :     17.28s CPU     17.65s WALL (      13 calls)
     v_of_rho     :      0.64s CPU      0.67s WALL (      14 calls)
     v_h          :      0.05s CPU      0.05s WALL (      14 calls)
     v_xc         :      0.67s CPU      0.70s WALL (      16 calls)
     newd         :      0.56s CPU      0.57s WALL (      14 calls)
     PAW_pot      :      0.73s CPU      0.74s WALL (      14 calls)
     mix_rho      :      0.09s CPU      0.10s WALL (      13 calls)

     Called by c_bands:
     init_us_2    :      0.66s CPU      0.69s WALL (    4959 calls)
     cegterg      :     81.26s CPU     83.02s WALL (    2223 calls)

     Called by sum_band:
     sum_band:wei :      0.07s CPU      0.08s WALL (      13 calls)
     sum_band:loo :     16.57s CPU     16.90s WALL (      13 calls)
     sum_band:buf :      0.06s CPU      0.06s WALL (    2223 calls)
     sum_band:ini :      0.31s CPU      0.32s WALL (    2223 calls)
     sum_band:cal :      0.29s CPU      0.30s WALL (    2223 calls)
     sum_band:bec :      0.06s CPU      0.06s WALL (    2223 calls)
     addusdens    :      0.56s CPU      0.58s WALL (      13 calls)
     addusd:skk   :      0.00s CPU      0.00s WALL (      39 calls)
     addusd:dgemm :      0.18s CPU      0.19s WALL (      39 calls)
     addusd:qvan2 :      0.35s CPU      0.35s WALL (      39 calls)

     Called by *egterg:
     cdiaghg      :      4.60s CPU      4.73s WALL (    8035 calls)
     cegterg:over :      0.90s CPU      0.93s WALL (    5812 calls)
     cegterg:upda :      0.27s CPU      0.28s WALL (    5812 calls)
     cegterg:last :      0.44s CPU      0.44s WALL (    4376 calls)
     h_psi        :     76.56s CPU     78.21s WALL (    8206 calls)
     s_psi        :      0.32s CPU      0.33s WALL (    8206 calls)
     g_psi        :      0.06s CPU      0.07s WALL (    5812 calls)

     Called by h_psi:
     h_psi:calbec :      1.04s CPU      1.07s WALL (    8206 calls)
     vloc_psi     :     74.83s CPU     76.44s WALL (    8206 calls)
     add_vuspsi   :      0.50s CPU      0.51s WALL (    8206 calls)

     General routines
     calbec       :      1.36s CPU      1.39s WALL (   11284 calls)
     fft          :      0.52s CPU      0.53s WALL (     205 calls)
     ffts         :      0.02s CPU      0.10s WALL (      27 calls)
     fftw         :     85.12s CPU     86.98s WALL (  280659 calls)
     interpolate  :      0.05s CPU      0.13s WALL (      14 calls)
 
     Parallel routines
     fft_scatt_xy :      7.20s CPU      7.29s WALL (  280891 calls)
     fft_scatt_yz :     28.85s CPU     29.45s WALL (  280891 calls)

     PAW routines
     PAW_pot      :      0.73s CPU      0.74s WALL (      14 calls)
     PAW_symme    :      0.02s CPU      0.02s WALL (      27 calls)
 
     PWSCF        :   1m48.72s CPU   1m52.46s WALL

 
   This run was terminated on:  15:55:58  18May2022            

=------------------------------------------------------------------------------=
   JOB DONE.
=------------------------------------------------------------------------------=
