MPI startup(): Warning: I_MPI_PMI_LIBRARY will be ignored since the hydra process manager was found
MPI startup(): Warning: I_MPI_PMI_LIBRARY will be ignored since the hydra process manager was found
MPI startup(): Warning: I_MPI_PMI_LIBRARY will be ignored since the hydra process manager was found
MPI startup(): Warning: I_MPI_PMI_LIBRARY will be ignored since the hydra process manager was found
MPI startup(): Warning: I_MPI_PMI_LIBRARY will be ignored since the hydra process manager was found
MPI startup(): Warning: I_MPI_PMI_LIBRARY will be ignored since the hydra process manager was found
MPI startup(): Warning: I_MPI_PMI_LIBRARY will be ignored since the hydra process manager was found
MPI startup(): Warning: I_MPI_PMI_LIBRARY will be ignored since the hydra process manager was found
MPI startup(): Warning: I_MPI_PMI_LIBRARY will be ignored since the hydra process manager was found
MPI startup(): Warning: I_MPI_PMI_LIBRARY will be ignored since the hydra process manager was found
MPI startup(): Warning: I_MPI_PMI_LIBRARY will be ignored since the hydra process manager was found
MPI startup(): Warning: I_MPI_PMI_LIBRARY will be ignored since the hydra process manager was found
MPI startup(): Warning: I_MPI_PMI_LIBRARY will be ignored since the hydra process manager was found
MPI startup(): Warning: I_MPI_PMI_LIBRARY will be ignored since the hydra process manager was found
MPI startup(): Warning: I_MPI_PMI_LIBRARY will be ignored since the hydra process manager was found
MPI startup(): Warning: I_MPI_PMI_LIBRARY will be ignored since the hydra process manager was found
MPI startup(): Warning: I_MPI_PMI_LIBRARY will be ignored since the hydra process manager was found
MPI startup(): Warning: I_MPI_PMI_LIBRARY will be ignored since the hydra process manager was found
MPI startup(): Warning: I_MPI_PMI_LIBRARY will be ignored since the hydra process manager was found
MPI startup(): Warning: I_MPI_PMI_LIBRARY will be ignored since the hydra process manager was found
MPI startup(): Warning: I_MPI_PMI_LIBRARY will be ignored since the hydra process manager was found
MPI startup(): Warning: I_MPI_PMI_LIBRARY will be ignored since the hydra process manager was found
MPI startup(): Warning: I_MPI_PMI_LIBRARY will be ignored since the hydra process manager was found
MPI startup(): Warning: I_MPI_PMI_LIBRARY will be ignored since the hydra process manager was found

     Program PWSCF v.6.7MaX starts on 30Jul2021 at 18:45:45 

     This program is part of the open-source Quantum ESPRESSO suite
     for quantum simulation of materials; please cite
         "P. Giannozzi et al., J. Phys.:Condens. Matter 21 395502 (2009);
         "P. Giannozzi et al., J. Phys.:Condens. Matter 29 465901 (2017);
          URL http://www.quantum-espresso.org", 
     in publications or presentations arising from this work. More details at
     http://www.quantum-espresso.org/quote

     Parallel version (MPI), running on    24 processors

     MPI processes distributed on     1 nodes
     R & G space division:  proc/nbgrp/npool/nimage =      24
     Waiting for input...
     Reading input from standard input

     Current dimensions of program PWSCF are:
     Max number of different atomic species (ntypx) = 10
     Max number of k-points (npk) =  40000
     Max angular momentum in pseudopotentials (lmaxx) =  3
     file Cr.rel-pbe-spn-kjpaw_psl.1.0.0.UPF: wavefunction(s)  3S 3P 3P 3D 3D renormalized
     file Si.rel-pbe-n-kjpaw_psl.1.0.0.UPF: wavefunction(s)  3S 3P 3P renormalized

     Subspace diagonalization in iterative solution of the eigenvalue problem:
     a serial algorithm will be used

     Message from routine setup:
     using ibrav=0 with symmetry is DISCOURAGED, use correct ibrav instead
 
     Parallelization info
     --------------------
     sticks:   dense  smooth     PW     G-vecs:    dense   smooth      PW
     Min         280     112     31                17184     4344     645
     Max         281     113     32                17186     4347     650
     Sum        6721    2693    749               412421   104295   15515
 


     bravais-lattice index     =            0
     lattice parameter (alat)  =       8.7475  a.u.
     unit-cell volume          =     669.3575 (a.u.)^3
     number of atoms/cell      =            8
     number of atomic types    =            2
     number of electrons       =        72.00
     number of Kohn-Sham states=           86
     kinetic-energy cutoff     =     110.0000  Ry
     charge density cutoff     =    1100.0000  Ry
     scf convergence threshold =      1.0E-06
     mixing beta               =       0.7000
     number of iterations used =            8  plain     mixing
     Exchange-correlation= SLA  PW   PBX  PBC
                           (   1   4   3   4   0   0   0)
     Non magnetic calculation with spin-orbit


     celldm(1)=   8.747542  celldm(2)=   0.000000  celldm(3)=   0.000000
     celldm(4)=   0.000000  celldm(5)=   0.000000  celldm(6)=   0.000000

     crystal axes: (cart. coord. in units of alat)
               a(1) = (   1.000000   0.000000   0.000000 )  
               a(2) = (   0.000000   1.000000   0.000000 )  
               a(3) = (   0.000000   0.000000   1.000000 )  

     reciprocal axes: (cart. coord. in units 2 pi/alat)
               b(1) = (  1.000000  0.000000  0.000000 )  
               b(2) = (  0.000000  1.000000  0.000000 )  
               b(3) = (  0.000000  0.000000  1.000000 )  


     PseudoPot. # 1 for Cr read from file:
     ../../../../pseudo/Cr.rel-pbe-spn-kjpaw_psl.1.0.0.UPF
     MD5 check sum: 1e24e2b5251376a8b945118fca0c7981
     Pseudo is Projector augmented-wave + core cor, Zval = 14.0
     Generated using &quot;atomic&quot; code by A. Dal Corso  v.6.3
     Shape of augmentation charge: PSQ
     Using radial grid of 1183 points, 10 beta functions with: 
                l(1) =   0
                l(2) =   0
                l(3) =   1
                l(4) =   1
                l(5) =   1
                l(6) =   1
                l(7) =   2
                l(8) =   2
                l(9) =   2
               l(10) =   2
     Q(r) pseudized with 0 coefficients 


     PseudoPot. # 2 for Si read from file:
     ../../../../pseudo/Si.rel-pbe-n-kjpaw_psl.1.0.0.UPF
     MD5 check sum: d74f6caf6830ea4c2076867160cab1b0
     Pseudo is Projector augmented-wave + core cor, Zval =  4.0
     Generated using &quot;atomic&quot; code by A. Dal Corso  v.6.3
     Shape of augmentation charge: PSQ
     Using radial grid of 1141 points, 10 beta functions with: 
                l(1) =   0
                l(2) =   0
                l(3) =   1
                l(4) =   1
                l(5) =   1
                l(6) =   1
                l(7) =   2
                l(8) =   2
                l(9) =   2
               l(10) =   2
     Q(r) pseudized with 0 coefficients 


     atomic species   valence    mass     pseudopotential
        Cr            14.00    51.99600     Cr( 1.00)
        Si             4.00    28.08500     Si( 1.00)

     12 Sym. Ops. (no inversion) found ( 9 have fractional translation)


                                    s                        frac. trans.

      isym =  1     identity                                     

 cryst.   s( 1) = (     1          0          0      )
                  (     0          1          0      )
                  (     0          0          1      )

 cart.    s( 1) = (  1.0000000  0.0000000  0.0000000 )
                  (  0.0000000  1.0000000  0.0000000 )
                  (  0.0000000  0.0000000  1.0000000 )


      isym =  2     180 deg rotation - cart. axis [0,0,1]        

 cryst.   s( 2) = (    -1          0          0      )    f =(  0.5000000 )
                  (     0         -1          0      )       (  0.0000000 )
                  (     0          0          1      )       ( -0.5000000 )

 cart.    s( 2) = ( -1.0000000  0.0000000  0.0000000 )    f =(  0.5000000 )
                  (  0.0000000 -1.0000000  0.0000000 )       (  0.0000000 )
                  (  0.0000000  0.0000000  1.0000000 )       ( -0.5000000 )


      isym =  3     180 deg rotation - cart. axis [0,1,0]        

 cryst.   s( 3) = (    -1          0          0      )    f =(  0.0000000 )
                  (     0          1          0      )       ( -0.5000000 )
                  (     0          0         -1      )       (  0.5000000 )

 cart.    s( 3) = ( -1.0000000  0.0000000  0.0000000 )    f =(  0.0000000 )
                  (  0.0000000  1.0000000  0.0000000 )       ( -0.5000000 )
                  (  0.0000000  0.0000000 -1.0000000 )       (  0.5000000 )


      isym =  4     180 deg rotation - cart. axis [1,0,0]        

 cryst.   s( 4) = (     1          0          0      )    f =(  0.5000000 )
                  (     0         -1          0      )       (  0.5000000 )
                  (     0          0         -1      )       (  0.0000000 )

 cart.    s( 4) = (  1.0000000  0.0000000  0.0000000 )    f =(  0.5000000 )
                  (  0.0000000 -1.0000000  0.0000000 )       (  0.5000000 )
                  (  0.0000000  0.0000000 -1.0000000 )       (  0.0000000 )


      isym =  5     120 deg rotation - cart. axis [-1,-1,-1]     

 cryst.   s( 5) = (     0          0          1      )
                  (     1          0          0      )
                  (     0          1          0      )

 cart.    s( 5) = (  0.0000000  1.0000000  0.0000000 )
                  (  0.0000000  0.0000000  1.0000000 )
                  (  1.0000000  0.0000000  0.0000000 )


      isym =  6     120 deg rotation - cart. axis [-1,1,1]       

 cryst.   s( 6) = (     0          0         -1      )    f =(  0.0000000 )
                  (    -1          0          0      )       ( -0.5000000 )
                  (     0          1          0      )       (  0.5000000 )

 cart.    s( 6) = (  0.0000000 -1.0000000  0.0000000 )    f =(  0.0000000 )
                  (  0.0000000  0.0000000  1.0000000 )       ( -0.5000000 )
                  ( -1.0000000  0.0000000  0.0000000 )       (  0.5000000 )


      isym =  7     120 deg rotation - cart. axis [1,1,-1]       

 cryst.   s( 7) = (     0          0         -1      )    f =(  0.5000000 )
                  (     1          0          0      )       (  0.5000000 )
                  (     0         -1          0      )       (  0.0000000 )

 cart.    s( 7) = (  0.0000000  1.0000000  0.0000000 )    f =(  0.5000000 )
                  (  0.0000000  0.0000000 -1.0000000 )       (  0.5000000 )
                  ( -1.0000000  0.0000000  0.0000000 )       (  0.0000000 )


      isym =  8     120 deg rotation - cart. axis [1,-1,1]       

 cryst.   s( 8) = (     0          0          1      )    f =(  0.5000000 )
                  (    -1          0          0      )       (  0.0000000 )
                  (     0         -1          0      )       ( -0.5000000 )

 cart.    s( 8) = (  0.0000000 -1.0000000  0.0000000 )    f =(  0.5000000 )
                  (  0.0000000  0.0000000 -1.0000000 )       (  0.0000000 )
                  (  1.0000000  0.0000000  0.0000000 )       ( -0.5000000 )


      isym =  9     120 deg rotation - cart. axis [1,1,1]        

 cryst.   s( 9) = (     0          1          0      )
                  (     0          0          1      )
                  (     1          0          0      )

 cart.    s( 9) = (  0.0000000  0.0000000  1.0000000 )
                  (  1.0000000  0.0000000  0.0000000 )
                  (  0.0000000  1.0000000  0.0000000 )


      isym = 10     120 deg rotation - cart. axis [-1,1,-1]      

 cryst.   s(10) = (     0         -1          0      )    f =(  0.5000000 )
                  (     0          0         -1      )       (  0.5000000 )
                  (     1          0          0      )       (  0.0000000 )

 cart.    s(10) = (  0.0000000  0.0000000  1.0000000 )    f =(  0.5000000 )
                  ( -1.0000000  0.0000000  0.0000000 )       (  0.5000000 )
                  (  0.0000000 -1.0000000  0.0000000 )       (  0.0000000 )


      isym = 11     120 deg rotation - cart. axis [1,-1,-1]      

 cryst.   s(11) = (     0         -1          0      )    f =(  0.5000000 )
                  (     0          0          1      )       (  0.0000000 )
                  (    -1          0          0      )       ( -0.5000000 )

 cart.    s(11) = (  0.0000000  0.0000000 -1.0000000 )    f =(  0.5000000 )
                  ( -1.0000000  0.0000000  0.0000000 )       (  0.0000000 )
                  (  0.0000000  1.0000000  0.0000000 )       ( -0.5000000 )


      isym = 12     120 deg rotation - cart. axis [-1,-1,1]      

 cryst.   s(12) = (     0          1          0      )    f =(  0.0000000 )
                  (     0          0         -1      )       ( -0.5000000 )
                  (    -1          0          0      )       (  0.5000000 )

 cart.    s(12) = (  0.0000000  0.0000000 -1.0000000 )    f =(  0.0000000 )
                  (  1.0000000  0.0000000  0.0000000 )       ( -0.5000000 )
                  (  0.0000000 -1.0000000  0.0000000 )       (  0.5000000 )


   Cartesian axes

     site n.     atom                  positions (alat units)
         1           Cr  tau(   1) = (   0.8640000   0.3640000   0.1360000  )
         2           Cr  tau(   2) = (   0.3640000   0.1360000   0.8640000  )
         3           Cr  tau(   3) = (   0.1360000   0.8640000   0.3640000  )
         4           Cr  tau(   4) = (   0.6360000   0.6360000   0.6360000  )
         5           Si  tau(   5) = (   0.1540000   0.6540000   0.8460000  )
         6           Si  tau(   6) = (   0.6540000   0.8460000   0.1540000  )
         7           Si  tau(   7) = (   0.8460000   0.1540000   0.6540000  )
         8           Si  tau(   8) = (   0.3460000   0.3460000   0.3460000  )

   Crystallographic axes

     site n.     atom                  positions (cryst. coord.)
         1           Cr  tau(   1) = (  0.8640000  0.3640000  0.1360000  )
         2           Cr  tau(   2) = (  0.3640000  0.1360000  0.8640000  )
         3           Cr  tau(   3) = (  0.1360000  0.8640000  0.3640000  )
         4           Cr  tau(   4) = (  0.6360000  0.6360000  0.6360000  )
         5           Si  tau(   5) = (  0.1540000  0.6540000  0.8460000  )
         6           Si  tau(   6) = (  0.6540000  0.8460000  0.1540000  )
         7           Si  tau(   7) = (  0.8460000  0.1540000  0.6540000  )
         8           Si  tau(   8) = (  0.3460000  0.3460000  0.3460000  )

     number of k points=    45  Methfessel-Paxton smearing, width (Ry)=  0.0200
                       cart. coord. in units 2pi/alat
        k(    1) = (   0.0000000   0.0000000   0.0000000), wk =   0.0019531
        k(    2) = (   0.0000000   0.0000000   0.1250000), wk =   0.0117188
        k(    3) = (   0.0000000   0.0000000   0.2500000), wk =   0.0117188
        k(    4) = (   0.0000000   0.0000000   0.3750000), wk =   0.0117188
        k(    5) = (   0.0000000   0.0000000  -0.5000000), wk =   0.0058594
        k(    6) = (   0.0000000   0.1250000   0.1250000), wk =   0.0234375
        k(    7) = (   0.0000000   0.1250000   0.2500000), wk =   0.0234375
        k(    8) = (   0.0000000   0.1250000   0.3750000), wk =   0.0234375
        k(    9) = (   0.0000000   0.1250000  -0.5000000), wk =   0.0117188
        k(   10) = (   0.0000000   0.2500000   0.2500000), wk =   0.0234375
        k(   11) = (   0.0000000   0.2500000   0.3750000), wk =   0.0234375
        k(   12) = (   0.0000000   0.2500000  -0.5000000), wk =   0.0117188
        k(   13) = (   0.0000000   0.3750000   0.3750000), wk =   0.0234375
        k(   14) = (   0.0000000   0.3750000  -0.5000000), wk =   0.0117188
        k(   15) = (   0.0000000  -0.5000000  -0.5000000), wk =   0.0058594
        k(   16) = (   0.1250000   0.1250000   0.1250000), wk =   0.0156250
        k(   17) = (   0.1250000   0.1250000   0.2500000), wk =   0.0468750
        k(   18) = (   0.1250000   0.1250000   0.3750000), wk =   0.0468750
        k(   19) = (   0.1250000   0.1250000  -0.5000000), wk =   0.0234375
        k(   20) = (   0.1250000   0.2500000   0.2500000), wk =   0.0468750
        k(   21) = (   0.1250000   0.2500000   0.3750000), wk =   0.0468750
        k(   22) = (   0.1250000   0.2500000  -0.5000000), wk =   0.0234375
        k(   23) = (   0.1250000   0.3750000   0.3750000), wk =   0.0468750
        k(   24) = (   0.1250000   0.3750000  -0.5000000), wk =   0.0234375
        k(   25) = (   0.1250000  -0.5000000  -0.5000000), wk =   0.0117188
        k(   26) = (   0.2500000   0.2500000   0.2500000), wk =   0.0156250
        k(   27) = (   0.2500000   0.2500000   0.3750000), wk =   0.0468750
        k(   28) = (   0.2500000   0.2500000  -0.5000000), wk =   0.0234375
        k(   29) = (   0.2500000   0.3750000   0.3750000), wk =   0.0468750
        k(   30) = (   0.2500000   0.3750000  -0.5000000), wk =   0.0234375
        k(   31) = (   0.2500000  -0.5000000  -0.5000000), wk =   0.0117188
        k(   32) = (   0.3750000   0.3750000   0.3750000), wk =   0.0156250
        k(   33) = (   0.3750000   0.3750000  -0.5000000), wk =   0.0234375
        k(   34) = (   0.3750000  -0.5000000  -0.5000000), wk =   0.0117188
        k(   35) = (  -0.5000000  -0.5000000  -0.5000000), wk =   0.0019531
        k(   36) = (   0.0000000   0.2500000   0.1250000), wk =   0.0234375
        k(   37) = (   0.0000000   0.3750000   0.1250000), wk =   0.0234375
        k(   38) = (   0.0000000  -0.5000000   0.1250000), wk =   0.0117188
        k(   39) = (   0.0000000   0.3750000   0.2500000), wk =   0.0234375
        k(   40) = (   0.0000000  -0.5000000   0.2500000), wk =   0.0117188
        k(   41) = (   0.0000000  -0.5000000   0.3750000), wk =   0.0117188
        k(   42) = (  -0.1250000   0.3750000   0.2500000), wk =   0.0468750
        k(   43) = (  -0.1250000  -0.5000000   0.2500000), wk =   0.0234375
        k(   44) = (  -0.1250000  -0.5000000   0.3750000), wk =   0.0234375
        k(   45) = (  -0.2500000  -0.5000000   0.3750000), wk =   0.0234375

                       cryst. coord.
        k(    1) = (   0.0000000   0.0000000   0.0000000), wk =   0.0019531
        k(    2) = (   0.0000000   0.0000000   0.1250000), wk =   0.0117188
        k(    3) = (   0.0000000   0.0000000   0.2500000), wk =   0.0117188
        k(    4) = (   0.0000000   0.0000000   0.3750000), wk =   0.0117188
        k(    5) = (   0.0000000   0.0000000  -0.5000000), wk =   0.0058594
        k(    6) = (   0.0000000   0.1250000   0.1250000), wk =   0.0234375
        k(    7) = (   0.0000000   0.1250000   0.2500000), wk =   0.0234375
        k(    8) = (   0.0000000   0.1250000   0.3750000), wk =   0.0234375
        k(    9) = (   0.0000000   0.1250000  -0.5000000), wk =   0.0117188
        k(   10) = (   0.0000000   0.2500000   0.2500000), wk =   0.0234375
        k(   11) = (   0.0000000   0.2500000   0.3750000), wk =   0.0234375
        k(   12) = (   0.0000000   0.2500000  -0.5000000), wk =   0.0117188
        k(   13) = (   0.0000000   0.3750000   0.3750000), wk =   0.0234375
        k(   14) = (   0.0000000   0.3750000  -0.5000000), wk =   0.0117188
        k(   15) = (   0.0000000  -0.5000000  -0.5000000), wk =   0.0058594
        k(   16) = (   0.1250000   0.1250000   0.1250000), wk =   0.0156250
        k(   17) = (   0.1250000   0.1250000   0.2500000), wk =   0.0468750
        k(   18) = (   0.1250000   0.1250000   0.3750000), wk =   0.0468750
        k(   19) = (   0.1250000   0.1250000  -0.5000000), wk =   0.0234375
        k(   20) = (   0.1250000   0.2500000   0.2500000), wk =   0.0468750
        k(   21) = (   0.1250000   0.2500000   0.3750000), wk =   0.0468750
        k(   22) = (   0.1250000   0.2500000  -0.5000000), wk =   0.0234375
        k(   23) = (   0.1250000   0.3750000   0.3750000), wk =   0.0468750
        k(   24) = (   0.1250000   0.3750000  -0.5000000), wk =   0.0234375
        k(   25) = (   0.1250000  -0.5000000  -0.5000000), wk =   0.0117188
        k(   26) = (   0.2500000   0.2500000   0.2500000), wk =   0.0156250
        k(   27) = (   0.2500000   0.2500000   0.3750000), wk =   0.0468750
        k(   28) = (   0.2500000   0.2500000  -0.5000000), wk =   0.0234375
        k(   29) = (   0.2500000   0.3750000   0.3750000), wk =   0.0468750
        k(   30) = (   0.2500000   0.3750000  -0.5000000), wk =   0.0234375
        k(   31) = (   0.2500000  -0.5000000  -0.5000000), wk =   0.0117188
        k(   32) = (   0.3750000   0.3750000   0.3750000), wk =   0.0156250
        k(   33) = (   0.3750000   0.3750000  -0.5000000), wk =   0.0234375
        k(   34) = (   0.3750000  -0.5000000  -0.5000000), wk =   0.0117188
        k(   35) = (  -0.5000000  -0.5000000  -0.5000000), wk =   0.0019531
        k(   36) = (   0.0000000   0.2500000   0.1250000), wk =   0.0234375
        k(   37) = (   0.0000000   0.3750000   0.1250000), wk =   0.0234375
        k(   38) = (   0.0000000  -0.5000000   0.1250000), wk =   0.0117188
        k(   39) = (   0.0000000   0.3750000   0.2500000), wk =   0.0234375
        k(   40) = (   0.0000000  -0.5000000   0.2500000), wk =   0.0117188
        k(   41) = (   0.0000000  -0.5000000   0.3750000), wk =   0.0117188
        k(   42) = (  -0.1250000   0.3750000   0.2500000), wk =   0.0468750
        k(   43) = (  -0.1250000  -0.5000000   0.2500000), wk =   0.0234375
        k(   44) = (  -0.1250000  -0.5000000   0.3750000), wk =   0.0234375
        k(   45) = (  -0.2500000  -0.5000000   0.3750000), wk =   0.0234375

     Dense  grid:   412421 G-vectors     FFT dimensions: (  96,  96,  96)

     Smooth grid:   104295 G-vectors     FFT dimensions: (  60,  60,  60)

     Dynamical RAM for                 wfc:       1.43 MB

     Dynamical RAM for     wfc (w. buffer):      65.56 MB

     Dynamical RAM for           str. fact:       0.52 MB

     Dynamical RAM for           local pot:       0.00 MB

     Dynamical RAM for          nlocal pot:       2.25 MB

     Dynamical RAM for                qrad:      13.93 MB

     Dynamical RAM for          rho,v,vnew:       6.52 MB

     Dynamical RAM for               rhoin:       2.17 MB

     Dynamical RAM for            rho*nmix:      16.78 MB

     Dynamical RAM for           G-vectors:       1.02 MB

     Dynamical RAM for          h,s,v(r/c):       1.35 MB

     Dynamical RAM for          <psi|beta>:       0.71 MB

     Dynamical RAM for                 psi:       2.85 MB

     Dynamical RAM for                hpsi:       2.85 MB

     Dynamical RAM for                spsi:       2.85 MB

     Dynamical RAM for      wfcinit/wfcrot:       3.07 MB

     Dynamical RAM for           addusdens:     161.01 MB

     Estimated static dynamical RAM per process >     111.80 MB

     Estimated max dynamical RAM per process >     272.81 MB

     Estimated total dynamical RAM >       6.39 GB

     Initial potential from superposition of free atoms

     starting charge   71.99469, renormalised to   72.00000
     Starting wfcs are  112 randomized atomic wfcs
     Checking if some PAW data can be deallocated... 
       PAW data deallocated on   12 nodes for type:  1
       PAW data deallocated on   12 nodes for type:  2

     total cpu time spent up to now is       10.9 secs

     Self-consistent Calculation

     iteration #  1     ecut=   110.00 Ry     beta= 0.70
     Davidson diagonalization with overlap
     ethr =  1.00E-02,  avg # of iterations =  2.0

     Threshold (ethr) on eigenvalues was too large:
     Diagonalizing with lowered threshold

     Davidson diagonalization with overlap
     ethr =  2.09E-04,  avg # of iterations =  4.3

     total cpu time spent up to now is       58.0 secs

     total energy              =   -1180.31082612 Ry
     estimated scf accuracy    <       0.18934723 Ry

     iteration #  2     ecut=   110.00 Ry     beta= 0.70
     Davidson diagonalization with overlap
     ethr =  2.63E-04,  avg # of iterations =  3.2

     total cpu time spent up to now is       82.2 secs

     total energy              =   -1180.31546397 Ry
     estimated scf accuracy    <       0.08249730 Ry

     iteration #  3     ecut=   110.00 Ry     beta= 0.70
     Davidson diagonalization with overlap
     ethr =  1.15E-04,  avg # of iterations =  5.0

     total cpu time spent up to now is      111.2 secs

     total energy              =   -1180.32703543 Ry
     estimated scf accuracy    <       0.16253781 Ry

     iteration #  4     ecut=   110.00 Ry     beta= 0.70
     Davidson diagonalization with overlap
     ethr =  1.15E-04,  avg # of iterations =  4.1

     total cpu time spent up to now is      134.9 secs

     total energy              =   -1180.35097645 Ry
     estimated scf accuracy    <       0.00033301 Ry

     iteration #  5     ecut=   110.00 Ry     beta= 0.70
     Davidson diagonalization with overlap
     ethr =  4.63E-07,  avg # of iterations =  8.1

     total cpu time spent up to now is      171.1 secs

     total energy              =   -1180.35159122 Ry
     estimated scf accuracy    <       0.00032354 Ry

     iteration #  6     ecut=   110.00 Ry     beta= 0.70
     Davidson diagonalization with overlap
     ethr =  4.49E-07,  avg # of iterations =  3.0

     total cpu time spent up to now is      192.2 secs

     total energy              =   -1180.35164582 Ry
     estimated scf accuracy    <       0.00000285 Ry

     iteration #  7     ecut=   110.00 Ry     beta= 0.70
     Davidson diagonalization with overlap
     ethr =  3.95E-09,  avg # of iterations =  7.4

     total cpu time spent up to now is      228.2 secs

     total energy              =   -1180.35164812 Ry
     estimated scf accuracy    <       0.00003670 Ry

     iteration #  8     ecut=   110.00 Ry     beta= 0.70
     Davidson diagonalization with overlap
     ethr =  3.95E-09,  avg # of iterations =  5.1

     total cpu time spent up to now is      259.0 secs

     End of self-consistent calculation

          k = 0.0000 0.0000 0.0000 ( 13133 PWs)   bands (ev):

   -56.5145 -56.5145 -56.4798 -56.4798 -56.4798 -56.4798 -56.4798 -56.4798
   -28.5806 -28.5806 -28.5730 -28.5730 -28.5730 -28.5730 -28.4837 -28.4837
   -27.6150 -27.6150 -27.6150 -27.6150 -27.5383 -27.5383 -27.5383 -27.5383
   -27.5335 -27.5335 -27.4510 -27.4510 -27.4508 -27.4508 -27.4508 -27.4508
     2.6984   2.6984   7.4567   7.4567   7.4567   7.4567   7.4659   7.4659
    10.5369  10.5369  10.5449  10.5449  10.5449  10.5449  11.9112  11.9112
    11.9112  11.9112  11.9223  11.9223  12.6023  12.6023  12.7720  12.7720
    12.7720  12.7720  13.1440  13.1440  13.1440  13.1440  13.1451  13.1451
    13.6720  13.6720  13.6720  13.6720  13.6759  13.6759  15.5519  15.5519
    15.5832  15.5832  15.5832  15.5832  15.7666  15.7666  15.7666  15.7666
    16.6653  16.6653  16.6956  16.6956  16.6956  16.6956

     occupation numbers 
     1.0000   1.0000   1.0000   1.0000   1.0000   1.0000   1.0000   1.0000
     1.0000   1.0000   1.0000   1.0000   1.0000   1.0000   1.0000   1.0000
     1.0000   1.0000   1.0000   1.0000   1.0000   1.0000   1.0000   1.0000
     1.0000   1.0000   1.0000   1.0000   1.0000   1.0000   1.0000   1.0000
     1.0000   1.0000   1.0000   1.0000   1.0000   1.0000   1.0000   1.0000
     1.0000   1.0000   1.0000   1.0000   1.0000   1.0000   1.0000   1.0000
     1.0000   1.0000   1.0000   1.0000   1.0000   1.0000   1.0000   1.0000
     1.0000   1.0000   1.0000   1.0000   1.0000   1.0000   1.0000   1.0000
     1.0000   1.0000   1.0000   1.0000   1.0000   1.0000  -0.0040  -0.0040
    -0.0026  -0.0026  -0.0026  -0.0026  -0.0001  -0.0001  -0.0001  -0.0001
    -0.0000  -0.0000  -0.0000  -0.0000  -0.0000  -0.0000

          k = 0.0000 0.0000 0.1250 ( 13065 PWs)   bands (ev):

   -56.5135 -56.5135 -56.4838 -56.4838 -56.4795 -56.4795 -56.4771 -56.4771
   -28.5867 -28.5798 -28.5766 -28.5761 -28.5663 -28.5632 -28.4866 -28.4865
   -27.6283 -27.6217 -27.6057 -27.5992 -27.5475 -27.5440 -27.5405 -27.5328
   -27.5311 -27.5211 -27.4588 -27.4568 -27.4545 -27.4494 -27.4486 -27.4446
     2.8068   2.8068   6.7951   6.7983   7.5179   7.5193   7.9726   7.9813
    10.0751  10.0802  10.6133  10.6150  11.0391  11.0409  11.3199  11.3200
    11.6501  11.6540  12.5294  12.5360  12.5609  12.5792  12.7793  12.7865
    12.9230  12.9243  13.1144  13.1164  13.1789  13.1793  13.2097  13.2101
    13.5222  13.5299  13.6536  13.6551  13.9001  13.9003  15.3981  15.4163
    15.4452  15.4548  15.7234  15.7266  15.7398  15.7543  15.7663  15.7717
    16.4739  16.4908  16.6337  16.6386  16.8958  16.9163

     occupation numbers 
     1.0000   1.0000   1.0000   1.0000   1.0000   1.0000   1.0000   1.0000
     1.0000   1.0000   1.0000   1.0000   1.0000   1.0000   1.0000   1.0000
     1.0000   1.0000   1.0000   1.0000   1.0000   1.0000   1.0000   1.0000
     1.0000   1.0000   1.0000   1.0000   1.0000   1.0000   1.0000   1.0000
     1.0000   1.0000   1.0000   1.0000   1.0000   1.0000   1.0000   1.0000
     1.0000   1.0000   1.0000   1.0000   1.0000   1.0000   1.0000   1.0000
     1.0000   1.0000   1.0000   1.0000   1.0000   1.0000   1.0000   1.0000
     1.0000   1.0000   1.0000   1.0000   1.0000   1.0000   1.0000   1.0000
     1.0000   1.0000   1.0000   1.0000   1.0000   1.0000  -0.0217  -0.0187
    -0.0143  -0.0130  -0.0002  -0.0002  -0.0002  -0.0001  -0.0001  -0.0001
    -0.0000  -0.0000  -0.0000  -0.0000  -0.0000  -0.0000

          k = 0.0000 0.0000 0.2500 ( 13089 PWs)   bands (ev):

   -56.5106 -56.5106 -56.4889 -56.4889 -56.4786 -56.4786 -56.4758 -56.4758
   -28.5902 -28.5833 -28.5800 -28.5776 -28.5536 -28.5506 -28.4948 -28.4945
   -27.6368 -27.6276 -27.5929 -27.5856 -27.5573 -27.5456 -27.5378 -27.5332
   -27.5276 -27.5068 -27.4689 -27.4627 -27.4605 -27.4503 -27.4481 -27.4415
     3.1269   3.1270   5.9917   5.9931   7.6894   7.6924   8.3700   8.3801
     9.7440   9.7453  10.7559  10.7612  10.8656  10.8743  11.1950  11.2023
    11.5683  11.5690  12.2654  12.2802  12.8661  12.8727  12.9122  12.9341
    13.1212  13.1250  13.1295  13.1346  13.2515  13.2521  13.2822  13.2862
    13.5441  13.5474  13.6979  13.7055  14.0466  14.0472  15.0730  15.1016
    15.3806  15.3812  15.6177  15.6329  15.7401  15.7644  15.8517  15.8756
    16.2854  16.3001  16.4933  16.5048  17.1870  17.2075

     occupation numbers 
     1.0000   1.0000   1.0000   1.0000   1.0000   1.0000   1.0000   1.0000
     1.0000   1.0000   1.0000   1.0000   1.0000   1.0000   1.0000   1.0000
     1.0000   1.0000   1.0000   1.0000   1.0000   1.0000   1.0000   1.0000
     1.0000   1.0000   1.0000   1.0000   1.0000   1.0000   1.0000   1.0000
     1.0000   1.0000   1.0000   1.0000   1.0000   1.0000   1.0000   1.0000
     1.0000   1.0000   1.0000   1.0000   1.0000   1.0000   1.0000   1.0000
     1.0000   1.0000   1.0000   1.0000   1.0000   1.0000   1.0000   1.0000
     1.0000   1.0000   1.0000   1.0000   1.0000   1.0000   1.0000   1.0000
     1.0000   1.0000   1.0000   1.0000   1.0000   1.0000   0.1675   0.1085
    -0.0246  -0.0246  -0.0015  -0.0012  -0.0002  -0.0001  -0.0000  -0.0000
    -0.0000  -0.0000  -0.0000  -0.0000  -0.0000  -0.0000

          k = 0.0000 0.0000 0.3750 ( 13053 PWs)   bands (ev):

   -56.5062 -56.5062 -56.4947 -56.4947 -56.4774 -56.4774 -56.4756 -56.4756
   -28.5906 -28.5845 -28.5841 -28.5801 -28.5384 -28.5362 -28.5072 -28.5065
   -27.6399 -27.6336 -27.5798 -27.5748 -27.5660 -27.5425 -27.5420 -27.5293
   -27.5237 -27.4924 -27.4849 -27.4688 -27.4621 -27.4533 -27.4468 -27.4418
     3.6435   3.6436   5.1355   5.1360   7.9591   7.9637   8.5101   8.5190
     9.6767   9.6795  10.5120  10.5126  10.7722  10.7853  11.0297  11.0315
    12.0050  12.0073  12.1207  12.1354  12.7684  12.7838  12.9434  12.9563
    13.0797  13.0872  13.1863  13.1902  13.2458  13.2490  13.3255  13.3290
    13.5402  13.5406  13.9317  13.9361  14.2197  14.2332  14.8123  14.8472
    15.3576  15.3693  15.4975  15.5165  15.7544  15.7838  15.8466  15.8718
    16.1649  16.1808  16.3080  16.3220  17.3498  17.3610

     occupation numbers 
     1.0000   1.0000   1.0000   1.0000   1.0000   1.0000   1.0000   1.0000
     1.0000   1.0000   1.0000   1.0000   1.0000   1.0000   1.0000   1.0000
     1.0000   1.0000   1.0000   1.0000   1.0000   1.0000   1.0000   1.0000
     1.0000   1.0000   1.0000   1.0000   1.0000   1.0000   1.0000   1.0000
     1.0000   1.0000   1.0000   1.0000   1.0000   1.0000   1.0000   1.0000
     1.0000   1.0000   1.0000   1.0000   1.0000   1.0000   1.0000   1.0000
     1.0000   1.0000   1.0000   1.0000   1.0000   1.0000   1.0000   1.0000
     1.0000   1.0000   1.0000   1.0000   1.0000   1.0000   1.0000   1.0000
     1.0000   1.0000   1.0000   1.0000   1.0005   1.0006   0.8823   0.8066
    -0.0285  -0.0266  -0.0081  -0.0064  -0.0001  -0.0001  -0.0000  -0.0000
    -0.0000  -0.0000  -0.0000  -0.0000  -0.0000  -0.0000

          k = 0.0000 0.0000-0.5000 ( 13022 PWs)   bands (ev):

   -56.5007 -56.5007 -56.5007 -56.5007 -56.4763 -56.4763 -56.4763 -56.4763
   -28.5884 -28.5884 -28.5827 -28.5827 -28.5224 -28.5224 -28.5209 -28.5209
   -27.6383 -27.6383 -27.5731 -27.5731 -27.5581 -27.5581 -27.5352 -27.5352
   -27.5042 -27.5042 -27.4795 -27.4795 -27.4578 -27.4578 -27.4442 -27.4442
     4.3284   4.3284   4.3286   4.3286   8.2825   8.2825   8.2889   8.2889
    10.0167  10.0167  10.0207  10.0207  10.8980  10.8980  10.9092  10.9092
    12.2472  12.2472  12.2538  12.2538  12.6855  12.6855  12.6979  12.6979
    13.1421  13.1421  13.1425  13.1425  13.2375  13.2375  13.2412  13.2412
    13.7827  13.7827  13.7858  13.7858  14.5652  14.5652  14.5937  14.5937
    15.4018  15.4018  15.4196  15.4196  15.8064  15.8064  15.8361  15.8361
    16.1658  16.1658  16.1795  16.1795  17.5418  17.5433

     occupation numbers 
     1.0000   1.0000   1.0000   1.0000   1.0000   1.0000   1.0000   1.0000
     1.0000   1.0000   1.0000   1.0000   1.0000   1.0000   1.0000   1.0000
     1.0000   1.0000   1.0000   1.0000   1.0000   1.0000   1.0000   1.0000
     1.0000   1.0000   1.0000   1.0000   1.0000   1.0000   1.0000   1.0000
     1.0000   1.0000   1.0000   1.0000   1.0000   1.0000   1.0000   1.0000
     1.0000   1.0000   1.0000   1.0000   1.0000   1.0000   1.0000   1.0000
     1.0000   1.0000   1.0000   1.0000   1.0000   1.0000   1.0000   1.0000
     1.0000   1.0000   1.0000   1.0000   1.0000   1.0000   1.0000   1.0000
     1.0000   1.0000   1.0000   1.0000   1.0306   1.0306   1.0341   1.0341
    -0.0211  -0.0211  -0.0181  -0.0181  -0.0000  -0.0000  -0.0000  -0.0000
    -0.0000  -0.0000  -0.0000  -0.0000  -0.0000  -0.0000

          k = 0.0000 0.1250 0.1250 ( 13069 PWs)   bands (ev):

   -56.5125 -56.5125 -56.4853 -56.4853 -56.4798 -56.4798 -56.4763 -56.4763
   -28.5887 -28.5825 -28.5754 -28.5748 -28.5635 -28.5596 -28.4893 -28.4893
   -27.6301 -27.6262 -27.5987 -27.5946 -27.5500 -27.5457 -27.5428 -27.5371
   -27.5245 -27.5145 -27.4636 -27.4622 -27.4561 -27.4502 -27.4456 -27.4420
     2.9144   2.9144   6.6451   6.6500   7.3151   7.3190   8.2192   8.2250
     9.9475   9.9524  10.6668  10.6728  10.8538  10.8584  11.2389  11.2421
    11.8044  11.8055  12.4435  12.4546  12.5940  12.6019  12.9024  12.9086
    13.0100  13.0194  13.1611  13.1621  13.1662  13.1710  13.2677  13.2696
    13.4646  13.4710  13.6782  13.6896  13.9949  14.0003  15.3454  15.3578
    15.3932  15.4025  15.6250  15.6344  15.7249  15.7411  15.7940  15.8153
    16.3737  16.3919  16.6463  16.6537  16.9381  16.9674

     occupation numbers 
     1.0000   1.0000   1.0000   1.0000   1.0000   1.0000   1.0000   1.0000
     1.0000   1.0000   1.0000   1.0000   1.0000   1.0000   1.0000   1.0000
     1.0000   1.0000   1.0000   1.0000   1.0000   1.0000   1.0000   1.0000
     1.0000   1.0000   1.0000   1.0000   1.0000   1.0000   1.0000   1.0000
     1.0000   1.0000   1.0000   1.0000   1.0000   1.0000   1.0000   1.0000
     1.0000   1.0000   1.0000   1.0000   1.0000   1.0000   1.0000   1.0000
     1.0000   1.0000   1.0000   1.0000   1.0000   1.0000   1.0000   1.0000
     1.0000   1.0000   1.0000   1.0000   1.0000   1.0000   1.0000   1.0000
     1.0000   1.0000   1.0000   1.0000   1.0000   1.0000  -0.0304  -0.0285
    -0.0225  -0.0209  -0.0014  -0.0012  -0.0002  -0.0002  -0.0001  -0.0000
    -0.0000  -0.0000  -0.0000  -0.0000  -0.0000  -0.0000

          k = 0.0000 0.1250 0.2500 ( 13041 PWs)   bands (ev):

   -56.5097 -56.5097 -56.4894 -56.4894 -56.4793 -56.4793 -56.4756 -56.4756
   -28.5905 -28.5846 -28.5773 -28.5759 -28.5532 -28.5500 -28.4972 -28.4971
   -27.6354 -27.6288 -27.5891 -27.5838 -27.5567 -27.5478 -27.5417 -27.5370
   -27.5221 -27.5022 -27.4755 -27.4672 -27.4606 -27.4526 -27.4433 -27.4387
     3.2321   3.2322   6.0264   6.0289   7.3760   7.3787   8.4794   8.4845
     9.7444   9.7459  10.4120  10.4157  10.8572  10.8580  11.4944  11.4997
    11.5880  11.5896  12.3108  12.3206  12.6384  12.6410  13.0349  13.0424
    13.0739  13.0852  13.2036  13.2096  13.2813  13.2826  13.3809  13.3850
    13.5206  13.5270  13.8048  13.8202  14.1008  14.1079  15.0890  15.1160
    15.2983  15.3133  15.5083  15.5229  15.6904  15.7123  15.8393  15.8649
    16.2236  16.2388  16.5273  16.5395  17.1517  17.1854

     occupation numbers 
     1.0000   1.0000   1.0000   1.0000   1.0000   1.0000   1.0000   1.0000
     1.0000   1.0000   1.0000   1.0000   1.0000   1.0000   1.0000   1.0000
     1.0000   1.0000   1.0000   1.0000   1.0000   1.0000   1.0000   1.0000
     1.0000   1.0000   1.0000   1.0000   1.0000   1.0000   1.0000   1.0000
     1.0000   1.0000   1.0000   1.0000   1.0000   1.0000   1.0000   1.0000
     1.0000   1.0000   1.0000   1.0000   1.0000   1.0000   1.0000   1.0000
     1.0000   1.0000   1.0000   1.0000   1.0000   1.0000   1.0000   1.0000
     1.0000   1.0000   1.0000   1.0000   1.0000   1.0000   1.0000   1.0000
     1.0000   1.0000   1.0000   1.0000   1.0000   1.0000   0.1332   0.0830
    -0.0352  -0.0343  -0.0071  -0.0059  -0.0004  -0.0003  -0.0000  -0.0000
    -0.0000  -0.0000  -0.0000  -0.0000  -0.0000  -0.0000

          k = 0.0000 0.1250 0.3750 ( 13056 PWs)   bands (ev):

   -56.5055 -56.5055 -56.4946 -56.4946 -56.4780 -56.4780 -56.4758 -56.4758
   -28.5899 -28.5848 -28.5814 -28.5786 -28.5392 -28.5370 -28.5093 -28.5087
   -27.6376 -27.6322 -27.5794 -27.5732 -27.5652 -27.5473 -27.5415 -27.5295
   -27.5245 -27.4926 -27.4878 -27.4703 -27.4639 -27.4570 -27.4413 -27.4379
     3.7444   3.7446   5.2134   5.2144   7.6676   7.6696   8.4241   8.4278
     9.7358   9.7391  10.2158  10.2198  11.0145  11.0205  11.1796  11.1935
    11.8665  11.8719  12.1814  12.1911  12.6390  12.6456  12.8670  12.8770
    13.0658  13.0721  13.2716  13.2763  13.3351  13.3370  13.4476  13.4505
    13.6020  13.6089  13.9679  13.9747  14.2904  14.3075  14.8246  14.8582
    15.2800  15.2959  15.3805  15.3930  15.6942  15.7204  15.8264  15.8558
    16.1472  16.1558  16.3588  16.3723  17.3038  17.3274

     occupation numbers 
     1.0000   1.0000   1.0000   1.0000   1.0000   1.0000   1.0000   1.0000
     1.0000   1.0000   1.0000   1.0000   1.0000   1.0000   1.0000   1.0000
     1.0000   1.0000   1.0000   1.0000   1.0000   1.0000   1.0000   1.0000
     1.0000   1.0000   1.0000   1.0000   1.0000   1.0000   1.0000   1.0000
     1.0000   1.0000   1.0000   1.0000   1.0000   1.0000   1.0000   1.0000
     1.0000   1.0000   1.0000   1.0000   1.0000   1.0000   1.0000   1.0000
     1.0000   1.0000   1.0000   1.0000   1.0000   1.0000   1.0000   1.0000
     1.0000   1.0000   1.0000   1.0000   1.0000   1.0000   1.0000   1.0000
     1.0000   1.0000   1.0000   1.0000   1.0015   1.0020   0.8575   0.7797
    -0.0353  -0.0353  -0.0247  -0.0225  -0.0004  -0.0003  -0.0000  -0.0000
    -0.0000  -0.0000  -0.0000  -0.0000  -0.0000  -0.0000

          k = 0.0000 0.1250-0.5000 ( 13026 PWs)   bands (ev):

   -56.5002 -56.5002 -56.5002 -56.5002 -56.4767 -56.4767 -56.4767 -56.4767
   -28.5871 -28.5871 -28.5814 -28.5814 -28.5244 -28.5244 -28.5221 -28.5221
   -27.6359 -27.6359 -27.5728 -27.5728 -27.5588 -27.5588 -27.5349 -27.5349
   -27.5093 -27.5093 -27.4779 -27.4779 -27.4614 -27.4614 -27.4393 -27.4393
     4.4217   4.4217   4.4222   4.4222   8.0585   8.0585   8.0654   8.0654
     9.9958   9.9958  10.0002  10.0002  11.0364  11.0364  11.0505  11.0505
    12.1472  12.1472  12.1527  12.1527  12.5980  12.5980  12.6143  12.6143
    13.2273  13.2273  13.2298  13.2298  13.3329  13.3329  13.3342  13.3342
    13.8295  13.8295  13.8331  13.8331  14.5985  14.5985  14.6289  14.6289
    15.3032  15.3032  15.3190  15.3190  15.7575  15.7575  15.7873  15.7873
    16.2051  16.2051  16.2162  16.2162  17.5222  17.5235

     occupation numbers 
     1.0000   1.0000   1.0000   1.0000   1.0000   1.0000   1.0000   1.0000
     1.0000   1.0000   1.0000   1.0000   1.0000   1.0000   1.0000   1.0000
     1.0000   1.0000   1.0000   1.0000   1.0000   1.0000   1.0000   1.0000
     1.0000   1.0000   1.0000   1.0000   1.0000   1.0000   1.0000   1.0000
     1.0000   1.0000   1.0000   1.0000   1.0000   1.0000   1.0000   1.0000
     1.0000   1.0000   1.0000   1.0000   1.0000   1.0000   1.0000   1.0000
     1.0000   1.0000   1.0000   1.0000   1.0000   1.0000   1.0000   1.0000
     1.0000   1.0000   1.0000   1.0000   1.0000   1.0000   1.0000   1.0000
     1.0000   1.0000   1.0000   1.0000   1.0345   1.0345   1.0353   1.0353
    -0.0350  -0.0350  -0.0337  -0.0337  -0.0001  -0.0001  -0.0001  -0.0001
    -0.0000  -0.0000  -0.0000  -0.0000  -0.0000  -0.0000

          k = 0.0000 0.2500 0.2500 ( 13065 PWs)   bands (ev):

   -56.5073 -56.5073 -56.4911 -56.4911 -56.4798 -56.4798 -56.4757 -56.4757
   -28.5899 -28.5848 -28.5751 -28.5743 -28.5496 -28.5464 -28.5045 -28.5041
   -27.6328 -27.6296 -27.5821 -27.5798 -27.5562 -27.5530 -27.5436 -27.5387
   -27.5187 -27.4965 -27.4855 -27.4751 -27.4661 -27.4489 -27.4393 -27.4352
     3.5424   3.5426   5.9649   5.9682   6.9410   6.9450   8.4362   8.4413
     9.7514   9.7546  10.1862  10.1914  10.9261  10.9286  11.3505  11.3516
    11.8597  11.8635  12.2862  12.2897  12.5057  12.5150  12.9042  12.9118
    13.1483  13.1576  13.2705  13.2800  13.4422  13.4437  13.5200  13.5293
    13.5707  13.5814  13.9846  13.9969  14.2197  14.2253  15.0461  15.0665
    15.1401  15.1648  15.2950  15.3065  15.6164  15.6415  15.7633  15.7921
    16.1596  16.1705  16.5121  16.5228  17.1852  17.2281

     occupation numbers 
     1.0000   1.0000   1.0000   1.0000   1.0000   1.0000   1.0000   1.0000
     1.0000   1.0000   1.0000   1.0000   1.0000   1.0000   1.0000   1.0000
     1.0000   1.0000   1.0000   1.0000   1.0000   1.0000   1.0000   1.0000
     1.0000   1.0000   1.0000   1.0000   1.0000   1.0000   1.0000   1.0000
     1.0000   1.0000   1.0000   1.0000   1.0000   1.0000   1.0000   1.0000
     1.0000   1.0000   1.0000   1.0000   1.0000   1.0000   1.0000   1.0000
     1.0000   1.0000   1.0000   1.0000   1.0000   1.0000   1.0000   1.0000
     1.0000   1.0000   1.0000   1.0000   1.0000   1.0000   1.0000   1.0000
     1.0000   1.0000   1.0000   1.0000   1.0005   1.0005   0.2322   0.1822
     0.0465   0.0172  -0.0354  -0.0348  -0.0016  -0.0010  -0.0001  -0.0001
    -0.0000  -0.0000  -0.0000  -0.0000  -0.0000  -0.0000

          k = 0.0000 0.2500 0.3750 ( 13034 PWs)   bands (ev):

   -56.5035 -56.5035 -56.4946 -56.4946 -56.4793 -56.4793 -56.4766 -56.4766
   -28.5873 -28.5831 -28.5773 -28.5754 -28.5404 -28.5383 -28.5151 -28.5147
   -27.6311 -27.6282 -27.5808 -27.5737 -27.5615 -27.5510 -27.5409 -27.5327
   -27.5230 -27.5006 -27.4927 -27.4821 -27.4621 -27.4495 -27.4363 -27.4336
     4.0406   4.0410   5.4170   5.4188   7.0446   7.0478   8.0208   8.0242
     9.9168   9.9201  10.1870  10.1903  11.0284  11.0322  11.3804  11.3880
    11.8894  11.8914  12.0249  12.0292  12.4330  12.4440  12.6526  12.6625
    13.2353  13.2448  13.3300  13.3353  13.4394  13.4433  13.6539  13.6568
    13.7896  13.7930  14.0664  14.0759  14.4535  14.4789  14.8302  14.8571
    15.0721  15.0935  15.1483  15.1536  15.5775  15.6019  15.6802  15.7123
    16.2004  16.2074  16.4541  16.4645  17.1908  17.2198

     occupation numbers 
     1.0000   1.0000   1.0000   1.0000   1.0000   1.0000   1.0000   1.0000
     1.0000   1.0000   1.0000   1.0000   1.0000   1.0000   1.0000   1.0000
     1.0000   1.0000   1.0000   1.0000   1.0000   1.0000   1.0000   1.0000
     1.0000   1.0000   1.0000   1.0000   1.0000   1.0000   1.0000   1.0000
     1.0000   1.0000   1.0000   1.0000   1.0000   1.0000   1.0000   1.0000
     1.0000   1.0000   1.0000   1.0000   1.0000   1.0000   1.0000   1.0000
     1.0000   1.0000   1.0000   1.0000   1.0000   1.0000   1.0000   1.0000
     1.0000   1.0000   1.0000   1.0000   1.0000   1.0000   1.0000   1.0000
     1.0000   1.0000   1.0000   1.0000   1.0129   1.0165   0.8455   0.7825
     0.1694   0.1242   0.0360   0.0295  -0.0028  -0.0020  -0.0005  -0.0003
    -0.0000  -0.0000  -0.0000  -0.0000  -0.0000  -0.0000

          k = 0.0000 0.2500-0.5000 ( 13016 PWs)   bands (ev):

   -56.4990 -56.4990 -56.4990 -56.4990 -56.4779 -56.4779 -56.4779 -56.4779
   -28.5834 -28.5834 -28.5782 -28.5782 -28.5289 -28.5289 -28.5258 -28.5258
   -27.6289 -27.6289 -27.5774 -27.5774 -27.5560 -27.5560 -27.5336 -27.5336
   -27.5167 -27.5167 -27.4883 -27.4883 -27.4545 -27.4545 -27.4342 -27.4342
     4.6914   4.6914   4.6924   4.6924   7.4834   7.4834   7.4896   7.4896
    10.1293  10.1293  10.1324  10.1324  11.1999  11.1999  11.2116  11.2116
    11.9553  11.9553  11.9572  11.9572  12.4186  12.4186  12.4311  12.4311
    13.3476  13.3476  13.3540  13.3540  13.5160  13.5160  13.5221  13.5221
    13.9870  13.9870  13.9926  13.9926  14.6540  14.6540  14.6845  14.6845
    15.0856  15.0856  15.0972  15.0972  15.6039  15.6039  15.6327  15.6327
    16.3327  16.3327  16.3437  16.3437  17.3590  17.3613

     occupation numbers 
     1.0000   1.0000   1.0000   1.0000   1.0000   1.0000   1.0000   1.0000
     1.0000   1.0000   1.0000   1.0000   1.0000   1.0000   1.0000   1.0000
     1.0000   1.0000   1.0000   1.0000   1.0000   1.0000   1.0000   1.0000
     1.0000   1.0000   1.0000   1.0000   1.0000   1.0000   1.0000   1.0000
     1.0000   1.0000   1.0000   1.0000   1.0000   1.0000   1.0000   1.0000
     1.0000   1.0000   1.0000   1.0000   1.0000   1.0000   1.0000   1.0000
     1.0000   1.0000   1.0000   1.0000   1.0000   1.0000   1.0000   1.0000
     1.0000   1.0000   1.0000   1.0000   1.0000   1.0000   1.0000   1.0000
     1.0000   1.0000   1.0000   1.0000   1.0328   1.0328   1.0243   1.0243
     0.1402   0.1402   0.1168   0.1168  -0.0019  -0.0019  -0.0012  -0.0012
    -0.0000  -0.0000  -0.0000  -0.0000  -0.0000  -0.0000

          k = 0.0000 0.3750 0.3750 ( 13014 PWs)   bands (ev):

   -56.5007 -56.5007 -56.4954 -56.4954 -56.4799 -56.4799 -56.4779 -56.4779
   -28.5830 -28.5797 -28.5749 -28.5740 -28.5390 -28.5372 -28.5237 -28.5229
   -27.6226 -27.6222 -27.5864 -27.5822 -27.5533 -27.5477 -27.5362 -27.5339
   -27.5244 -27.5070 -27.5049 -27.4952 -27.4525 -27.4429 -27.4349 -27.4321
     4.5095   4.5101   5.5230   5.5246   6.5727   6.5747   7.4024   7.4055
    10.2463  10.2476  10.4516  10.4528  10.9116  10.9124  11.2395  11.2425
    11.7867  11.7896  12.0558  12.0597  12.2635  12.2659  12.4684  12.4760
    13.2338  13.2414  13.3899  13.3914  13.6732  13.6737  13.8200  13.8250
    14.0551  14.0673  14.1497  14.1606  14.5566  14.5767  14.7407  14.7526
    14.8531  14.8722  14.9557  14.9789  15.4781  15.4977  15.5180  15.5452
    16.3218  16.3322  16.5105  16.5161  17.0903  17.1126

     occupation numbers 
     1.0000   1.0000   1.0000   1.0000   1.0000   1.0000   1.0000   1.0000
     1.0000   1.0000   1.0000   1.0000   1.0000   1.0000   1.0000   1.0000
     1.0000   1.0000   1.0000   1.0000   1.0000   1.0000   1.0000   1.0000
     1.0000   1.0000   1.0000   1.0000   1.0000   1.0000   1.0000   1.0000
     1.0000   1.0000   1.0000   1.0000   1.0000   1.0000   1.0000   1.0000
     1.0000   1.0000   1.0000   1.0000   1.0000   1.0000   1.0000   1.0000
     1.0000   1.0000   1.0000   1.0000   1.0000   1.0000   1.0000   1.0000
     1.0000   1.0000   1.0000   1.0000   1.0000   1.0000   1.0000   1.0000
     1.0000   1.0000   1.0001   1.0001   1.0293   1.0322   0.9863   0.9737
     0.7925   0.7435   0.4963   0.4245  -0.0101  -0.0081  -0.0063  -0.0044
    -0.0000  -0.0000  -0.0000  -0.0000  -0.0000  -0.0000

          k = 0.0000 0.3750-0.5000 ( 13042 PWs)   bands (ev):

   -56.4977 -56.4977 -56.4977 -56.4977 -56.4793 -56.4793 -56.4793 -56.4793
   -28.5786 -28.5786 -28.5751 -28.5751 -28.5333 -28.5333 -28.5308 -28.5308
   -27.6179 -27.6179 -27.5896 -27.5896 -27.5467 -27.5467 -27.5324 -27.5324
   -27.5209 -27.5209 -27.5038 -27.5038 -27.4444 -27.4444 -27.4332 -27.4332
     5.0896   5.0896   5.0910   5.0910   6.8113   6.8113   6.8154   6.8154
    10.4498  10.4498  10.4512  10.4512  11.2417  11.2417  11.2497  11.2497
    11.6406  11.6406  11.6485  11.6485  12.3096  12.3096  12.3147  12.3147
    13.3655  13.3655  13.3712  13.3712  13.7688  13.7688  13.7778  13.7778
    14.2718  14.2718  14.2747  14.2747  14.5441  14.5441  14.5550  14.5550
    14.8849  14.8849  14.9039  14.9039  15.4588  15.4588  15.4785  15.4785
    16.4920  16.4920  16.5021  16.5021  17.1156  17.1177

     occupation numbers 
     1.0000   1.0000   1.0000   1.0000   1.0000   1.0000   1.0000   1.0000
     1.0000   1.0000   1.0000   1.0000   1.0000   1.0000   1.0000   1.0000
     1.0000   1.0000   1.0000   1.0000   1.0000   1.0000   1.0000   1.0000
     1.0000   1.0000   1.0000   1.0000   1.0000   1.0000   1.0000   1.0000
     1.0000   1.0000   1.0000   1.0000   1.0000   1.0000   1.0000   1.0000
     1.0000   1.0000   1.0000   1.0000   1.0000   1.0000   1.0000   1.0000
     1.0000   1.0000   1.0000   1.0000   1.0000   1.0000   1.0000   1.0000
     1.0000   1.0000   1.0000   1.0000   1.0000   1.0000   1.0000   1.0000
     1.0011   1.0011   1.0012   1.0012   1.0273   1.0273   1.0290   1.0290
     0.7088   0.7088   0.6546   0.6546  -0.0125  -0.0125  -0.0101  -0.0101
    -0.0000  -0.0000  -0.0000  -0.0000  -0.0000  -0.0000

          k = 0.0000-0.5000-0.5000 ( 13000 PWs)   bands (ev):

   -56.4971 -56.4971 -56.4971 -56.4971 -56.4799 -56.4799 -56.4799 -56.4799
   -28.5749 -28.5749 -28.5749 -28.5749 -28.5342 -28.5342 -28.5342 -28.5342
   -27.6042 -27.6042 -27.6042 -27.6042 -27.5368 -27.5368 -27.5368 -27.5368
   -27.5166 -27.5166 -27.5166 -27.5166 -27.4368 -27.4368 -27.4368 -27.4368
     5.3712   5.3712   5.3712   5.3712   6.4276   6.4276   6.4276   6.4276
    10.7056  10.7056  10.7056  10.7056  11.2426  11.2426  11.2426  11.2426
    11.3851  11.3851  11.3851  11.3851  12.2842  12.2842  12.2842  12.2842
    13.3621  13.3621  13.3621  13.3621  14.0069  14.0069  14.0069  14.0069
    14.2939  14.2939  14.2939  14.2939  14.5250  14.5250  14.5250  14.5250
    14.7574  14.7574  14.7574  14.7574  15.4173  15.4173  15.4173  15.4173
    16.5871  16.5871  16.5871  16.5871  16.9843  16.9843

     occupation numbers 
     1.0000   1.0000   1.0000   1.0000   1.0000   1.0000   1.0000   1.0000
     1.0000   1.0000   1.0000   1.0000   1.0000   1.0000   1.0000   1.0000
     1.0000   1.0000   1.0000   1.0000   1.0000   1.0000   1.0000   1.0000
     1.0000   1.0000   1.0000   1.0000   1.0000   1.0000   1.0000   1.0000
     1.0000   1.0000   1.0000   1.0000   1.0000   1.0000   1.0000   1.0000
     1.0000   1.0000   1.0000   1.0000   1.0000   1.0000   1.0000   1.0000
     1.0000   1.0000   1.0000   1.0000   1.0000   1.0000   1.0000   1.0000
     1.0000   1.0000   1.0000   1.0000   1.0000   1.0000   1.0000   1.0000
     1.0016   1.0016   1.0016   1.0016   1.0241   1.0241   1.0241   1.0241
     0.9681   0.9681   0.9681   0.9681  -0.0185  -0.0185  -0.0185  -0.0185
    -0.0000  -0.0000  -0.0000  -0.0000  -0.0000  -0.0000

          k = 0.1250 0.1250 0.1250 ( 13076 PWs)   bands (ev):

   -56.5116 -56.5116 -56.4863 -56.4863 -56.4802 -56.4802 -56.4758 -56.4758
   -28.5897 -28.5839 -28.5742 -28.5737 -28.5615 -28.5573 -28.4921 -28.4919
   -27.6304 -27.6288 -27.5952 -27.5898 -27.5516 -27.5454 -27.5445 -27.5415
   -27.5203 -27.5095 -27.4710 -27.4624 -27.4553 -27.4550 -27.4423 -27.4405
     3.0212   3.0212   6.5633   6.5699   7.1836   7.1909   8.2853   8.2894
     9.9223   9.9271  10.6114  10.6116  10.6509  10.6510  11.2991  11.3047
    11.9439  11.9450  12.3497  12.3609  12.7359  12.7379  12.8157  12.8247
    13.0618  13.0653  13.1644  13.1649  13.2426  13.2484  13.3418  13.3505
    13.4557  13.4637  13.7038  13.7082  14.0637  14.0711  15.3206  15.3249
    15.3556  15.3569  15.5750  15.5761  15.6384  15.6529  15.8128  15.8248
    16.3133  16.3329  16.6475  16.6560  16.9606  16.9959

     occupation numbers 
     1.0000   1.0000   1.0000   1.0000   1.0000   1.0000   1.0000   1.0000
     1.0000   1.0000   1.0000   1.0000   1.0000   1.0000   1.0000   1.0000
     1.0000   1.0000   1.0000   1.0000   1.0000   1.0000   1.0000   1.0000
     1.0000   1.0000   1.0000   1.0000   1.0000   1.0000   1.0000   1.0000
     1.0000   1.0000   1.0000   1.0000   1.0000   1.0000   1.0000   1.0000
     1.0000   1.0000   1.0000   1.0000   1.0000   1.0000   1.0000   1.0000
     1.0000   1.0000   1.0000   1.0000   1.0000   1.0000   1.0000   1.0000
     1.0000   1.0000   1.0000   1.0000   1.0000   1.0000   1.0000   1.0000
     1.0000   1.0000   1.0000   1.0000   1.0000   1.0000  -0.0336  -0.0331
    -0.0288  -0.0286  -0.0029  -0.0029  -0.0011  -0.0009  -0.0000  -0.0000
    -0.0000  -0.0000  -0.0000  -0.0000  -0.0000  -0.0000

          k = 0.1250 0.1250 0.2500 ( 13044 PWs)   bands (ev):

   -56.5089 -56.5089 -56.4896 -56.4896 -56.4798 -56.4798 -56.4755 -56.4755
   -28.5904 -28.5850 -28.5754 -28.5745 -28.5530 -28.5495 -28.4998 -28.4994
   -27.6341 -27.6291 -27.5878 -27.5805 -27.5558 -27.5488 -27.5441 -27.5415
   -27.5179 -27.4999 -27.4805 -27.4669 -27.4621 -27.4556 -27.4396 -27.4376
     3.3365   3.3366   6.0623   6.0655   7.2200   7.2244   8.4042   8.4082
     9.6713   9.6734  10.4338  10.4377  10.6894  10.6932  11.4162  11.4202
    11.8413  11.8462  12.2992  12.3026  12.7367  12.7419  13.0067  13.0118
    13.0823  13.0892  13.1144  13.1221  13.2811  13.2857  13.4386  13.4480
    13.6244  13.6329  13.8383  13.8470  14.1516  14.1577  15.0814  15.1066
    15.2832  15.2984  15.4456  15.4592  15.5892  15.6064  15.8104  15.8294
    16.2009  16.2166  16.5424  16.5562  17.1165  17.1523

     occupation numbers 
     1.0000   1.0000   1.0000   1.0000   1.0000   1.0000   1.0000   1.0000
     1.0000   1.0000   1.0000   1.0000   1.0000   1.0000   1.0000   1.0000
     1.0000   1.0000   1.0000   1.0000   1.0000   1.0000   1.0000   1.0000
     1.0000   1.0000   1.0000   1.0000   1.0000   1.0000   1.0000   1.0000
     1.0000   1.0000   1.0000   1.0000   1.0000   1.0000   1.0000   1.0000
     1.0000   1.0000   1.0000   1.0000   1.0000   1.0000   1.0000   1.0000
     1.0000   1.0000   1.0000   1.0000   1.0000   1.0000   1.0000   1.0000
     1.0000   1.0000   1.0000   1.0000   1.0000   1.0000   1.0000   1.0000
     1.0000   1.0000   1.0000   1.0000   1.0001   1.0001   0.1491   0.0993
    -0.0354  -0.0352  -0.0143  -0.0124  -0.0024  -0.0018  -0.0000  -0.0000
    -0.0000  -0.0000  -0.0000  -0.0000  -0.0000  -0.0000

          k = 0.1250 0.1250 0.3750 ( 13040 PWs)   bands (ev):

   -56.5048 -56.5048 -56.4944 -56.4944 -56.4786 -56.4786 -56.4760 -56.4760
   -28.5890 -28.5844 -28.5794 -28.5771 -28.5401 -28.5377 -28.5115 -28.5107
   -27.6354 -27.6308 -27.5785 -27.5724 -27.5641 -27.5503 -27.5423 -27.5328
   -27.5218 -27.4998 -27.4825 -27.4699 -27.4664 -27.4592 -27.4380 -27.4363
     3.8443   3.8445   5.2901   5.2912   7.5131   7.5154   8.3088   8.3132
     9.5580   9.5590  10.2040  10.2073  10.9208  10.9251  11.4066  11.4126
    11.7850  11.7884  12.2118  12.2155  12.7420  12.7477  12.9492  12.9568
    13.0584  13.0667  13.2277  13.2349  13.3258  13.3293  13.4308  13.4372
    13.6945  13.6974  13.9772  13.9846  14.3492  14.3692  14.8298  14.8625
    15.2454  15.2618  15.3179  15.3312  15.6100  15.6299  15.7677  15.7910
    16.1535  16.1629  16.3769  16.3914  17.3093  17.3328

     occupation numbers 
     1.0000   1.0000   1.0000   1.0000   1.0000   1.0000   1.0000   1.0000
     1.0000   1.0000   1.0000   1.0000   1.0000   1.0000   1.0000   1.0000
     1.0000   1.0000   1.0000   1.0000   1.0000   1.0000   1.0000   1.0000
     1.0000   1.0000   1.0000   1.0000   1.0000   1.0000   1.0000   1.0000
     1.0000   1.0000   1.0000   1.0000   1.0000   1.0000   1.0000   1.0000
     1.0000   1.0000   1.0000   1.0000   1.0000   1.0000   1.0000   1.0000
     1.0000   1.0000   1.0000   1.0000   1.0000   1.0000   1.0000   1.0000
     1.0000   1.0000   1.0000   1.0000   1.0000   1.0000   1.0000   1.0000
     1.0000   1.0000   1.0000   1.0000   1.0036   1.0048   0.8464   0.7688
    -0.0309  -0.0339  -0.0338  -0.0323  -0.0017  -0.0013  -0.0001  -0.0001
    -0.0000  -0.0000  -0.0000  -0.0000  -0.0000  -0.0000

          k = 0.1250 0.1250-0.5000 ( 13038 PWs)   bands (ev):

   -56.4997 -56.4997 -56.4997 -56.4997 -56.4772 -56.4772 -56.4772 -56.4772
   -28.5857 -28.5857 -28.5802 -28.5802 -28.5263 -28.5263 -28.5234 -28.5234
   -27.6337 -27.6337 -27.5716 -27.5716 -27.5608 -27.5608 -27.5342 -27.5342
   -27.5137 -27.5137 -27.4753 -27.4753 -27.4640 -27.4640 -27.4367 -27.4367
     4.5138   4.5138   4.5144   4.5144   7.9200   7.9200   7.9263   7.9263
     9.8402   9.8402   9.8416   9.8416  11.1808  11.1808  11.1905  11.1905
    12.0268  12.0268  12.0305  12.0305  12.7782  12.7782  12.7910  12.7910
    13.1760  13.1760  13.1842  13.1842  13.3658  13.3658  13.3687  13.3687
    13.8484  13.8484  13.8545  13.8545  14.6279  14.6279  14.6600  14.6600
    15.2466  15.2466  15.2658  15.2658  15.6845  15.6845  15.7105  15.7105
    16.2236  16.2236  16.2338  16.2338  17.6142  17.6160

     occupation numbers 
     1.0000   1.0000   1.0000   1.0000   1.0000   1.0000   1.0000   1.0000
     1.0000   1.0000   1.0000   1.0000   1.0000   1.0000   1.0000   1.0000
     1.0000   1.0000   1.0000   1.0000   1.0000   1.0000   1.0000   1.0000
     1.0000   1.0000   1.0000   1.0000   1.0000   1.0000   1.0000   1.0000
     1.0000   1.0000   1.0000   1.0000   1.0000   1.0000   1.0000   1.0000
     1.0000   1.0000   1.0000   1.0000   1.0000   1.0000   1.0000   1.0000
     1.0000   1.0000   1.0000   1.0000   1.0000   1.0000   1.0000   1.0000
     1.0000   1.0000   1.0000   1.0000   1.0000   1.0000   1.0000   1.0000
     1.0000   1.0000   1.0000   1.0000   1.0354   1.0354   1.0317   1.0317
    -0.0312  -0.0312  -0.0343  -0.0343  -0.0005  -0.0005  -0.0003  -0.0003
    -0.0000  -0.0000  -0.0000  -0.0000  -0.0000  -0.0000

          k = 0.1250 0.2500 0.2500 ( 13064 PWs)   bands (ev):

   -56.5065 -56.5065 -56.4911 -56.4911 -56.4804 -56.4804 -56.4759 -56.4759
   -28.5892 -28.5844 -28.5735 -28.5729 -28.5500 -28.5467 -28.5069 -28.5063
   -27.6316 -27.6283 -27.5838 -27.5753 -27.5562 -27.5520 -27.5456 -27.5436
   -27.5144 -27.5018 -27.4832 -27.4706 -27.4692 -27.4531 -27.4371 -27.4346
     3.6443   3.6445   6.0131   6.0175   6.9142   6.9206   8.2970   8.3007
     9.4082   9.4110  10.4284  10.4301  10.6902  10.6927  11.4593  11.4641
    11.9038  11.9064  12.3022  12.3041  12.6210  12.6275  12.9565  12.9629
    13.1175  13.1225  13.1938  13.2044  13.2830  13.2885  13.5797  13.5865
    13.7500  13.7576  13.9709  13.9800  14.2864  14.2934  15.0250  15.0422
    15.1593  15.1799  15.2856  15.2982  15.4997  15.5117  15.7209  15.7414
    16.1687  16.1797  16.5170  16.5295  17.1463  17.1869

     occupation numbers 
     1.0000   1.0000   1.0000   1.0000   1.0000   1.0000   1.0000   1.0000
     1.0000   1.0000   1.0000   1.0000   1.0000   1.0000   1.0000   1.0000
     1.0000   1.0000   1.0000   1.0000   1.0000   1.0000   1.0000   1.0000
     1.0000   1.0000   1.0000   1.0000   1.0000   1.0000   1.0000   1.0000
     1.0000   1.0000   1.0000   1.0000   1.0000   1.0000   1.0000   1.0000
     1.0000   1.0000   1.0000   1.0000   1.0000   1.0000   1.0000   1.0000
     1.0000   1.0000   1.0000   1.0000   1.0000   1.0000   1.0000   1.0000
     1.0000   1.0000   1.0000   1.0000   1.0000   1.0000   1.0000   1.0000
     1.0000   1.0000   1.0000   1.0000   1.0014   1.0016   0.2888   0.2423
     0.0231   0.0031  -0.0354  -0.0352  -0.0079  -0.0068  -0.0003  -0.0002
    -0.0000  -0.0000  -0.0000  -0.0000  -0.0000  -0.0000

          k = 0.1250 0.2500 0.3750 ( 13018 PWs)   bands (ev):

   -56.5028 -56.5028 -56.4943 -56.4943 -56.4799 -56.4799 -56.4769 -56.4769
   -28.5862 -28.5822 -28.5757 -28.5740 -28.5415 -28.5393 -28.5173 -28.5165
   -27.6293 -27.6263 -27.5802 -27.5722 -27.5632 -27.5531 -27.5410 -27.5361
   -27.5194 -27.5091 -27.4850 -27.4781 -27.4646 -27.4529 -27.4354 -27.4331
     4.1377   4.1381   5.4905   5.4926   7.0388   7.0428   7.9713   7.9745
     9.4101   9.4125  10.1455  10.1478  11.0641  11.0672  11.5738  11.5797
    11.8039  11.8114  12.0655  12.0671  12.5155  12.5255  12.7883  12.7959
    13.2090  13.2144  13.2907  13.3030  13.3530  13.3587  13.5996  13.6089
    13.8632  13.8747  14.0967  14.1081  14.5021  14.5302  14.8372  14.8640
    15.0710  15.0807  15.1474  15.1609  15.5088  15.5215  15.6336  15.6564
    16.2024  16.2093  16.4437  16.4545  17.1769  17.2035

     occupation numbers 
     1.0000   1.0000   1.0000   1.0000   1.0000   1.0000   1.0000   1.0000
     1.0000   1.0000   1.0000   1.0000   1.0000   1.0000   1.0000   1.0000
     1.0000   1.0000   1.0000   1.0000   1.0000   1.0000   1.0000   1.0000
     1.0000   1.0000   1.0000   1.0000   1.0000   1.0000   1.0000   1.0000
     1.0000   1.0000   1.0000   1.0000   1.0000   1.0000   1.0000   1.0000
     1.0000   1.0000   1.0000   1.0000   1.0000   1.0000   1.0000   1.0000
     1.0000   1.0000   1.0000   1.0000   1.0000   1.0000   1.0000   1.0000
     1.0000   1.0000   1.0000   1.0000   1.0000   1.0000   1.0000   1.0000
     1.0000   1.0000   1.0000   1.0000   1.0202   1.0249   0.8300   0.7650
     0.1720   0.1505   0.0371   0.0213  -0.0071  -0.0060  -0.0012  -0.0008
    -0.0000  -0.0000  -0.0000  -0.0000  -0.0000  -0.0000

          k = 0.1250 0.2500-0.5000 ( 13032 PWs)   bands (ev):

   -56.4985 -56.4985 -56.4985 -56.4985 -56.4784 -56.4784 -56.4784 -56.4784
   -28.5821 -28.5821 -28.5770 -28.5770 -28.5306 -28.5306 -28.5273 -28.5273
   -27.6269 -27.6269 -27.5760 -27.5760 -27.5595 -27.5595 -27.5325 -27.5325
   -27.5200 -27.5200 -27.4834 -27.4834 -27.4573 -27.4573 -27.4337 -27.4337
     4.7803   4.7803   4.7814   4.7814   7.4685   7.4685   7.4748   7.4748
     9.7441   9.7441   9.7465   9.7465  11.5278  11.5278  11.5354  11.5354
    11.7439  11.7439  11.7477  11.7477  12.6001  12.6001  12.6116  12.6116
    13.2928  13.2928  13.2991  13.2991  13.4706  13.4706  13.4822  13.4822
    14.0239  14.0239  14.0320  14.0320  14.6931  14.6931  14.7256  14.7256
    15.0673  15.0673  15.0837  15.0837  15.5567  15.5567  15.5803  15.5803
    16.3197  16.3197  16.3287  16.3287  17.3776  17.3839

     occupation numbers 
     1.0000   1.0000   1.0000   1.0000   1.0000   1.0000   1.0000   1.0000
     1.0000   1.0000   1.0000   1.0000   1.0000   1.0000   1.0000   1.0000
     1.0000   1.0000   1.0000   1.0000   1.0000   1.0000   1.0000   1.0000
     1.0000   1.0000   1.0000   1.0000   1.0000   1.0000   1.0000   1.0000
     1.0000   1.0000   1.0000   1.0000   1.0000   1.0000   1.0000   1.0000
     1.0000   1.0000   1.0000   1.0000   1.0000   1.0000   1.0000   1.0000
     1.0000   1.0000   1.0000   1.0000   1.0000   1.0000   1.0000   1.0000
     1.0000   1.0000   1.0000   1.0000   1.0000   1.0000   1.0000   1.0000
     1.0000   1.0000   1.0000   1.0000   1.0206   1.0206   0.9999   0.9999
     0.1805   0.1805   0.1441   0.1441  -0.0038  -0.0038  -0.0027  -0.0027
    -0.0000  -0.0000  -0.0000  -0.0000  -0.0000  -0.0000

          k = 0.1250 0.3750 0.3750 ( 13034 PWs)   bands (ev):

   -56.5000 -56.5000 -56.4949 -56.4949 -56.4805 -56.4805 -56.4784 -56.4784
   -28.5818 -28.5786 -28.5734 -28.5725 -28.5404 -28.5386 -28.5256 -28.5246
   -27.6215 -27.6198 -27.5853 -27.5808 -27.5585 -27.5508 -27.5394 -27.5319
   -27.5232 -27.5142 -27.4944 -27.4891 -27.4549 -27.4464 -27.4353 -27.4322
     4.6015   4.6021   5.5956   5.5979   6.6176   6.6210   7.4188   7.4219
     9.5842   9.5867  10.2020  10.2054  10.9492  10.9512  11.5404  11.5429
    11.7639  11.7684  12.1097  12.1115  12.3540  12.3584  12.6180  12.6247
    13.1924  13.1980  13.3136  13.3188  13.5609  13.5697  13.7647  13.7808
    14.0192  14.0327  14.2995  14.3085  14.5622  14.5808  14.7914  14.8059
    14.8770  14.8821  14.9917  15.0215  15.4336  15.4343  15.5040  15.5159
    16.3022  16.3115  16.4774  16.4838  17.0649  17.0862

     occupation numbers 
     1.0000   1.0000   1.0000   1.0000   1.0000   1.0000   1.0000   1.0000
     1.0000   1.0000   1.0000   1.0000   1.0000   1.0000   1.0000   1.0000
     1.0000   1.0000   1.0000   1.0000   1.0000   1.0000   1.0000   1.0000
     1.0000   1.0000   1.0000   1.0000   1.0000   1.0000   1.0000   1.0000
     1.0000   1.0000   1.0000   1.0000   1.0000   1.0000   1.0000   1.0000
     1.0000   1.0000   1.0000   1.0000   1.0000   1.0000   1.0000   1.0000
     1.0000   1.0000   1.0000   1.0000   1.0000   1.0000   1.0000   1.0000
     1.0000   1.0000   1.0000   1.0000   1.0000   1.0000   1.0000   1.0000
     1.0000   1.0000   1.0017   1.0020   1.0301   1.0327   0.9198   0.8943
     0.7305   0.7167   0.3856   0.2984  -0.0160  -0.0159  -0.0075  -0.0065
    -0.0000  -0.0000  -0.0000  -0.0000  -0.0000  -0.0000

          k = 0.1250 0.3750-0.5000 ( 13036 PWs)   bands (ev):

   -56.4971 -56.4971 -56.4971 -56.4971 -56.4799 -56.4799 -56.4799 -56.4799
   -28.5772 -28.5772 -28.5737 -28.5737 -28.5350 -28.5350 -28.5324 -28.5324
   -27.6163 -27.6163 -27.5881 -27.5881 -27.5528 -27.5528 -27.5330 -27.5330
   -27.5209 -27.5209 -27.4964 -27.4964 -27.4472 -27.4472 -27.4339 -27.4339
     5.1727   5.1727   5.1742   5.1742   6.8548   6.8548   6.8593   6.8593
     9.9260   9.9260   9.9291   9.9291  11.2680  11.2680  11.2701  11.2701
    11.8655  11.8655  11.8730  11.8730  12.4202  12.4202  12.4280  12.4280
    13.2926  13.2926  13.2963  13.2963  13.6813  13.6813  13.6954  13.6954
    14.2866  14.2866  14.2933  14.2933  14.6335  14.6335  14.6461  14.6461
    14.9017  14.9017  14.9207  14.9207  15.4311  15.4311  15.4469  15.4469
    16.4459  16.4460  16.4536  16.4536  17.0944  17.0963

     occupation numbers 
     1.0000   1.0000   1.0000   1.0000   1.0000   1.0000   1.0000   1.0000
     1.0000   1.0000   1.0000   1.0000   1.0000   1.0000   1.0000   1.0000
     1.0000   1.0000   1.0000   1.0000   1.0000   1.0000   1.0000   1.0000
     1.0000   1.0000   1.0000   1.0000   1.0000   1.0000   1.0000   1.0000
     1.0000   1.0000   1.0000   1.0000   1.0000   1.0000   1.0000   1.0000
     1.0000   1.0000   1.0000   1.0000   1.0000   1.0000   1.0000   1.0000
     1.0000   1.0000   1.0000   1.0000   1.0000   1.0000   1.0000   1.0000
     1.0000   1.0000   1.0000   1.0000   1.0000   1.0000   1.0000   1.0000
     1.0014   1.0014   1.0016   1.0016   1.0351   1.0351   1.0340   1.0340
     0.6608   0.6608   0.6042   0.6042  -0.0164  -0.0164  -0.0141  -0.0141
    -0.0000  -0.0000  -0.0000  -0.0000  -0.0000  -0.0000

          k = 0.1250-0.5000-0.5000 ( 12996 PWs)   bands (ev):

   -56.4964 -56.4964 -56.4964 -56.4964 -56.4805 -56.4805 -56.4805 -56.4805
   -28.5736 -28.5736 -28.5735 -28.5735 -28.5360 -28.5360 -28.5358 -28.5358
   -27.6053 -27.6053 -27.5999 -27.5999 -27.5484 -27.5484 -27.5354 -27.5354
   -27.5176 -27.5176 -27.5040 -27.5040 -27.4411 -27.4411 -27.4365 -27.4365
     5.4483   5.4483   5.4494   5.4494   6.4883   6.4883   6.4903   6.4903
    10.0927  10.0927  10.0963  10.0963  11.0432  11.0432  11.0449  11.0449
    11.9595  11.9595  11.9619  11.9619  12.3352  12.3352  12.3377  12.3377
    13.2747  13.2747  13.2755  13.2755  13.8463  13.8463  13.8597  13.8597
    14.3459  14.3459  14.3514  14.3514  14.6307  14.6307  14.6472  14.6472
    14.8008  14.8008  14.8028  14.8028  15.3855  15.3855  15.3857  15.3857
    16.5203  16.5203  16.5219  16.5219  16.9705  16.9738

     occupation numbers 
     1.0000   1.0000   1.0000   1.0000   1.0000   1.0000   1.0000   1.0000
     1.0000   1.0000   1.0000   1.0000   1.0000   1.0000   1.0000   1.0000
     1.0000   1.0000   1.0000   1.0000   1.0000   1.0000   1.0000   1.0000
     1.0000   1.0000   1.0000   1.0000   1.0000   1.0000   1.0000   1.0000
     1.0000   1.0000   1.0000   1.0000   1.0000   1.0000   1.0000   1.0000
     1.0000   1.0000   1.0000   1.0000   1.0000   1.0000   1.0000   1.0000
     1.0000   1.0000   1.0000   1.0000   1.0000   1.0000   1.0000   1.0000
     1.0000   1.0000   1.0000   1.0000   1.0000   1.0000   1.0000   1.0000
     1.0035   1.0035   1.0037   1.0037   1.0353   1.0353   1.0339   1.0339
     0.9037   0.9037   0.9000   0.9000  -0.0238  -0.0238  -0.0238  -0.0238
    -0.0000  -0.0000  -0.0000  -0.0000  -0.0000  -0.0000

          k = 0.2500 0.2500 0.2500 ( 13052 PWs)   bands (ev):

   -56.5042 -56.5042 -56.4916 -56.4916 -56.4814 -56.4814 -56.4767 -56.4767
   -28.5870 -28.5826 -28.5708 -28.5705 -28.5494 -28.5463 -28.5135 -28.5126
   -27.6285 -27.6248 -27.5829 -27.5709 -27.5587 -27.5558 -27.5463 -27.5437
   -27.5128 -27.5089 -27.4776 -27.4754 -27.4645 -27.4596 -27.4356 -27.4331
     3.9442   3.9443   6.0539   6.0607   6.7947   6.8050   8.0512   8.0520
     9.0663   9.0690  10.0625  10.0661  11.1542  11.1585  11.1984  11.1988
    11.9201  11.9214  12.3556  12.3572  12.8100  12.8165  12.8818  12.8827
    13.1331  13.1409  13.1419  13.1536  13.1851  13.1900  13.7583  13.7669
    13.7744  13.7866  14.0638  14.0713  14.4485  14.4657  14.9860  15.0021
    15.1297  15.1329  15.2661  15.2667  15.3058  15.3115  15.6144  15.6335
    16.1821  16.1903  16.4814  16.4927  17.1253  17.1551

     occupation numbers 
     1.0000   1.0000   1.0000   1.0000   1.0000   1.0000   1.0000   1.0000
     1.0000   1.0000   1.0000   1.0000   1.0000   1.0000   1.0000   1.0000
     1.0000   1.0000   1.0000   1.0000   1.0000   1.0000   1.0000   1.0000
     1.0000   1.0000   1.0000   1.0000   1.0000   1.0000   1.0000   1.0000
     1.0000   1.0000   1.0000   1.0000   1.0000   1.0000   1.0000   1.0000
     1.0000   1.0000   1.0000   1.0000   1.0000   1.0000   1.0000   1.0000
     1.0000   1.0000   1.0000   1.0000   1.0000   1.0000   1.0000   1.0000
     1.0000   1.0000   1.0000   1.0000   1.0000   1.0000   1.0000   1.0000
     1.0000   1.0000   1.0000   1.0000   1.0122   1.0146   0.4030   0.3546
     0.0613   0.0567  -0.0344  -0.0344  -0.0348  -0.0344  -0.0016  -0.0012
    -0.0000  -0.0000  -0.0000  -0.0000  -0.0000  -0.0000

          k = 0.2500 0.2500 0.3750 ( 13021 PWs)   bands (ev):

   -56.5009 -56.5009 -56.4936 -56.4936 -56.4812 -56.4812 -56.4781 -56.4781
   -28.5831 -28.5794 -28.5721 -28.5708 -28.5439 -28.5416 -28.5230 -28.5218
   -27.6243 -27.6211 -27.5794 -27.5710 -27.5658 -27.5609 -27.5429 -27.5333
   -27.5235 -27.5101 -27.4815 -27.4715 -27.4666 -27.4578 -27.4354 -27.4327
     4.4224   4.4227   5.6836   5.6865   6.9121   6.9181   7.7713   7.7740
     8.9807   8.9845   9.7546   9.7585  11.0333  11.0363  11.5967  11.5995
    11.6772  11.6805  12.2578  12.2625  12.7415  12.7511  12.8771  12.8844
    13.1098  13.1218  13.2126  13.2240  13.2936  13.2976  13.6220  13.6298
    13.9380  13.9481  14.2615  14.2728  14.6146  14.6470  14.8445  14.8638
    15.0205  15.0308  15.1813  15.2075  15.3268  15.3418  15.5260  15.5428
    16.2218  16.2286  16.4120  16.4202  17.1198  17.1349

     occupation numbers 
     1.0000   1.0000   1.0000   1.0000   1.0000   1.0000   1.0000   1.0000
     1.0000   1.0000   1.0000   1.0000   1.0000   1.0000   1.0000   1.0000
     1.0000   1.0000   1.0000   1.0000   1.0000   1.0000   1.0000   1.0000
     1.0000   1.0000   1.0000   1.0000   1.0000   1.0000   1.0000   1.0000
     1.0000   1.0000   1.0000   1.0000   1.0000   1.0000   1.0000   1.0000
     1.0000   1.0000   1.0000   1.0000   1.0000   1.0000   1.0000   1.0000
     1.0000   1.0000   1.0000   1.0000   1.0000   1.0000   1.0000   1.0000
     1.0000   1.0000   1.0000   1.0000   1.0000   1.0000   1.0000   1.0000
     1.0000   1.0000   1.0009   1.0011   1.0354   1.0339   0.8132   0.7654
     0.3014   0.2728   0.0019  -0.0162  -0.0329  -0.0309  -0.0057  -0.0046
    -0.0000  -0.0000  -0.0000  -0.0000  -0.0000  -0.0000

          k = 0.2500 0.2500-0.5000 ( 13028 PWs)   bands (ev):

   -56.4971 -56.4971 -56.4971 -56.4971 -56.4799 -56.4799 -56.4799 -56.4799
   -28.5784 -28.5784 -28.5736 -28.5736 -28.5351 -28.5351 -28.5313 -28.5313
   -27.6209 -27.6209 -27.5749 -27.5749 -27.5659 -27.5659 -27.5349 -27.5349
   -27.5194 -27.5194 -27.4785 -27.4785 -27.4599 -27.4599 -27.4340 -27.4340
     5.0366   5.0366   5.0378   5.0378   7.3193   7.3193   7.3253   7.3253
     9.3111   9.3111   9.3153   9.3153  11.2767  11.2767  11.2791  11.2791
    11.9764  11.9764  11.9846  11.9846  12.8035  12.8035  12.8137  12.8137
    13.1738  13.1738  13.1864  13.1864  13.4388  13.4388  13.4460  13.4460
    14.1681  14.1681  14.1777  14.1777  14.7499  14.7499  14.7772  14.7772
    15.0557  15.0557  15.0746  15.0746  15.4324  15.4324  15.4486  15.4486
    16.3111  16.3111  16.3207  16.3207  17.2567  17.2588

     occupation numbers 
     1.0000   1.0000   1.0000   1.0000   1.0000   1.0000   1.0000   1.0000
     1.0000   1.0000   1.0000   1.0000   1.0000   1.0000   1.0000   1.0000
     1.0000   1.0000   1.0000   1.0000   1.0000   1.0000   1.0000   1.0000
     1.0000   1.0000   1.0000   1.0000   1.0000   1.0000   1.0000   1.0000
     1.0000   1.0000   1.0000   1.0000   1.0000   1.0000   1.0000   1.0000
     1.0000   1.0000   1.0000   1.0000   1.0000   1.0000   1.0000   1.0000
     1.0000   1.0000   1.0000   1.0000   1.0000   1.0000   1.0000   1.0000
     1.0000   1.0000   1.0000   1.0000   1.0000   1.0000   1.0000   1.0000
     1.0002   1.0002   1.0002   1.0002   0.9768   0.9768   0.9418   0.9418
     0.2082   0.2082   0.1638   0.1638  -0.0162  -0.0162  -0.0138  -0.0138
    -0.0000  -0.0000  -0.0000  -0.0000  -0.0000  -0.0000

          k = 0.2500 0.3750 0.3750 ( 13025 PWs)   bands (ev):

   -56.4982 -56.4982 -56.4937 -56.4937 -56.4822 -56.4822 -56.4799 -56.4799
   -28.5783 -28.5753 -28.5696 -28.5688 -28.5441 -28.5423 -28.5309 -28.5295
   -27.6170 -27.6142 -27.5826 -27.5776 -27.5667 -27.5623 -27.5443 -27.5330
   -27.5233 -27.5072 -27.4859 -27.4763 -27.4599 -27.4546 -27.4372 -27.4341
     4.8696   4.8702   5.7964   5.8004   6.6821   6.6889   7.3945   7.3977
     8.9589   8.9634   9.5731   9.5785  10.6885  10.6923  11.2071  11.2089
    12.0018  12.0047  12.4204  12.4245  12.6320  12.6375  12.8200  12.8258
    13.1286  13.1369  13.1823  13.1908  13.3827  13.3922  13.5839  13.5958
    14.1425  14.1511  14.4967  14.5137  14.6842  14.7078  14.8378  14.8568
    14.9336  14.9377  15.1310  15.1634  15.2752  15.2870  15.4313  15.4447
    16.2773  16.2848  16.4044  16.4089  16.9738  16.9841

     occupation numbers 
     1.0000   1.0000   1.0000   1.0000   1.0000   1.0000   1.0000   1.0000
     1.0000   1.0000   1.0000   1.0000   1.0000   1.0000   1.0000   1.0000
     1.0000   1.0000   1.0000   1.0000   1.0000   1.0000   1.0000   1.0000
     1.0000   1.0000   1.0000   1.0000   1.0000   1.0000   1.0000   1.0000
     1.0000   1.0000   1.0000   1.0000   1.0000   1.0000   1.0000   1.0000
     1.0000   1.0000   1.0000   1.0000   1.0000   1.0000   1.0000   1.0000
     1.0000   1.0000   1.0000   1.0000   1.0000   1.0000   1.0000   1.0000
     1.0000   1.0000   1.0000   1.0000   1.0000   1.0000   1.0000   1.0000
     1.0001   1.0001   1.0193   1.0221   1.0244   1.0126   0.8285   0.7832
     0.5649   0.5523   0.0595   0.0188  -0.0351  -0.0355  -0.0163  -0.0144
    -0.0000  -0.0000  -0.0000  -0.0000  -0.0000  -0.0000

          k = 0.2500 0.3750-0.5000 ( 13046 PWs)   bands (ev):

   -56.4954 -56.4954 -56.4954 -56.4954 -56.4816 -56.4816 -56.4815 -56.4815
   -28.5734 -28.5734 -28.5700 -28.5700 -28.5397 -28.5397 -28.5368 -28.5368
   -27.6114 -27.6114 -27.5846 -27.5846 -27.5638 -27.5638 -27.5404 -27.5404
   -27.5127 -27.5127 -27.4840 -27.4840 -27.4538 -27.4538 -27.4369 -27.4369
     5.4120   5.4120   5.4138   5.4138   6.9216   6.9216   6.9270   6.9270
     9.2727   9.2727   9.2778   9.2778  10.7883  10.7883  10.7909  10.7909
    12.2809  12.2809  12.2895  12.2895  12.6862  12.6862  12.6936  12.6936
    13.1722  13.1722  13.1800  13.1800  13.4762  13.4762  13.4892  13.4892
    14.4066  14.4066  14.4154  14.4154  14.7924  14.7924  14.8099  14.8099
    14.9887  14.9887  15.0106  15.0106  15.3488  15.3488  15.3592  15.3592
    16.3661  16.3661  16.3732  16.3732  16.9857  16.9869

     occupation numbers 
     1.0000   1.0000   1.0000   1.0000   1.0000   1.0000   1.0000   1.0000
     1.0000   1.0000   1.0000   1.0000   1.0000   1.0000   1.0000   1.0000
     1.0000   1.0000   1.0000   1.0000   1.0000   1.0000   1.0000   1.0000
     1.0000   1.0000   1.0000   1.0000   1.0000   1.0000   1.0000   1.0000
     1.0000   1.0000   1.0000   1.0000   1.0000   1.0000   1.0000   1.0000
     1.0000   1.0000   1.0000   1.0000   1.0000   1.0000   1.0000   1.0000
     1.0000   1.0000   1.0000   1.0000   1.0000   1.0000   1.0000   1.0000
     1.0000   1.0000   1.0000   1.0000   1.0000   1.0000   1.0000   1.0000
     1.0076   1.0076   1.0085   1.0085   0.9182   0.9182   0.8870   0.8870
     0.3947   0.3947   0.3295   0.3295  -0.0299  -0.0299  -0.0282  -0.0282
    -0.0000  -0.0000  -0.0000  -0.0000  -0.0000  -0.0000

          k = 0.2500-0.5000-0.5000 ( 13060 PWs)   bands (ev):

   -56.4945 -56.4945 -56.4945 -56.4945 -56.4824 -56.4824 -56.4824 -56.4824
   -28.5697 -28.5697 -28.5694 -28.5694 -28.5409 -28.5409 -28.5406 -28.5406
   -27.6028 -27.6028 -27.5942 -27.5942 -27.5617 -27.5617 -27.5430 -27.5430
   -27.5081 -27.5081 -27.4891 -27.4891 -27.4482 -27.4482 -27.4404 -27.4404
     5.6731   5.6731   5.6752   5.6752   6.6208   6.6208   6.6250   6.6250
     9.3818   9.3818   9.3872   9.3872  10.5094  10.5094  10.5126  10.5126
    12.4776  12.4776  12.4808  12.4808  12.5638  12.5638  12.5659  12.5659
    13.1156  13.1156  13.1160  13.1160  13.5548  13.5548  13.5677  13.5677
    14.5097  14.5097  14.5184  14.5184  14.8358  14.8358  14.8505  14.8505
    14.9373  14.9373  14.9383  14.9383  15.3108  15.3108  15.3137  15.3137
    16.4149  16.4149  16.4156  16.4156  16.8627  16.8642

     occupation numbers 
     1.0000   1.0000   1.0000   1.0000   1.0000   1.0000   1.0000   1.0000
     1.0000   1.0000   1.0000   1.0000   1.0000   1.0000   1.0000   1.0000
     1.0000   1.0000   1.0000   1.0000   1.0000   1.0000   1.0000   1.0000
     1.0000   1.0000   1.0000   1.0000   1.0000   1.0000   1.0000   1.0000
     1.0000   1.0000   1.0000   1.0000   1.0000   1.0000   1.0000   1.0000
     1.0000   1.0000   1.0000   1.0000   1.0000   1.0000   1.0000   1.0000
     1.0000   1.0000   1.0000   1.0000   1.0000   1.0000   1.0000   1.0000
     1.0000   1.0000   1.0000   1.0000   1.0000   1.0000   1.0000   1.0000
     1.0215   1.0215   1.0229   1.0229   0.8332   0.8332   0.7989   0.7989
     0.5536   0.5536   0.5503   0.5503  -0.0345  -0.0345  -0.0342  -0.0342
    -0.0000  -0.0000  -0.0000  -0.0000  -0.0000  -0.0000

          k = 0.3750 0.3750 0.3750 ( 13043 PWs)   bands (ev):

   -56.4956 -56.4956 -56.4924 -56.4924 -56.4839 -56.4839 -56.4819 -56.4819
   -28.5730 -28.5705 -28.5654 -28.5652 -28.5473 -28.5458 -28.5381 -28.5365
   -27.6098 -27.6069 -27.5817 -27.5754 -27.5746 -27.5725 -27.5476 -27.5415
   -27.5128 -27.5011 -27.4803 -27.4660 -27.4635 -27.4612 -27.4410 -27.4385
     5.2845   5.2853   5.9998   6.0060   6.6312   6.6411   7.1889   7.1923
     8.7560   8.7618   9.2626   9.2700  10.1956  10.2006  10.6465  10.6488
    12.3231  12.3262  12.5915  12.5958  12.7692  12.7726  12.8675  12.8694
    13.1094  13.1197  13.1693  13.1745  13.2711  13.2715  13.3954  13.4002
    14.3621  14.3648  14.7230  14.7435  14.7843  14.7924  14.9230  14.9578
    15.0670  15.0735  15.0979  15.1033  15.2537  15.2842  15.3084  15.3299
    16.2851  16.2927  16.3589  16.3607  16.8107  16.8150

     occupation numbers 
     1.0000   1.0000   1.0000   1.0000   1.0000   1.0000   1.0000   1.0000
     1.0000   1.0000   1.0000   1.0000   1.0000   1.0000   1.0000   1.0000
     1.0000   1.0000   1.0000   1.0000   1.0000   1.0000   1.0000   1.0000
     1.0000   1.0000   1.0000   1.0000   1.0000   1.0000   1.0000   1.0000
[...]
   -28.5898 -28.5850 -28.5812 -28.5786 -28.5393 -28.5368 -28.5094 -28.5086
   -27.6376 -27.6323 -27.5779 -27.5749 -27.5643 -27.5474 -27.5421 -27.5301
   -27.5238 -27.4943 -27.4855 -27.4719 -27.4629 -27.4569 -27.4411 -27.4382
     3.7443   3.7444   5.2133   5.2138   7.6681   7.6705   8.4236   8.4305
     9.7494   9.7522  10.2953  10.3013  10.9489  10.9561  10.9938  10.9970
    11.9114  11.9151  12.2300  12.2348  12.8380  12.8462  13.0351  13.0380
    13.0607  13.0629  13.1349  13.1400  13.2983  13.3028  13.3907  13.3963
    13.5798  13.5799  13.9424  13.9493  14.2815  14.2979  14.8142  14.8483
    15.3087  15.3246  15.3846  15.4032  15.6835  15.7115  15.8024  15.8271
    16.1476  16.1609  16.3426  16.3574  17.3381  17.3573

     occupation numbers 
     1.0000   1.0000   1.0000   1.0000   1.0000   1.0000   1.0000   1.0000
     1.0000   1.0000   1.0000   1.0000   1.0000   1.0000   1.0000   1.0000
     1.0000   1.0000   1.0000   1.0000   1.0000   1.0000   1.0000   1.0000
     1.0000   1.0000   1.0000   1.0000   1.0000   1.0000   1.0000   1.0000
     1.0000   1.0000   1.0000   1.0000   1.0000   1.0000   1.0000   1.0000
     1.0000   1.0000   1.0000   1.0000   1.0000   1.0000   1.0000   1.0000
     1.0000   1.0000   1.0000   1.0000   1.0000   1.0000   1.0000   1.0000
     1.0000   1.0000   1.0000   1.0000   1.0000   1.0000   1.0000   1.0000
     1.0000   1.0000   1.0000   1.0000   1.0013   1.0017   0.8785   0.8042
    -0.0346  -0.0331  -0.0240  -0.0208  -0.0005  -0.0003  -0.0000  -0.0000
    -0.0000  -0.0000  -0.0000  -0.0000  -0.0000  -0.0000

          k = 0.0000-0.5000 0.1250 ( 13026 PWs)   bands (ev):

   -56.5002 -56.5002 -56.5002 -56.5002 -56.4767 -56.4767 -56.4767 -56.4767
   -28.5871 -28.5871 -28.5814 -28.5814 -28.5244 -28.5244 -28.5220 -28.5220
   -27.6360 -27.6360 -27.5721 -27.5721 -27.5593 -27.5593 -27.5350 -27.5350
   -27.5094 -27.5094 -27.4779 -27.4779 -27.4611 -27.4611 -27.4394 -27.4394
     4.4215   4.4215   4.4219   4.4219   8.0594   8.0594   8.0648   8.0648
    10.0562  10.0562  10.0610  10.0610  10.8858  10.8858  10.8945  10.8945
    12.1686  12.1686  12.1736  12.1736  12.8615  12.8615  12.8688  12.8688
    13.1014  13.1014  13.1069  13.1069  13.3090  13.3090  13.3163  13.3163
    13.7930  13.7930  13.7975  13.7975  14.5903  14.5903  14.6203  14.6203
    15.3201  15.3201  15.3409  15.3409  15.7324  15.7324  15.7614  15.7614
    16.1912  16.1912  16.2035  16.2035  17.6030  17.6041

     occupation numbers 
     1.0000   1.0000   1.0000   1.0000   1.0000   1.0000   1.0000   1.0000
     1.0000   1.0000   1.0000   1.0000   1.0000   1.0000   1.0000   1.0000
     1.0000   1.0000   1.0000   1.0000   1.0000   1.0000   1.0000   1.0000
     1.0000   1.0000   1.0000   1.0000   1.0000   1.0000   1.0000   1.0000
     1.0000   1.0000   1.0000   1.0000   1.0000   1.0000   1.0000   1.0000
     1.0000   1.0000   1.0000   1.0000   1.0000   1.0000   1.0000   1.0000
     1.0000   1.0000   1.0000   1.0000   1.0000   1.0000   1.0000   1.0000
     1.0000   1.0000   1.0000   1.0000   1.0000   1.0000   1.0000   1.0000
     1.0000   1.0000   1.0000   1.0000   1.0338   1.0338   1.0355   1.0355
    -0.0336  -0.0336  -0.0310  -0.0310  -0.0002  -0.0002  -0.0001  -0.0001
    -0.0000  -0.0000  -0.0000  -0.0000  -0.0000  -0.0000

          k = 0.0000 0.3750 0.2500 ( 13034 PWs)   bands (ev):

   -56.5035 -56.5035 -56.4946 -56.4946 -56.4793 -56.4793 -56.4766 -56.4766
   -28.5872 -28.5832 -28.5771 -28.5755 -28.5406 -28.5381 -28.5154 -28.5144
   -27.6312 -27.6284 -27.5791 -27.5750 -27.5603 -27.5518 -27.5416 -27.5331
   -27.5222 -27.5024 -27.4906 -27.4828 -27.4620 -27.4492 -27.4364 -27.4338
     4.0405   4.0407   5.4165   5.4172   7.0480   7.0489   8.0210   8.0255
     9.9593   9.9627  10.2695  10.2748  10.9113  10.9151  11.0723  11.0744
    11.9252  11.9297  12.2413  12.2450  12.5545  12.5586  12.7985  12.8036
    13.1005  13.1070  13.3332  13.3381  13.5323  13.5373  13.6281  13.6345
    13.7281  13.7393  13.9984  14.0097  14.4333  14.4575  14.8074  14.8385
    15.1052  15.1238  15.1492  15.1671  15.5612  15.5880  15.6542  15.6824
    16.1877  16.1974  16.4137  16.4249  17.2846  17.3156

     occupation numbers 
     1.0000   1.0000   1.0000   1.0000   1.0000   1.0000   1.0000   1.0000
     1.0000   1.0000   1.0000   1.0000   1.0000   1.0000   1.0000   1.0000
     1.0000   1.0000   1.0000   1.0000   1.0000   1.0000   1.0000   1.0000
     1.0000   1.0000   1.0000   1.0000   1.0000   1.0000   1.0000   1.0000
     1.0000   1.0000   1.0000   1.0000   1.0000   1.0000   1.0000   1.0000
     1.0000   1.0000   1.0000   1.0000   1.0000   1.0000   1.0000   1.0000
     1.0000   1.0000   1.0000   1.0000   1.0000   1.0000   1.0000   1.0000
     1.0000   1.0000   1.0000   1.0000   1.0000   1.0000   1.0000   1.0000
     1.0000   1.0000   1.0000   1.0000   1.0104   1.0134   0.8917   0.8270
     0.1019   0.0704   0.0348   0.0149  -0.0036  -0.0024  -0.0008  -0.0005
    -0.0000  -0.0000  -0.0000  -0.0000  -0.0000  -0.0000

          k = 0.0000-0.5000 0.2500 ( 13016 PWs)   bands (ev):

   -56.4990 -56.4990 -56.4990 -56.4990 -56.4779 -56.4779 -56.4779 -56.4779
   -28.5834 -28.5834 -28.5782 -28.5782 -28.5290 -28.5290 -28.5257 -28.5257
   -27.6291 -27.6291 -27.5762 -27.5762 -27.5569 -27.5569 -27.5335 -27.5335
   -27.5172 -27.5172 -27.4880 -27.4880 -27.4543 -27.4543 -27.4343 -27.4343
     4.6909   4.6909   4.6916   4.6916   7.4869   7.4869   7.4903   7.4903
    10.2657  10.2657  10.2705  10.2705  10.8446  10.8446  10.8490  10.8490
    12.0952  12.0952  12.1009  12.1009  12.6608  12.6608  12.6714  12.6714
    13.1883  13.1883  13.1955  13.1955  13.6627  13.6627  13.6724  13.6724
    13.8550  13.8550  13.8621  13.8621  14.6377  14.6377  14.6709  14.6709
    15.0910  15.0910  15.1176  15.1176  15.5700  15.5700  15.5971  15.5971
    16.2848  16.2848  16.2960  16.2960  17.4771  17.4811

     occupation numbers 
     1.0000   1.0000   1.0000   1.0000   1.0000   1.0000   1.0000   1.0000
     1.0000   1.0000   1.0000   1.0000   1.0000   1.0000   1.0000   1.0000
     1.0000   1.0000   1.0000   1.0000   1.0000   1.0000   1.0000   1.0000
     1.0000   1.0000   1.0000   1.0000   1.0000   1.0000   1.0000   1.0000
     1.0000   1.0000   1.0000   1.0000   1.0000   1.0000   1.0000   1.0000
     1.0000   1.0000   1.0000   1.0000   1.0000   1.0000   1.0000   1.0000
     1.0000   1.0000   1.0000   1.0000   1.0000   1.0000   1.0000   1.0000
     1.0000   1.0000   1.0000   1.0000   1.0000   1.0000   1.0000   1.0000
     1.0000   1.0000   1.0000   1.0000   1.0349   1.0349   1.0290   1.0290
     0.1292   0.1292   0.0804   0.0804  -0.0031  -0.0031  -0.0021  -0.0021
    -0.0000  -0.0000  -0.0000  -0.0000  -0.0000  -0.0000

          k = 0.0000-0.5000 0.3750 ( 13042 PWs)   bands (ev):

   -56.4977 -56.4977 -56.4977 -56.4977 -56.4793 -56.4793 -56.4793 -56.4793
   -28.5786 -28.5786 -28.5751 -28.5751 -28.5334 -28.5334 -28.5307 -28.5307
   -27.6182 -27.6182 -27.5890 -27.5890 -27.5473 -27.5473 -27.5314 -27.5314
   -27.5220 -27.5220 -27.5034 -27.5034 -27.4443 -27.4443 -27.4333 -27.4333
     5.0893   5.0893   5.0901   5.0901   6.8138   6.8138   6.8158   6.8158
    10.6240  10.6240  10.6263  10.6263  10.8527  10.8527  10.8562  10.8562
    11.8731  11.8731  11.8764  11.8764  12.3350  12.3350  12.3428  12.3428
    13.3021  13.3021  13.3076  13.3076  13.9492  13.9492  13.9558  13.9558
    14.0788  14.0788  14.0868  14.0868  14.6215  14.6215  14.6534  14.6534
    14.8221  14.8221  14.8624  14.8624  15.4469  15.4469  15.4661  15.4661
    16.4439  16.4439  16.4561  16.4561  17.1889  17.1932

     occupation numbers 
     1.0000   1.0000   1.0000   1.0000   1.0000   1.0000   1.0000   1.0000
     1.0000   1.0000   1.0000   1.0000   1.0000   1.0000   1.0000   1.0000
     1.0000   1.0000   1.0000   1.0000   1.0000   1.0000   1.0000   1.0000
     1.0000   1.0000   1.0000   1.0000   1.0000   1.0000   1.0000   1.0000
     1.0000   1.0000   1.0000   1.0000   1.0000   1.0000   1.0000   1.0000
     1.0000   1.0000   1.0000   1.0000   1.0000   1.0000   1.0000   1.0000
     1.0000   1.0000   1.0000   1.0000   1.0000   1.0000   1.0000   1.0000
     1.0000   1.0000   1.0000   1.0000   1.0000   1.0000   1.0000   1.0000
     1.0000   1.0000   1.0000   1.0000   1.0355   1.0355   1.0329   1.0329
     0.8627   0.8627   0.7692   0.7692  -0.0141  -0.0141  -0.0116  -0.0116
    -0.0000  -0.0000  -0.0000  -0.0000  -0.0000  -0.0000

          k =-0.1250 0.3750 0.2500 ( 13018 PWs)   bands (ev):

   -56.5028 -56.5028 -56.4943 -56.4943 -56.4799 -56.4799 -56.4769 -56.4769
   -28.5862 -28.5822 -28.5756 -28.5741 -28.5417 -28.5392 -28.5174 -28.5164
   -27.6294 -27.6265 -27.5791 -27.5733 -27.5619 -27.5542 -27.5412 -27.5362
   -27.5189 -27.5097 -27.4845 -27.4783 -27.4648 -27.4527 -27.4354 -27.4332
     4.1377   4.1380   5.4901   5.4916   7.0410   7.0437   7.9713   7.9755
     9.4172   9.4198  10.2015  10.2028  10.9145  10.9161  11.5448  11.5484
    11.7465  11.7487  12.1891  12.1928  12.6584  12.6629  12.8605  12.8660
    13.0835  13.0881  13.2585  13.2704  13.4135  13.4166  13.6456  13.6570
    13.7955  13.8044  14.0773  14.0863  14.4876  14.5145  14.8190  14.8469
    15.0851  15.1043  15.1642  15.1818  15.4847  15.4968  15.6242  15.6426
    16.1955  16.2038  16.4163  16.4279  17.2539  17.2834

     occupation numbers 
     1.0000   1.0000   1.0000   1.0000   1.0000   1.0000   1.0000   1.0000
     1.0000   1.0000   1.0000   1.0000   1.0000   1.0000   1.0000   1.0000
     1.0000   1.0000   1.0000   1.0000   1.0000   1.0000   1.0000   1.0000
     1.0000   1.0000   1.0000   1.0000   1.0000   1.0000   1.0000   1.0000
     1.0000   1.0000   1.0000   1.0000   1.0000   1.0000   1.0000   1.0000
     1.0000   1.0000   1.0000   1.0000   1.0000   1.0000   1.0000   1.0000
     1.0000   1.0000   1.0000   1.0000   1.0000   1.0000   1.0000   1.0000
     1.0000   1.0000   1.0000   1.0000   1.0000   1.0000   1.0000   1.0000
     1.0000   1.0000   1.0000   1.0000   1.0179   1.0223   0.8690   0.8074
     0.1411   0.1034   0.0179   0.0015  -0.0094  -0.0082  -0.0014  -0.0010
    -0.0000  -0.0000  -0.0000  -0.0000  -0.0000  -0.0000

          k =-0.1250-0.5000 0.2500 ( 13032 PWs)   bands (ev):

   -56.4985 -56.4985 -56.4985 -56.4985 -56.4784 -56.4784 -56.4784 -56.4784
   -28.5821 -28.5821 -28.5770 -28.5770 -28.5307 -28.5307 -28.5272 -28.5272
   -27.6270 -27.6270 -27.5751 -27.5751 -27.5603 -27.5603 -27.5322 -27.5322
   -27.5204 -27.5204 -27.4833 -27.4833 -27.4572 -27.4572 -27.4338 -27.4338
     4.7800   4.7800   4.7808   4.7808   7.4708   7.4708   7.4753   7.4753
     9.7730   9.7730   9.7741   9.7741  11.2719  11.2719  11.2769  11.2769
    11.9369  11.9369  11.9420  11.9420  12.7540  12.7540  12.7641  12.7641
    13.1584  13.1584  13.1671  13.1671  13.5595  13.5595  13.5678  13.5678
    13.9629  13.9629  13.9723  13.9723  14.6789  14.6789  14.7124  14.7124
    15.0791  15.0791  15.1041  15.1041  15.5319  15.5319  15.5537  15.5537
    16.2889  16.2889  16.2994  16.2994  17.4686  17.4812

     occupation numbers 
     1.0000   1.0000   1.0000   1.0000   1.0000   1.0000   1.0000   1.0000
     1.0000   1.0000   1.0000   1.0000   1.0000   1.0000   1.0000   1.0000
     1.0000   1.0000   1.0000   1.0000   1.0000   1.0000   1.0000   1.0000
     1.0000   1.0000   1.0000   1.0000   1.0000   1.0000   1.0000   1.0000
     1.0000   1.0000   1.0000   1.0000   1.0000   1.0000   1.0000   1.0000
     1.0000   1.0000   1.0000   1.0000   1.0000   1.0000   1.0000   1.0000
     1.0000   1.0000   1.0000   1.0000   1.0000   1.0000   1.0000   1.0000
     1.0000   1.0000   1.0000   1.0000   1.0000   1.0000   1.0000   1.0000
     1.0000   1.0000   1.0000   1.0000   1.0264   1.0264   1.0096   1.0096
     0.1541   0.1541   0.1039   0.1039  -0.0053  -0.0053  -0.0039  -0.0039
    -0.0000  -0.0000  -0.0000  -0.0000  -0.0000  -0.0000

          k =-0.1250-0.5000 0.3750 ( 13036 PWs)   bands (ev):

   -56.4971 -56.4971 -56.4971 -56.4971 -56.4799 -56.4799 -56.4799 -56.4799
   -28.5772 -28.5772 -28.5737 -28.5737 -28.5351 -28.5351 -28.5323 -28.5323
   -27.6165 -27.6165 -27.5876 -27.5876 -27.5532 -27.5532 -27.5325 -27.5325
   -27.5215 -27.5215 -27.4961 -27.4961 -27.4472 -27.4472 -27.4340 -27.4340
     5.1725   5.1725   5.1735   5.1735   6.8568   6.8568   6.8596   6.8596
     9.9473   9.9473   9.9499   9.9499  11.1548  11.1548  11.1580  11.1580
    11.9549  11.9549  11.9603  11.9603  12.4571  12.4571  12.4663  12.4663
    13.2324  13.2324  13.2383  13.2383  13.7796  13.7796  13.7927  13.7927
    14.1915  14.1915  14.2000  14.2000  14.6773  14.6773  14.7042  14.7042
    14.8669  14.8669  14.9057  14.9057  15.4176  15.4176  15.4339  15.4339
    16.4126  16.4126  16.4238  16.4238  17.1495  17.1508

     occupation numbers 
     1.0000   1.0000   1.0000   1.0000   1.0000   1.0000   1.0000   1.0000
     1.0000   1.0000   1.0000   1.0000   1.0000   1.0000   1.0000   1.0000
     1.0000   1.0000   1.0000   1.0000   1.0000   1.0000   1.0000   1.0000
     1.0000   1.0000   1.0000   1.0000   1.0000   1.0000   1.0000   1.0000
     1.0000   1.0000   1.0000   1.0000   1.0000   1.0000   1.0000   1.0000
     1.0000   1.0000   1.0000   1.0000   1.0000   1.0000   1.0000   1.0000
     1.0000   1.0000   1.0000   1.0000   1.0000   1.0000   1.0000   1.0000
     1.0000   1.0000   1.0000   1.0000   1.0000   1.0000   1.0000   1.0000
     1.0003   1.0003   1.0003   1.0003   1.0270   1.0270   1.0147   1.0147
     0.7574   0.7574   0.6492   0.6492  -0.0185  -0.0185  -0.0159  -0.0159
    -0.0000  -0.0000  -0.0000  -0.0000  -0.0000  -0.0000

          k =-0.2500-0.5000 0.3750 ( 13046 PWs)   bands (ev):

   -56.4954 -56.4954 -56.4954 -56.4954 -56.4816 -56.4816 -56.4815 -56.4815
   -28.5734 -28.5734 -28.5700 -28.5700 -28.5398 -28.5398 -28.5368 -28.5368
   -27.6115 -27.6115 -27.5844 -27.5844 -27.5640 -27.5640 -27.5403 -27.5403
   -27.5128 -27.5128 -27.4839 -27.4839 -27.4538 -27.4538 -27.4370 -27.4370
     5.4119   5.4119   5.4135   5.4135   6.9224   6.9224   6.9271   6.9271
     9.2751   9.2751   9.2799   9.2799  10.7785  10.7785  10.7812  10.7812
    12.2799  12.2799  12.2882  12.2882  12.7222  12.7222  12.7322  12.7322
    13.1099  13.1099  13.1189  13.1189  13.5277  13.5277  13.5395  13.5395
    14.3813  14.3813  14.3885  14.3885  14.7983  14.7983  14.8166  14.8166
    14.9950  14.9950  15.0266  15.0266  15.3346  15.3346  15.3487  15.3487
    16.3551  16.3551  16.3650  16.3650  17.0029  17.0039

     occupation numbers 
     1.0000   1.0000   1.0000   1.0000   1.0000   1.0000   1.0000   1.0000
     1.0000   1.0000   1.0000   1.0000   1.0000   1.0000   1.0000   1.0000
     1.0000   1.0000   1.0000   1.0000   1.0000   1.0000   1.0000   1.0000
     1.0000   1.0000   1.0000   1.0000   1.0000   1.0000   1.0000   1.0000
     1.0000   1.0000   1.0000   1.0000   1.0000   1.0000   1.0000   1.0000
     1.0000   1.0000   1.0000   1.0000   1.0000   1.0000   1.0000   1.0000
     1.0000   1.0000   1.0000   1.0000   1.0000   1.0000   1.0000   1.0000
     1.0000   1.0000   1.0000   1.0000   1.0000   1.0000   1.0000   1.0000
     1.0056   1.0056   1.0061   1.0061   0.9081   0.9081   0.8738   0.8738
     0.3758   0.3758   0.2845   0.2845  -0.0319  -0.0319  -0.0299  -0.0299
    -0.0000  -0.0000  -0.0000  -0.0000  -0.0000  -0.0000

     the Fermi energy is    14.9545 ev

!    total energy              =   -1180.35165353 Ry

     total all-electron energy =    -10727.812490 Ry
     estimated scf accuracy    <       0.00000025 Ry
     smearing contrib. (-TS)   =      -0.00080968 Ry
     internal energy E=F+TS    =   -1180.35084385 Ry

     The total energy is F=E-TS. E is the sum of the following terms:
     one-electron contribution =    -336.79891852 Ry
     hartree contribution      =     207.04225604 Ry
     xc contribution           =    -114.36155316 Ry
     ewald contribution        =    -496.51183961 Ry
     one-center paw contrib.   =    -439.72078861 Ry
      -> PAW hartree energy AE =     126.73273898 Ry
      -> PAW hartree energy PS =    -125.76536823 Ry
      -> PAW xc energy AE      =     -96.24101531 Ry
      -> PAW xc energy PS      =      20.93365043 Ry
      -> total E_H with PAW    =     208.00962680 Ry
      -> total E_XC with PAW   =    -189.66891803 Ry

     convergence has been achieved in   8 iterations

     Writing output data file /zfs_data/vergnior/martin/Scratch/OAL/CrSi/convergence/cutoff/8x8x8/110/tmp/CrSi.save/
 
     init_run     :      8.09s CPU      8.39s WALL (       1 calls)
     electrons    :    242.50s CPU    248.17s WALL (       1 calls)

     Called by init_run:
     wfcinit      :      6.49s CPU      6.66s WALL (       1 calls)
     wfcinit:atom :      0.08s CPU      0.08s WALL (      45 calls)
     wfcinit:wfcr :      6.09s CPU      6.25s WALL (      45 calls)
     potinit      :      0.19s CPU      0.21s WALL (       1 calls)
     hinit0       :      0.22s CPU      0.23s WALL (       1 calls)

     Called by electrons:
     c_bands      :    197.19s CPU    200.56s WALL (       9 calls)
     sum_band     :     39.03s CPU     40.52s WALL (       9 calls)
     v_of_rho     :      0.26s CPU      0.27s WALL (       9 calls)
     v_h          :      0.02s CPU      0.02s WALL (       9 calls)
     v_xc         :      0.24s CPU      0.25s WALL (       9 calls)
     newd         :      5.36s CPU      6.19s WALL (       9 calls)
     PAW_pot      :      1.12s CPU      1.14s WALL (       9 calls)
     mix_rho      :      0.16s CPU      0.16s WALL (       9 calls)

     Called by c_bands:
     init_us_2    :      1.14s CPU      1.15s WALL (     855 calls)
     cegterg      :    176.28s CPU    179.49s WALL (     405 calls)

     Called by sum_band:
     sum_band:wei :      0.06s CPU      0.06s WALL (       9 calls)
     sum_band:loo :     34.40s CPU     34.90s WALL (       9 calls)
     sum_band:buf :      0.39s CPU      0.42s WALL (     405 calls)
     sum_band:ini :      0.54s CPU      0.54s WALL (     405 calls)
     sum_band:cal :      2.93s CPU      2.95s WALL (     405 calls)
     sum_band:bec :      5.17s CPU      5.19s WALL (     405 calls)
     addusdens    :      4.16s CPU      5.15s WALL (       9 calls)
     addusd:skk   :      0.01s CPU      0.01s WALL (      18 calls)
     addusd:dgemm :      1.49s CPU      2.46s WALL (      18 calls)
     addusd:qvan2 :      2.60s CPU      2.61s WALL (      18 calls)

     Called by *egterg:
     cdiaghg      :     15.91s CPU     16.02s WALL (    2261 calls)
     cegterg:over :     11.53s CPU     11.59s WALL (    1901 calls)
     cegterg:upda :      6.37s CPU      6.41s WALL (    1901 calls)
     cegterg:last :     11.68s CPU     11.72s WALL (    1221 calls)
     h_psi        :    112.00s CPU    114.78s WALL (    2351 calls)
     s_psi        :     19.00s CPU     19.07s WALL (    2351 calls)
     g_psi        :      0.42s CPU      0.43s WALL (    1901 calls)

     Called by h_psi:
     h_psi:calbec :     10.78s CPU     10.85s WALL (    2351 calls)
     vloc_psi     :     82.61s CPU     85.12s WALL (    2351 calls)
     add_vuspsi   :     17.78s CPU     17.91s WALL (    2351 calls)

     General routines
     calbec       :     13.69s CPU     13.78s WALL (    2756 calls)
     fft          :      0.24s CPU      0.24s WALL (     188 calls)
     ffts         :      0.02s CPU      0.02s WALL (      72 calls)
     fftw         :     67.31s CPU     69.19s WALL (  569748 calls)
     interpolate  :      0.06s CPU      0.06s WALL (      36 calls)
 
     Parallel routines
     fft_scatt_xy :      8.91s CPU      9.18s WALL (  570008 calls)
     fft_scatt_yz :     34.20s CPU     35.17s WALL (  570008 calls)

     PAW routines
     PAW_pot      :      1.12s CPU      1.14s WALL (       9 calls)
     PAW_symme    :      0.02s CPU      0.02s WALL (      18 calls)
 
     PWSCF        :   4m14.21s CPU   4m22.39s WALL

 
   This run was terminated on:  18:50: 7  30Jul2021            

=------------------------------------------------------------------------------=
   JOB DONE.
=------------------------------------------------------------------------------=
