MPI startup(): Warning: I_MPI_PMI_LIBRARY will be ignored since the hydra process manager was found
MPI startup(): Warning: I_MPI_PMI_LIBRARY will be ignored since the hydra process manager was found
MPI startup(): Warning: I_MPI_PMI_LIBRARY will be ignored since the hydra process manager was found
MPI startup(): Warning: I_MPI_PMI_LIBRARY will be ignored since the hydra process manager was found
MPI startup(): Warning: I_MPI_PMI_LIBRARY will be ignored since the hydra process manager was found
MPI startup(): Warning: I_MPI_PMI_LIBRARY will be ignored since the hydra process manager was found
MPI startup(): Warning: I_MPI_PMI_LIBRARY will be ignored since the hydra process manager was found
MPI startup(): Warning: I_MPI_PMI_LIBRARY will be ignored since the hydra process manager was found
MPI startup(): Warning: I_MPI_PMI_LIBRARY will be ignored since the hydra process manager was found
MPI startup(): Warning: I_MPI_PMI_LIBRARY will be ignored since the hydra process manager was found
MPI startup(): Warning: I_MPI_PMI_LIBRARY will be ignored since the hydra process manager was found
MPI startup(): Warning: I_MPI_PMI_LIBRARY will be ignored since the hydra process manager was found
MPI startup(): Warning: I_MPI_PMI_LIBRARY will be ignored since the hydra process manager was found
MPI startup(): Warning: I_MPI_PMI_LIBRARY will be ignored since the hydra process manager was found
MPI startup(): Warning: I_MPI_PMI_LIBRARY will be ignored since the hydra process manager was found
MPI startup(): Warning: I_MPI_PMI_LIBRARY will be ignored since the hydra process manager was found
MPI startup(): Warning: I_MPI_PMI_LIBRARY will be ignored since the hydra process manager was found
MPI startup(): Warning: I_MPI_PMI_LIBRARY will be ignored since the hydra process manager was found
MPI startup(): Warning: I_MPI_PMI_LIBRARY will be ignored since the hydra process manager was found
MPI startup(): Warning: I_MPI_PMI_LIBRARY will be ignored since the hydra process manager was found
MPI startup(): Warning: I_MPI_PMI_LIBRARY will be ignored since the hydra process manager was found
MPI startup(): Warning: I_MPI_PMI_LIBRARY will be ignored since the hydra process manager was found
MPI startup(): Warning: I_MPI_PMI_LIBRARY will be ignored since the hydra process manager was found
MPI startup(): Warning: I_MPI_PMI_LIBRARY will be ignored since the hydra process manager was found

     Program PWSCF v.6.7MaX starts on 30Jul2021 at 18:25:32 

     This program is part of the open-source Quantum ESPRESSO suite
     for quantum simulation of materials; please cite
         "P. Giannozzi et al., J. Phys.:Condens. Matter 21 395502 (2009);
         "P. Giannozzi et al., J. Phys.:Condens. Matter 29 465901 (2017);
          URL http://www.quantum-espresso.org", 
     in publications or presentations arising from this work. More details at
     http://www.quantum-espresso.org/quote

     Parallel version (MPI), running on    24 processors

     MPI processes distributed on     1 nodes
     R & G space division:  proc/nbgrp/npool/nimage =      24
     Waiting for input...
     Reading input from standard input

     Current dimensions of program PWSCF are:
     Max number of different atomic species (ntypx) = 10
     Max number of k-points (npk) =  40000
     Max angular momentum in pseudopotentials (lmaxx) =  3
     file Cr.rel-pbe-spn-kjpaw_psl.1.0.0.UPF: wavefunction(s)  3S 3P 3P 3D 3D renormalized
     file Si.rel-pbe-n-kjpaw_psl.1.0.0.UPF: wavefunction(s)  3S 3P 3P renormalized

     Subspace diagonalization in iterative solution of the eigenvalue problem:
     a serial algorithm will be used

     Message from routine setup:
     using ibrav=0 with symmetry is DISCOURAGED, use correct ibrav instead
 
     Parallelization info
     --------------------
     sticks:   dense  smooth     PW     G-vecs:    dense   smooth      PW
     Min         253     101     28                14897     3767     562
     Max         254     102     29                14902     3770     567
     Sum        6093    2433    681               357597    90447   13517
 


     bravais-lattice index     =            0
     lattice parameter (alat)  =       8.7475  a.u.
     unit-cell volume          =     669.3575 (a.u.)^3
     number of atoms/cell      =            8
     number of atomic types    =            2
     number of electrons       =        72.00
     number of Kohn-Sham states=           86
     kinetic-energy cutoff     =     100.0000  Ry
     charge density cutoff     =    1000.0000  Ry
     scf convergence threshold =      1.0E-06
     mixing beta               =       0.7000
     number of iterations used =            8  plain     mixing
     Exchange-correlation= SLA  PW   PBX  PBC
                           (   1   4   3   4   0   0   0)
     Non magnetic calculation with spin-orbit


     celldm(1)=   8.747542  celldm(2)=   0.000000  celldm(3)=   0.000000
     celldm(4)=   0.000000  celldm(5)=   0.000000  celldm(6)=   0.000000

     crystal axes: (cart. coord. in units of alat)
               a(1) = (   1.000000   0.000000   0.000000 )  
               a(2) = (   0.000000   1.000000   0.000000 )  
               a(3) = (   0.000000   0.000000   1.000000 )  

     reciprocal axes: (cart. coord. in units 2 pi/alat)
               b(1) = (  1.000000  0.000000  0.000000 )  
               b(2) = (  0.000000  1.000000  0.000000 )  
               b(3) = (  0.000000  0.000000  1.000000 )  


     PseudoPot. # 1 for Cr read from file:
     ../../../../pseudo/Cr.rel-pbe-spn-kjpaw_psl.1.0.0.UPF
     MD5 check sum: 1e24e2b5251376a8b945118fca0c7981
     Pseudo is Projector augmented-wave + core cor, Zval = 14.0
     Generated using &quot;atomic&quot; code by A. Dal Corso  v.6.3
     Shape of augmentation charge: PSQ
     Using radial grid of 1183 points, 10 beta functions with: 
                l(1) =   0
                l(2) =   0
                l(3) =   1
                l(4) =   1
                l(5) =   1
                l(6) =   1
                l(7) =   2
                l(8) =   2
                l(9) =   2
               l(10) =   2
     Q(r) pseudized with 0 coefficients 


     PseudoPot. # 2 for Si read from file:
     ../../../../pseudo/Si.rel-pbe-n-kjpaw_psl.1.0.0.UPF
     MD5 check sum: d74f6caf6830ea4c2076867160cab1b0
     Pseudo is Projector augmented-wave + core cor, Zval =  4.0
     Generated using &quot;atomic&quot; code by A. Dal Corso  v.6.3
     Shape of augmentation charge: PSQ
     Using radial grid of 1141 points, 10 beta functions with: 
                l(1) =   0
                l(2) =   0
                l(3) =   1
                l(4) =   1
                l(5) =   1
                l(6) =   1
                l(7) =   2
                l(8) =   2
                l(9) =   2
               l(10) =   2
     Q(r) pseudized with 0 coefficients 


     atomic species   valence    mass     pseudopotential
        Cr            14.00    51.99600     Cr( 1.00)
        Si             4.00    28.08500     Si( 1.00)

     12 Sym. Ops. (no inversion) found ( 9 have fractional translation)


                                    s                        frac. trans.

      isym =  1     identity                                     

 cryst.   s( 1) = (     1          0          0      )
                  (     0          1          0      )
                  (     0          0          1      )

 cart.    s( 1) = (  1.0000000  0.0000000  0.0000000 )
                  (  0.0000000  1.0000000  0.0000000 )
                  (  0.0000000  0.0000000  1.0000000 )


      isym =  2     180 deg rotation - cart. axis [0,0,1]        

 cryst.   s( 2) = (    -1          0          0      )    f =(  0.5000000 )
                  (     0         -1          0      )       (  0.0000000 )
                  (     0          0          1      )       ( -0.5000000 )

 cart.    s( 2) = ( -1.0000000  0.0000000  0.0000000 )    f =(  0.5000000 )
                  (  0.0000000 -1.0000000  0.0000000 )       (  0.0000000 )
                  (  0.0000000  0.0000000  1.0000000 )       ( -0.5000000 )


      isym =  3     180 deg rotation - cart. axis [0,1,0]        

 cryst.   s( 3) = (    -1          0          0      )    f =(  0.0000000 )
                  (     0          1          0      )       ( -0.5000000 )
                  (     0          0         -1      )       (  0.5000000 )

 cart.    s( 3) = ( -1.0000000  0.0000000  0.0000000 )    f =(  0.0000000 )
                  (  0.0000000  1.0000000  0.0000000 )       ( -0.5000000 )
                  (  0.0000000  0.0000000 -1.0000000 )       (  0.5000000 )


      isym =  4     180 deg rotation - cart. axis [1,0,0]        

 cryst.   s( 4) = (     1          0          0      )    f =(  0.5000000 )
                  (     0         -1          0      )       (  0.5000000 )
                  (     0          0         -1      )       (  0.0000000 )

 cart.    s( 4) = (  1.0000000  0.0000000  0.0000000 )    f =(  0.5000000 )
                  (  0.0000000 -1.0000000  0.0000000 )       (  0.5000000 )
                  (  0.0000000  0.0000000 -1.0000000 )       (  0.0000000 )


      isym =  5     120 deg rotation - cart. axis [-1,-1,-1]     

 cryst.   s( 5) = (     0          0          1      )
                  (     1          0          0      )
                  (     0          1          0      )

 cart.    s( 5) = (  0.0000000  1.0000000  0.0000000 )
                  (  0.0000000  0.0000000  1.0000000 )
                  (  1.0000000  0.0000000  0.0000000 )


      isym =  6     120 deg rotation - cart. axis [-1,1,1]       

 cryst.   s( 6) = (     0          0         -1      )    f =(  0.0000000 )
                  (    -1          0          0      )       ( -0.5000000 )
                  (     0          1          0      )       (  0.5000000 )

 cart.    s( 6) = (  0.0000000 -1.0000000  0.0000000 )    f =(  0.0000000 )
                  (  0.0000000  0.0000000  1.0000000 )       ( -0.5000000 )
                  ( -1.0000000  0.0000000  0.0000000 )       (  0.5000000 )


      isym =  7     120 deg rotation - cart. axis [1,1,-1]       

 cryst.   s( 7) = (     0          0         -1      )    f =(  0.5000000 )
                  (     1          0          0      )       (  0.5000000 )
                  (     0         -1          0      )       (  0.0000000 )

 cart.    s( 7) = (  0.0000000  1.0000000  0.0000000 )    f =(  0.5000000 )
                  (  0.0000000  0.0000000 -1.0000000 )       (  0.5000000 )
                  ( -1.0000000  0.0000000  0.0000000 )       (  0.0000000 )


      isym =  8     120 deg rotation - cart. axis [1,-1,1]       

 cryst.   s( 8) = (     0          0          1      )    f =(  0.5000000 )
                  (    -1          0          0      )       (  0.0000000 )
                  (     0         -1          0      )       ( -0.5000000 )

 cart.    s( 8) = (  0.0000000 -1.0000000  0.0000000 )    f =(  0.5000000 )
                  (  0.0000000  0.0000000 -1.0000000 )       (  0.0000000 )
                  (  1.0000000  0.0000000  0.0000000 )       ( -0.5000000 )


      isym =  9     120 deg rotation - cart. axis [1,1,1]        

 cryst.   s( 9) = (     0          1          0      )
                  (     0          0          1      )
                  (     1          0          0      )

 cart.    s( 9) = (  0.0000000  0.0000000  1.0000000 )
                  (  1.0000000  0.0000000  0.0000000 )
                  (  0.0000000  1.0000000  0.0000000 )


      isym = 10     120 deg rotation - cart. axis [-1,1,-1]      

 cryst.   s(10) = (     0         -1          0      )    f =(  0.5000000 )
                  (     0          0         -1      )       (  0.5000000 )
                  (     1          0          0      )       (  0.0000000 )

 cart.    s(10) = (  0.0000000  0.0000000  1.0000000 )    f =(  0.5000000 )
                  ( -1.0000000  0.0000000  0.0000000 )       (  0.5000000 )
                  (  0.0000000 -1.0000000  0.0000000 )       (  0.0000000 )


      isym = 11     120 deg rotation - cart. axis [1,-1,-1]      

 cryst.   s(11) = (     0         -1          0      )    f =(  0.5000000 )
                  (     0          0          1      )       (  0.0000000 )
                  (    -1          0          0      )       ( -0.5000000 )

 cart.    s(11) = (  0.0000000  0.0000000 -1.0000000 )    f =(  0.5000000 )
                  ( -1.0000000  0.0000000  0.0000000 )       (  0.0000000 )
                  (  0.0000000  1.0000000  0.0000000 )       ( -0.5000000 )


      isym = 12     120 deg rotation - cart. axis [-1,-1,1]      

 cryst.   s(12) = (     0          1          0      )    f =(  0.0000000 )
                  (     0          0         -1      )       ( -0.5000000 )
                  (    -1          0          0      )       (  0.5000000 )

 cart.    s(12) = (  0.0000000  0.0000000 -1.0000000 )    f =(  0.0000000 )
                  (  1.0000000  0.0000000  0.0000000 )       ( -0.5000000 )
                  (  0.0000000 -1.0000000  0.0000000 )       (  0.5000000 )


   Cartesian axes

     site n.     atom                  positions (alat units)
         1           Cr  tau(   1) = (   0.8640000   0.3640000   0.1360000  )
         2           Cr  tau(   2) = (   0.3640000   0.1360000   0.8640000  )
         3           Cr  tau(   3) = (   0.1360000   0.8640000   0.3640000  )
         4           Cr  tau(   4) = (   0.6360000   0.6360000   0.6360000  )
         5           Si  tau(   5) = (   0.1540000   0.6540000   0.8460000  )
         6           Si  tau(   6) = (   0.6540000   0.8460000   0.1540000  )
         7           Si  tau(   7) = (   0.8460000   0.1540000   0.6540000  )
         8           Si  tau(   8) = (   0.3460000   0.3460000   0.3460000  )

   Crystallographic axes

     site n.     atom                  positions (cryst. coord.)
         1           Cr  tau(   1) = (  0.8640000  0.3640000  0.1360000  )
         2           Cr  tau(   2) = (  0.3640000  0.1360000  0.8640000  )
         3           Cr  tau(   3) = (  0.1360000  0.8640000  0.3640000  )
         4           Cr  tau(   4) = (  0.6360000  0.6360000  0.6360000  )
         5           Si  tau(   5) = (  0.1540000  0.6540000  0.8460000  )
         6           Si  tau(   6) = (  0.6540000  0.8460000  0.1540000  )
         7           Si  tau(   7) = (  0.8460000  0.1540000  0.6540000  )
         8           Si  tau(   8) = (  0.3460000  0.3460000  0.3460000  )

     number of k points=    24  Methfessel-Paxton smearing, width (Ry)=  0.0200
                       cart. coord. in units 2pi/alat
        k(    1) = (   0.0000000   0.0000000   0.0000000), wk =   0.0046296
        k(    2) = (   0.0000000   0.0000000   0.1666667), wk =   0.0277778
        k(    3) = (   0.0000000   0.0000000   0.3333333), wk =   0.0277778
        k(    4) = (   0.0000000   0.0000000  -0.5000000), wk =   0.0138889
        k(    5) = (   0.0000000   0.1666667   0.1666667), wk =   0.0555556
        k(    6) = (   0.0000000   0.1666667   0.3333333), wk =   0.0555556
        k(    7) = (   0.0000000   0.1666667  -0.5000000), wk =   0.0277778
        k(    8) = (   0.0000000   0.3333333   0.3333333), wk =   0.0555556
        k(    9) = (   0.0000000   0.3333333  -0.5000000), wk =   0.0277778
        k(   10) = (   0.0000000  -0.5000000  -0.5000000), wk =   0.0138889
        k(   11) = (   0.1666667   0.1666667   0.1666667), wk =   0.0370370
        k(   12) = (   0.1666667   0.1666667   0.3333333), wk =   0.1111111
        k(   13) = (   0.1666667   0.1666667  -0.5000000), wk =   0.0555556
        k(   14) = (   0.1666667   0.3333333   0.3333333), wk =   0.1111111
        k(   15) = (   0.1666667   0.3333333  -0.5000000), wk =   0.0555556
        k(   16) = (   0.1666667  -0.5000000  -0.5000000), wk =   0.0277778
        k(   17) = (   0.3333333   0.3333333   0.3333333), wk =   0.0370370
        k(   18) = (   0.3333333   0.3333333  -0.5000000), wk =   0.0555556
        k(   19) = (   0.3333333  -0.5000000  -0.5000000), wk =   0.0277778
        k(   20) = (  -0.5000000  -0.5000000  -0.5000000), wk =   0.0046296
        k(   21) = (   0.0000000   0.3333333   0.1666667), wk =   0.0555556
        k(   22) = (   0.0000000  -0.5000000   0.1666667), wk =   0.0277778
        k(   23) = (   0.0000000  -0.5000000   0.3333333), wk =   0.0277778
        k(   24) = (  -0.1666667  -0.5000000   0.3333333), wk =   0.0555556

                       cryst. coord.
        k(    1) = (   0.0000000   0.0000000   0.0000000), wk =   0.0046296
        k(    2) = (   0.0000000   0.0000000   0.1666667), wk =   0.0277778
        k(    3) = (   0.0000000   0.0000000   0.3333333), wk =   0.0277778
        k(    4) = (   0.0000000   0.0000000  -0.5000000), wk =   0.0138889
        k(    5) = (   0.0000000   0.1666667   0.1666667), wk =   0.0555556
        k(    6) = (   0.0000000   0.1666667   0.3333333), wk =   0.0555556
        k(    7) = (   0.0000000   0.1666667  -0.5000000), wk =   0.0277778
        k(    8) = (   0.0000000   0.3333333   0.3333333), wk =   0.0555556
        k(    9) = (   0.0000000   0.3333333  -0.5000000), wk =   0.0277778
        k(   10) = (   0.0000000  -0.5000000  -0.5000000), wk =   0.0138889
        k(   11) = (   0.1666667   0.1666667   0.1666667), wk =   0.0370370
        k(   12) = (   0.1666667   0.1666667   0.3333333), wk =   0.1111111
        k(   13) = (   0.1666667   0.1666667  -0.5000000), wk =   0.0555556
        k(   14) = (   0.1666667   0.3333333   0.3333333), wk =   0.1111111
        k(   15) = (   0.1666667   0.3333333  -0.5000000), wk =   0.0555556
        k(   16) = (   0.1666667  -0.5000000  -0.5000000), wk =   0.0277778
        k(   17) = (   0.3333333   0.3333333   0.3333333), wk =   0.0370370
        k(   18) = (   0.3333333   0.3333333  -0.5000000), wk =   0.0555556
        k(   19) = (   0.3333333  -0.5000000  -0.5000000), wk =   0.0277778
        k(   20) = (  -0.5000000  -0.5000000  -0.5000000), wk =   0.0046296
        k(   21) = (   0.0000000   0.3333333   0.1666667), wk =   0.0555556
        k(   22) = (   0.0000000  -0.5000000   0.1666667), wk =   0.0277778
        k(   23) = (   0.0000000  -0.5000000   0.3333333), wk =   0.0277778
        k(   24) = (  -0.1666667  -0.5000000   0.3333333), wk =   0.0555556

     Dense  grid:   357597 G-vectors     FFT dimensions: (  90,  90,  90)

     Smooth grid:    90447 G-vectors     FFT dimensions: (  60,  60,  60)

     Dynamical RAM for                 wfc:       1.23 MB

     Dynamical RAM for     wfc (w. buffer):      30.84 MB

     Dynamical RAM for           str. fact:       0.45 MB

     Dynamical RAM for           local pot:       0.00 MB

     Dynamical RAM for          nlocal pot:       1.95 MB

     Dynamical RAM for                qrad:      13.29 MB

     Dynamical RAM for          rho,v,vnew:       5.69 MB

     Dynamical RAM for               rhoin:       1.90 MB

     Dynamical RAM for            rho*nmix:      14.55 MB

     Dynamical RAM for           G-vectors:       0.88 MB

     Dynamical RAM for          h,s,v(r/c):       1.35 MB

     Dynamical RAM for          <psi|beta>:       0.71 MB

     Dynamical RAM for                 psi:       2.47 MB

     Dynamical RAM for                hpsi:       2.47 MB

     Dynamical RAM for                spsi:       2.47 MB

     Dynamical RAM for      wfcinit/wfcrot:       2.70 MB

     Dynamical RAM for           addusdens:     139.59 MB

     Estimated static dynamical RAM per process >      72.21 MB

     Estimated max dynamical RAM per process >     211.80 MB

     Estimated total dynamical RAM >       4.96 GB

     Initial potential from superposition of free atoms

     starting charge   71.99469, renormalised to   72.00000
     Starting wfcs are  112 randomized atomic wfcs
     Checking if some PAW data can be deallocated... 
       PAW data deallocated on   12 nodes for type:  1
       PAW data deallocated on   12 nodes for type:  2

     total cpu time spent up to now is        7.5 secs

     Self-consistent Calculation

     iteration #  1     ecut=   100.00 Ry     beta= 0.70
     Davidson diagonalization with overlap
     ethr =  1.00E-02,  avg # of iterations =  2.0

     Threshold (ethr) on eigenvalues was too large:
     Diagonalizing with lowered threshold

     Davidson diagonalization with overlap
     ethr =  2.09E-04,  avg # of iterations =  4.4

     total cpu time spent up to now is       30.9 secs

     total energy              =   -1180.31037351 Ry
     estimated scf accuracy    <       0.18865128 Ry

     iteration #  2     ecut=   100.00 Ry     beta= 0.70
     Davidson diagonalization with overlap
     ethr =  2.62E-04,  avg # of iterations =  3.2

     total cpu time spent up to now is       43.1 secs

     total energy              =   -1180.31615615 Ry
     estimated scf accuracy    <       0.07873318 Ry

     iteration #  3     ecut=   100.00 Ry     beta= 0.70
     Davidson diagonalization with overlap
     ethr =  1.09E-04,  avg # of iterations =  5.0

     total cpu time spent up to now is       57.7 secs

     total energy              =   -1180.32659399 Ry
     estimated scf accuracy    <       0.16007752 Ry

     iteration #  4     ecut=   100.00 Ry     beta= 0.70
     Davidson diagonalization with overlap
     ethr =  1.09E-04,  avg # of iterations =  4.1

     total cpu time spent up to now is       69.7 secs

     total energy              =   -1180.35033144 Ry
     estimated scf accuracy    <       0.00042423 Ry

     iteration #  5     ecut=   100.00 Ry     beta= 0.70
     Davidson diagonalization with overlap
     ethr =  5.89E-07,  avg # of iterations =  8.2

     total cpu time spent up to now is       87.1 secs

     total energy              =   -1180.35092078 Ry
     estimated scf accuracy    <       0.00023770 Ry

     iteration #  6     ecut=   100.00 Ry     beta= 0.70
     Davidson diagonalization with overlap
     ethr =  3.30E-07,  avg # of iterations =  2.9

     total cpu time spent up to now is       97.8 secs

     End of self-consistent calculation

          k = 0.0000 0.0000 0.0000 ( 11123 PWs)   bands (ev):

   -56.5085 -56.5085 -56.4738 -56.4738 -56.4738 -56.4738 -56.4738 -56.4738
   -28.5740 -28.5740 -28.5667 -28.5667 -28.5667 -28.5667 -28.4773 -28.4773
   -27.6081 -27.6081 -27.6081 -27.6081 -27.5316 -27.5316 -27.5316 -27.5316
   -27.5279 -27.5279 -27.4456 -27.4456 -27.4448 -27.4448 -27.4448 -27.4448
     2.6977   2.6977   7.4561   7.4561   7.4561   7.4561   7.4653   7.4653
    10.5374  10.5374  10.5453  10.5453  10.5453  10.5453  11.9119  11.9119
    11.9119  11.9119  11.9229  11.9230  12.6045  12.6045  12.7737  12.7737
    12.7737  12.7737  13.1476  13.1476  13.1476  13.1476  13.1486  13.1486
    13.6747  13.6747  13.6747  13.6747  13.6785  13.6785  15.5560  15.5560
    15.5873  15.5873  15.5873  15.5873  15.7721  15.7721  15.7721  15.7721
    16.6694  16.6694  16.6997  16.6997  16.6997  16.6997

     occupation numbers 
     1.0000   1.0000   1.0000   1.0000   1.0000   1.0000   1.0000   1.0000
     1.0000   1.0000   1.0000   1.0000   1.0000   1.0000   1.0000   1.0000
     1.0000   1.0000   1.0000   1.0000   1.0000   1.0000   1.0000   1.0000
     1.0000   1.0000   1.0000   1.0000   1.0000   1.0000   1.0000   1.0000
     1.0000   1.0000   1.0000   1.0000   1.0000   1.0000   1.0000   1.0000
     1.0000   1.0000   1.0000   1.0000   1.0000   1.0000   1.0000   1.0000
     1.0000   1.0000   1.0000   1.0000   1.0000   1.0000   1.0000   1.0000
     1.0000   1.0000   1.0000   1.0000   1.0000   1.0000   1.0000   1.0000
     1.0000   1.0000   1.0000   1.0000   1.0000   1.0000  -0.0038  -0.0038
    -0.0024  -0.0024  -0.0024  -0.0024  -0.0001  -0.0001  -0.0001  -0.0001
    -0.0000  -0.0000  -0.0000  -0.0000  -0.0000  -0.0000

          k = 0.0000 0.0000 0.1667 ( 11296 PWs)   bands (ev):

   -56.5067 -56.5067 -56.4794 -56.4794 -56.4732 -56.4732 -56.4705 -56.4705
   -28.5817 -28.5749 -28.5709 -28.5702 -28.5561 -28.5529 -28.4824 -28.4823
   -27.6248 -27.6167 -27.5951 -27.5874 -27.5445 -27.5385 -27.5352 -27.5253
   -27.5226 -27.5109 -27.4557 -27.4535 -27.4506 -27.4436 -27.4426 -27.4375
     2.8898   2.8898   6.5391   6.5416   7.5623   7.5643   8.1191   8.1285
     9.9484   9.9526  10.6630  10.6655  11.0719  11.0748  11.2878  11.2885
    11.5006  11.5054  12.4508  12.4612  12.7405  12.7628  12.8043  12.8109
    13.0133  13.0166  13.1117  13.1141  13.2010  13.2030  13.2318  13.2321
    13.5345  13.5445  13.6348  13.6373  13.9663  13.9668  15.2978  15.3187
    15.4218  15.4293  15.6988  15.7083  15.7540  15.7724  15.7962  15.8218
    16.4112  16.4267  16.5993  16.6068  16.9939  17.0145

     occupation numbers 
     1.0000   1.0000   1.0000   1.0000   1.0000   1.0000   1.0000   1.0000
     1.0000   1.0000   1.0000   1.0000   1.0000   1.0000   1.0000   1.0000
     1.0000   1.0000   1.0000   1.0000   1.0000   1.0000   1.0000   1.0000
     1.0000   1.0000   1.0000   1.0000   1.0000   1.0000   1.0000   1.0000
     1.0000   1.0000   1.0000   1.0000   1.0000   1.0000   1.0000   1.0000
     1.0000   1.0000   1.0000   1.0000   1.0000   1.0000   1.0000   1.0000
     1.0000   1.0000   1.0000   1.0000   1.0000   1.0000   1.0000   1.0000
     1.0000   1.0000   1.0000   1.0000   1.0000   1.0000   1.0000   1.0000
     1.0000   1.0000   1.0000   1.0000   1.0000   1.0000  -0.0353  -0.0338
    -0.0178  -0.0166  -0.0004  -0.0003  -0.0001  -0.0001  -0.0001  -0.0000
    -0.0000  -0.0000  -0.0000  -0.0000  -0.0000  -0.0000

          k = 0.0000 0.0000 0.3333 ( 11308 PWs)   bands (ev):

   -56.5018 -56.5018 -56.4867 -56.4867 -56.4718 -56.4718 -56.4695 -56.4695
   -28.5843 -28.5778 -28.5765 -28.5728 -28.5372 -28.5348 -28.4963 -28.4958
   -27.6326 -27.6247 -27.5769 -27.5724 -27.5570 -27.5370 -27.5318 -27.5233
   -27.5211 -27.4916 -27.4729 -27.4602 -27.4572 -27.4462 -27.4418 -27.4357
     3.4502   3.4502   5.4191   5.4199   7.8596   7.8636   8.5096   8.5193
     9.6515   9.6530  10.6591  10.6615  10.7711  10.7835  11.0446  11.0475
    11.8641  11.8661  12.1357  12.1515  12.8399  12.8560  12.9348  12.9443
    13.1180  13.1240  13.1738  13.1789  13.2616  13.2644  13.3965  13.3990
    13.4545  13.4564  13.9189  13.9228  14.1203  14.1270  14.8932  14.9273
    15.3630  15.3715  15.5415  15.5599  15.7497  15.7780  15.8587  15.8828
    16.1990  16.2149  16.3747  16.3883  17.3089  17.3249

     occupation numbers 
     1.0000   1.0000   1.0000   1.0000   1.0000   1.0000   1.0000   1.0000
     1.0000   1.0000   1.0000   1.0000   1.0000   1.0000   1.0000   1.0000
     1.0000   1.0000   1.0000   1.0000   1.0000   1.0000   1.0000   1.0000
     1.0000   1.0000   1.0000   1.0000   1.0000   1.0000   1.0000   1.0000
     1.0000   1.0000   1.0000   1.0000   1.0000   1.0000   1.0000   1.0000
     1.0000   1.0000   1.0000   1.0000   1.0000   1.0000   1.0000   1.0000
     1.0000   1.0000   1.0000   1.0000   1.0000   1.0000   1.0000   1.0000
     1.0000   1.0000   1.0000   1.0000   1.0000   1.0000   1.0000   1.0000
     1.0000   1.0000   1.0000   1.0000   1.0001   1.0001   0.6855   0.5841
    -0.0276  -0.0262  -0.0047  -0.0036  -0.0001  -0.0001  -0.0000  -0.0000
    -0.0000  -0.0000  -0.0000  -0.0000  -0.0000  -0.0000

          k = 0.0000 0.0000-0.5000 ( 11316 PWs)   bands (ev):

   -56.4946 -56.4946 -56.4946 -56.4946 -56.4702 -56.4702 -56.4702 -56.4702
   -28.5819 -28.5819 -28.5763 -28.5763 -28.5160 -28.5160 -28.5146 -28.5146
   -27.6314 -27.6314 -27.5668 -27.5668 -27.5515 -27.5515 -27.5283 -27.5283
   -27.4980 -27.4980 -27.4740 -27.4740 -27.4520 -27.4520 -27.4386 -27.4386
     4.3276   4.3276   4.3278   4.3278   8.2823   8.2823   8.2888   8.2888
    10.0167  10.0167  10.0207  10.0207  10.8979  10.8979  10.9091  10.9091
    12.2489  12.2489  12.2554  12.2554  12.6869  12.6869  12.6994  12.6994
    13.1450  13.1450  13.1454  13.1454  13.2409  13.2409  13.2446  13.2446
    13.7854  13.7854  13.7885  13.7885  14.5686  14.5686  14.5972  14.5972
    15.4068  15.4068  15.4247  15.4247  15.8110  15.8110  15.8407  15.8407
    16.1702  16.1703  16.1839  16.1840  17.5467  17.5473

     occupation numbers 
     1.0000   1.0000   1.0000   1.0000   1.0000   1.0000   1.0000   1.0000
     1.0000   1.0000   1.0000   1.0000   1.0000   1.0000   1.0000   1.0000
     1.0000   1.0000   1.0000   1.0000   1.0000   1.0000   1.0000   1.0000
     1.0000   1.0000   1.0000   1.0000   1.0000   1.0000   1.0000   1.0000
     1.0000   1.0000   1.0000   1.0000   1.0000   1.0000   1.0000   1.0000
     1.0000   1.0000   1.0000   1.0000   1.0000   1.0000   1.0000   1.0000
     1.0000   1.0000   1.0000   1.0000   1.0000   1.0000   1.0000   1.0000
     1.0000   1.0000   1.0000   1.0000   1.0000   1.0000   1.0000   1.0000
     1.0000   1.0000   1.0000   1.0000   1.0311   1.0311   1.0344   1.0344
    -0.0202  -0.0202  -0.0174  -0.0174  -0.0000  -0.0000  -0.0000  -0.0000
    -0.0000  -0.0000  -0.0000  -0.0000  -0.0000  -0.0000

          k = 0.0000 0.1667 0.1667 ( 11300 PWs)   bands (ev):

   -56.5050 -56.5050 -56.4812 -56.4812 -56.4738 -56.4738 -56.4696 -56.4696
   -28.5835 -28.5778 -28.5686 -28.5685 -28.5523 -28.5486 -28.4871 -28.4870
   -27.6256 -27.6215 -27.5859 -27.5819 -27.5456 -27.5423 -27.5385 -27.5308
   -27.5144 -27.5017 -27.4645 -27.4608 -27.4535 -27.4446 -27.4380 -27.4338
     3.0794   3.0794   6.3963   6.4007   7.2070   7.2113   8.4065   8.4119
     9.8327   9.8361  10.5098  10.5122  10.7876  10.7888  11.3579  11.3609
    11.7804  11.7808  12.4132  12.4189  12.5892  12.5970  12.9966  12.9978
    13.0931  13.1013  13.1755  13.1763  13.2470  13.2536  13.3393  13.3442
    13.4697  13.4775  13.7352  13.7494  14.0778  14.0852  15.2559  15.2776
    15.3055  15.3248  15.5407  15.5528  15.7011  15.7221  15.8185  15.8429
    16.2815  16.2984  16.6109  16.6206  17.0362  17.0707

     occupation numbers 
     1.0000   1.0000   1.0000   1.0000   1.0000   1.0000   1.0000   1.0000
     1.0000   1.0000   1.0000   1.0000   1.0000   1.0000   1.0000   1.0000
     1.0000   1.0000   1.0000   1.0000   1.0000   1.0000   1.0000   1.0000
     1.0000   1.0000   1.0000   1.0000   1.0000   1.0000   1.0000   1.0000
     1.0000   1.0000   1.0000   1.0000   1.0000   1.0000   1.0000   1.0000
     1.0000   1.0000   1.0000   1.0000   1.0000   1.0000   1.0000   1.0000
     1.0000   1.0000   1.0000   1.0000   1.0000   1.0000   1.0000   1.0000
     1.0000   1.0000   1.0000   1.0000   1.0000   1.0000   1.0000   1.0000
     1.0000   1.0000   1.0000   1.0000   1.0000   1.0000  -0.0330  -0.0352
    -0.0349  -0.0331  -0.0047  -0.0040  -0.0004  -0.0002  -0.0000  -0.0000
    -0.0000  -0.0000  -0.0000  -0.0000  -0.0000  -0.0000

          k = 0.0000 0.1667 0.3333 ( 11300 PWs)   bands (ev):

   -56.5004 -56.5004 -56.4868 -56.4868 -56.4728 -56.4728 -56.4697 -56.4697
   -28.5834 -28.5784 -28.5723 -28.5702 -28.5378 -28.5353 -28.5002 -28.4999
   -27.6288 -27.6235 -27.5749 -27.5694 -27.5556 -27.5421 -27.5355 -27.5279
   -27.5157 -27.4878 -27.4818 -27.4661 -27.4593 -27.4477 -27.4344 -27.4306
     3.6318   3.6320   5.5367   5.5384   7.3623   7.3649   8.4324   8.4357
     9.7328   9.7361  10.1893  10.1936  10.9880  10.9910  11.3853  11.3949
    11.7533  11.7577  12.1902  12.1990  12.5959  12.6035  12.8782  12.8870
    13.1151  13.1246  13.2550  13.2607  13.3820  13.3833  13.5290  13.5390
    13.5914  13.6046  13.9916  14.0022  14.2461  14.2586  14.9129  14.9439
    15.2293  15.2480  15.3501  15.3601  15.6592  15.6843  15.8103  15.8406
    16.1560  16.1655  16.4434  16.4564  17.2396  17.2728

     occupation numbers 
     1.0000   1.0000   1.0000   1.0000   1.0000   1.0000   1.0000   1.0000
     1.0000   1.0000   1.0000   1.0000   1.0000   1.0000   1.0000   1.0000
     1.0000   1.0000   1.0000   1.0000   1.0000   1.0000   1.0000   1.0000
     1.0000   1.0000   1.0000   1.0000   1.0000   1.0000   1.0000   1.0000
     1.0000   1.0000   1.0000   1.0000   1.0000   1.0000   1.0000   1.0000
     1.0000   1.0000   1.0000   1.0000   1.0000   1.0000   1.0000   1.0000
     1.0000   1.0000   1.0000   1.0000   1.0000   1.0000   1.0000   1.0000
     1.0000   1.0000   1.0000   1.0000   1.0000   1.0000   1.0000   1.0000
     1.0000   1.0000   1.0000   1.0000   1.0007   1.0009   0.6277   0.5329
    -0.0261  -0.0315  -0.0297  -0.0281  -0.0008  -0.0005  -0.0000  -0.0000
    -0.0000  -0.0000  -0.0000  -0.0000  -0.0000  -0.0000

          k = 0.0000 0.1667-0.5000 ( 11284 PWs)   bands (ev):

   -56.4938 -56.4938 -56.4938 -56.4938 -56.4710 -56.4710 -56.4710 -56.4710
   -28.5796 -28.5796 -28.5741 -28.5741 -28.5193 -28.5193 -28.5167 -28.5167
   -27.6272 -27.6272 -27.5668 -27.5668 -27.5522 -27.5522 -27.5278 -27.5278
   -27.5059 -27.5059 -27.4741 -27.4741 -27.4547 -27.4547 -27.4315 -27.4315
     4.4923   4.4923   4.4930   4.4930   7.8945   7.8945   7.9014   7.9014
    10.0150  10.0150  10.0189  10.0189  11.1032  11.1032  11.1173  11.1173
    12.0917  12.0917  12.0962  12.0962  12.5415  12.5415  12.5573  12.5573
    13.2788  13.2788  13.2797  13.2797  13.3940  13.3940  13.3953  13.3953
    13.8691  13.8691  13.8731  13.8731  14.6238  14.6238  14.6552  14.6552
    15.2425  15.2425  15.2572  15.2572  15.7190  15.7191  15.7487  15.7488
    16.2439  16.2439  16.2545  16.2545  17.4895  17.4953

     occupation numbers 
     1.0000   1.0000   1.0000   1.0000   1.0000   1.0000   1.0000   1.0000
     1.0000   1.0000   1.0000   1.0000   1.0000   1.0000   1.0000   1.0000
     1.0000   1.0000   1.0000   1.0000   1.0000   1.0000   1.0000   1.0000
     1.0000   1.0000   1.0000   1.0000   1.0000   1.0000   1.0000   1.0000
     1.0000   1.0000   1.0000   1.0000   1.0000   1.0000   1.0000   1.0000
     1.0000   1.0000   1.0000   1.0000   1.0000   1.0000   1.0000   1.0000
     1.0000   1.0000   1.0000   1.0000   1.0000   1.0000   1.0000   1.0000
     1.0000   1.0000   1.0000   1.0000   1.0000   1.0000   1.0000   1.0000
     1.0000   1.0000   1.0000   1.0000   1.0354   1.0354   1.0326   1.0326
    -0.0302  -0.0302  -0.0332  -0.0332  -0.0003  -0.0003  -0.0001  -0.0001
    -0.0000  -0.0000  -0.0000  -0.0000  -0.0000  -0.0000

          k = 0.0000 0.3333 0.3333 ( 11304 PWs)   bands (ev):

   -56.4968 -56.4968 -56.4882 -56.4882 -56.4738 -56.4738 -56.4709 -56.4709
   -28.5795 -28.5756 -28.5686 -28.5676 -28.5355 -28.5333 -28.5111 -28.5103
   -27.6204 -27.6191 -27.5759 -27.5702 -27.5515 -27.5438 -27.5326 -27.5309
   -27.5146 -27.4957 -27.4934 -27.4820 -27.4532 -27.4394 -27.4301 -27.4268
     4.1574   4.1578   5.6388   5.6410   6.6778   6.6805   7.8192   7.8230
    10.0316  10.0343  10.3054  10.3084  10.9415  10.9433  11.2587  11.2609
    11.8955  11.9021  12.1592  12.1637  12.3109  12.3205  12.6298  12.6377
    13.1822  13.1905  13.3934  13.3984  13.5631  13.5659  13.7227  13.7281
    13.8863  13.8980  14.0970  14.1098  14.4908  14.5165  14.8517  14.8634
    14.9448  14.9651  15.0618  15.0784  15.5272  15.5503  15.6071  15.6370
    16.2368  16.2456  16.4937  16.5006  17.1509  17.1813

     occupation numbers 
     1.0000   1.0000   1.0000   1.0000   1.0000   1.0000   1.0000   1.0000
     1.0000   1.0000   1.0000   1.0000   1.0000   1.0000   1.0000   1.0000
     1.0000   1.0000   1.0000   1.0000   1.0000   1.0000   1.0000   1.0000
     1.0000   1.0000   1.0000   1.0000   1.0000   1.0000   1.0000   1.0000
     1.0000   1.0000   1.0000   1.0000   1.0000   1.0000   1.0000   1.0000
     1.0000   1.0000   1.0000   1.0000   1.0000   1.0000   1.0000   1.0000
     1.0000   1.0000   1.0000   1.0000   1.0000   1.0000   1.0000   1.0000
     1.0000   1.0000   1.0000   1.0000   1.0000   1.0000   1.0000   1.0000
     1.0000   1.0000   1.0000   1.0001   1.0184   1.0226   0.7959   0.7667
     0.5303   0.4672   0.1934   0.1554  -0.0056  -0.0041  -0.0018  -0.0011
    -0.0000  -0.0000  -0.0000  -0.0000  -0.0000  -0.0000

          k = 0.0000 0.3333-0.5000 ( 11296 PWs)   bands (ev):

   -56.4920 -56.4920 -56.4920 -56.4920 -56.4728 -56.4728 -56.4728 -56.4728
   -28.5737 -28.5737 -28.5696 -28.5696 -28.5257 -28.5257 -28.5228 -28.5228
   -27.6151 -27.6151 -27.5782 -27.5782 -27.5439 -27.5439 -27.5258 -27.5258
   -27.5143 -27.5143 -27.4929 -27.4929 -27.4419 -27.4419 -27.4273 -27.4273
     4.9485   4.9485   4.9498   4.9498   7.0279   7.0279   7.0328   7.0328
    10.3309  10.3309  10.3329  10.3329  11.2384  11.2384  11.2468  11.2468
    11.7618  11.7618  11.7673  11.7673  12.3353  12.3353  12.3426  12.3426
    13.3696  13.3696  13.3766  13.3766  13.6777  13.6777  13.6864  13.6864
    14.1734  14.1734  14.1790  14.1790  14.6143  14.6143  14.6335  14.6335
    14.9472  14.9472  14.9621  14.9621  15.5027  15.5027  15.5269  15.5269
    16.4444  16.4445  16.4552  16.4553  17.2002  17.2071

     occupation numbers 
     1.0000   1.0000   1.0000   1.0000   1.0000   1.0000   1.0000   1.0000
     1.0000   1.0000   1.0000   1.0000   1.0000   1.0000   1.0000   1.0000
     1.0000   1.0000   1.0000   1.0000   1.0000   1.0000   1.0000   1.0000
     1.0000   1.0000   1.0000   1.0000   1.0000   1.0000   1.0000   1.0000
     1.0000   1.0000   1.0000   1.0000   1.0000   1.0000   1.0000   1.0000
     1.0000   1.0000   1.0000   1.0000   1.0000   1.0000   1.0000   1.0000
     1.0000   1.0000   1.0000   1.0000   1.0000   1.0000   1.0000   1.0000
     1.0000   1.0000   1.0000   1.0000   1.0000   1.0000   1.0000   1.0000
     1.0002   1.0002   1.0002   1.0002   1.0354   1.0354   1.0351   1.0351
     0.5228   0.5228   0.4765   0.4765  -0.0076  -0.0076  -0.0056  -0.0056
    -0.0000  -0.0000  -0.0000  -0.0000  -0.0000  -0.0000

          k = 0.0000-0.5000-0.5000 ( 11360 PWs)   bands (ev):

   -56.4910 -56.4910 -56.4910 -56.4910 -56.4738 -56.4738 -56.4738 -56.4738
   -28.5685 -28.5685 -28.5685 -28.5685 -28.5279 -28.5279 -28.5279 -28.5279
   -27.5973 -27.5973 -27.5973 -27.5973 -27.5303 -27.5303 -27.5303 -27.5303
   -27.5108 -27.5108 -27.5108 -27.5108 -27.4311 -27.4311 -27.4311 -27.4311
     5.3702   5.3702   5.3702   5.3702   6.4271   6.4271   6.4271   6.4271
    10.7063  10.7063  10.7063  10.7063  11.2440  11.2440  11.2440  11.2440
    11.3855  11.3855  11.3855  11.3856  12.2857  12.2857  12.2857  12.2857
    13.3645  13.3645  13.3645  13.3645  14.0102  14.0102  14.0102  14.0102
    14.2979  14.2979  14.2979  14.2979  14.5285  14.5285  14.5285  14.5285
    14.7609  14.7609  14.7609  14.7609  15.4222  15.4222  15.4222  15.4222
    16.5912  16.5912  16.5912  16.5912  16.9885  16.9886

     occupation numbers 
     1.0000   1.0000   1.0000   1.0000   1.0000   1.0000   1.0000   1.0000
     1.0000   1.0000   1.0000   1.0000   1.0000   1.0000   1.0000   1.0000
     1.0000   1.0000   1.0000   1.0000   1.0000   1.0000   1.0000   1.0000
     1.0000   1.0000   1.0000   1.0000   1.0000   1.0000   1.0000   1.0000
     1.0000   1.0000   1.0000   1.0000   1.0000   1.0000   1.0000   1.0000
     1.0000   1.0000   1.0000   1.0000   1.0000   1.0000   1.0000   1.0000
     1.0000   1.0000   1.0000   1.0000   1.0000   1.0000   1.0000   1.0000
     1.0000   1.0000   1.0000   1.0000   1.0000   1.0000   1.0000   1.0000
     1.0017   1.0017   1.0017   1.0017   1.0247   1.0247   1.0247   1.0247
     0.9639   0.9639   0.9639   0.9639  -0.0177  -0.0177  -0.0177  -0.0177
    -0.0000  -0.0000  -0.0000  -0.0000  -0.0000  -0.0000

          k = 0.1667 0.1667 0.1667 ( 11296 PWs)   bands (ev):

   -56.5034 -56.5034 -56.4824 -56.4824 -56.4744 -56.4744 -56.4695 -56.4695
   -28.5839 -28.5786 -28.5667 -28.5666 -28.5502 -28.5463 -28.4918 -28.4914
   -27.6250 -27.6226 -27.5834 -27.5744 -27.5460 -27.5418 -27.5414 -27.5380
   -27.5087 -27.4964 -27.4739 -27.4611 -27.4541 -27.4502 -27.4329 -27.4324
     3.2665   3.2665   6.3440   6.3507   7.0375   7.0462   8.3230   8.3252
     9.7321   9.7349  10.5179  10.5187  10.5472  10.5485  11.3861  11.3917
    11.9884  11.9890  12.3210  12.3292  12.8300  12.8354  12.8360  12.8422
    13.1049  13.1102  13.1367  13.1368  13.2128  13.2187  13.5242  13.5293
    13.6031  13.6126  13.7859  13.7913  14.1548  14.1634  15.2084  15.2230
    15.2763  15.2910  15.4749  15.4761  15.5277  15.5433  15.7965  15.8112
    16.2278  16.2446  16.6064  16.6179  17.0505  17.0907

     occupation numbers 
     1.0000   1.0000   1.0000   1.0000   1.0000   1.0000   1.0000   1.0000
     1.0000   1.0000   1.0000   1.0000   1.0000   1.0000   1.0000   1.0000
     1.0000   1.0000   1.0000   1.0000   1.0000   1.0000   1.0000   1.0000
     1.0000   1.0000   1.0000   1.0000   1.0000   1.0000   1.0000   1.0000
     1.0000   1.0000   1.0000   1.0000   1.0000   1.0000   1.0000   1.0000
     1.0000   1.0000   1.0000   1.0000   1.0000   1.0000   1.0000   1.0000
     1.0000   1.0000   1.0000   1.0000   1.0000   1.0000   1.0000   1.0000
     1.0000   1.0000   1.0000   1.0000   1.0000   1.0000   1.0000   1.0000
     1.0000   1.0000   1.0000   1.0000   1.0001   1.0002  -0.0167  -0.0237
    -0.0352  -0.0354  -0.0105  -0.0104  -0.0056  -0.0046  -0.0001  -0.0000
    -0.0000  -0.0000  -0.0000  -0.0000  -0.0000  -0.0000

          k = 0.1667 0.1667 0.3333 ( 11295 PWs)   bands (ev):

   -56.4991 -56.4991 -56.4867 -56.4867 -56.4738 -56.4738 -56.4701 -56.4701
   -28.5820 -28.5775 -28.5694 -28.5678 -28.5389 -28.5362 -28.5043 -28.5035
   -27.6256 -27.6213 -27.5745 -27.5662 -27.5543 -27.5450 -27.5379 -27.5335
   -27.5104 -27.4976 -27.4752 -27.4651 -27.4628 -27.4512 -27.4307 -27.4290
     3.8108   3.8109   5.6513   5.6534   7.1819   7.1859   8.2385   8.2420
     9.3518   9.3543  10.2217  10.2241  10.9247  10.9284  11.4683  11.4716
    11.8296  11.8338  12.2187  12.2208  12.7521  12.7611  12.9464  12.9525
    13.0801  13.0888  13.1981  13.2066  13.2949  13.2985  13.5463  13.5531
    13.7644  13.7696  14.0150  14.0239  14.3544  14.3718  14.9095  14.9369
    15.1936  15.2088  15.2862  15.2961  15.5064  15.5210  15.7167  15.7375
    16.1696  16.1790  16.4563  16.4702  17.2205  17.2520

     occupation numbers 
     1.0000   1.0000   1.0000   1.0000   1.0000   1.0000   1.0000   1.0000
     1.0000   1.0000   1.0000   1.0000   1.0000   1.0000   1.0000   1.0000
     1.0000   1.0000   1.0000   1.0000   1.0000   1.0000   1.0000   1.0000
     1.0000   1.0000   1.0000   1.0000   1.0000   1.0000   1.0000   1.0000
     1.0000   1.0000   1.0000   1.0000   1.0000   1.0000   1.0000   1.0000
     1.0000   1.0000   1.0000   1.0000   1.0000   1.0000   1.0000   1.0000
     1.0000   1.0000   1.0000   1.0000   1.0000   1.0000   1.0000   1.0000
     1.0000   1.0000   1.0000   1.0000   1.0000   1.0000   1.0000   1.0000
     1.0000   1.0000   1.0000   1.0000   1.0039   1.0049   0.6380   0.5546
    -0.0075  -0.0169  -0.0355  -0.0353  -0.0073  -0.0061  -0.0003  -0.0002
    -0.0000  -0.0000  -0.0000  -0.0000  -0.0000  -0.0000

          k = 0.1667 0.1667-0.5000 ( 11316 PWs)   bands (ev):

   -56.4930 -56.4930 -56.4930 -56.4930 -56.4718 -56.4718 -56.4718 -56.4718
   -28.5773 -28.5773 -28.5720 -28.5720 -28.5224 -28.5224 -28.5191 -28.5191
   -27.6233 -27.6233 -27.5650 -27.5650 -27.5560 -27.5560 -27.5266 -27.5266
   -27.5121 -27.5121 -27.4703 -27.4703 -27.4576 -27.4576 -27.4290 -27.4290
     4.6536   4.6536   4.6544   4.6544   7.7177   7.7177   7.7239   7.7239
     9.6724   9.6724   9.6737   9.6737  11.3993  11.3993  11.4075  11.4075
    11.8740  11.8741  11.8777  11.8777  12.7989  12.7989  12.8109  12.8109
    13.1833  13.1833  13.1938  13.1938  13.4198  13.4198  13.4239  13.4239
    13.9247  13.9247  13.9326  13.9326  14.6753  14.6753  14.7092  14.7092
    15.1661  15.1661  15.1862  15.1862  15.6072  15.6072  15.6298  15.6298
    16.2632  16.2632  16.2729  16.2729  17.5726  17.5740

     occupation numbers 
     1.0000   1.0000   1.0000   1.0000   1.0000   1.0000   1.0000   1.0000
     1.0000   1.0000   1.0000   1.0000   1.0000   1.0000   1.0000   1.0000
     1.0000   1.0000   1.0000   1.0000   1.0000   1.0000   1.0000   1.0000
     1.0000   1.0000   1.0000   1.0000   1.0000   1.0000   1.0000   1.0000
     1.0000   1.0000   1.0000   1.0000   1.0000   1.0000   1.0000   1.0000
     1.0000   1.0000   1.0000   1.0000   1.0000   1.0000   1.0000   1.0000
     1.0000   1.0000   1.0000   1.0000   1.0000   1.0000   1.0000   1.0000
     1.0000   1.0000   1.0000   1.0000   1.0000   1.0000   1.0000   1.0000
     1.0000   1.0000   1.0000   1.0000   1.0276   1.0276   1.0117   1.0117
     0.0159   0.0159  -0.0020  -0.0020  -0.0018  -0.0018  -0.0013  -0.0013
    -0.0000  -0.0000  -0.0000  -0.0000  -0.0000  -0.0000

          k = 0.1667 0.3333 0.3333 ( 11304 PWs)   bands (ev):

   -56.4956 -56.4956 -56.4876 -56.4876 -56.4749 -56.4749 -56.4717 -56.4717
   -28.5776 -28.5738 -28.5660 -28.5651 -28.5375 -28.5353 -28.5146 -28.5136
   -27.6181 -27.6152 -27.5751 -27.5677 -27.5561 -27.5475 -27.5370 -27.5296
   -27.5141 -27.5045 -27.4815 -27.4732 -27.4571 -27.4455 -27.4299 -27.4266
     4.3273   4.3277   5.7570   5.7605   6.7206   6.7261   7.7762   7.7798
     9.2002   9.2036  10.0628  10.0664  10.9686  10.9709  11.5790  11.5832
    11.7453  11.7475  12.2601  12.2637  12.4945  12.5008  12.8127  12.8193
    13.1533  13.1576  13.2542  13.2664  13.4019  13.4092  13.6941  13.7093
    13.9194  13.9356  14.2307  14.2415  14.5667  14.5949  14.8664  14.8805
    14.9507  14.9618  15.1264  15.1531  15.4096  15.4123  15.5560  15.5714
    16.2319  16.2394  16.4606  16.4686  17.0999  17.1248

     occupation numbers 
     1.0000   1.0000   1.0000   1.0000   1.0000   1.0000   1.0000   1.0000
     1.0000   1.0000   1.0000   1.0000   1.0000   1.0000   1.0000   1.0000
     1.0000   1.0000   1.0000   1.0000   1.0000   1.0000   1.0000   1.0000
     1.0000   1.0000   1.0000   1.0000   1.0000   1.0000   1.0000   1.0000
     1.0000   1.0000   1.0000   1.0000   1.0000   1.0000   1.0000   1.0000
     1.0000   1.0000   1.0000   1.0000   1.0000   1.0000   1.0000   1.0000
     1.0000   1.0000   1.0000   1.0000   1.0000   1.0000   1.0000   1.0000
     1.0000   1.0000   1.0000   1.0000   1.0000   1.0000   1.0000   1.0000
     1.0000   1.0000   1.0006   1.0007   1.0308   1.0342   0.7588   0.7210
     0.5118   0.4773   0.0663   0.0301  -0.0198  -0.0193  -0.0038  -0.0031
    -0.0000  -0.0000  -0.0000  -0.0000  -0.0000  -0.0000

          k = 0.1667 0.3333-0.5000 ( 11308 PWs)   bands (ev):

   -56.4910 -56.4910 -56.4910 -56.4910 -56.4738 -56.4738 -56.4738 -56.4738
   -28.5714 -28.5714 -28.5673 -28.5673 -28.5287 -28.5287 -28.5255 -28.5255
   -27.6119 -27.6119 -27.5759 -27.5759 -27.5517 -27.5517 -27.5281 -27.5281
   -27.5137 -27.5137 -27.4828 -27.4828 -27.4466 -27.4466 -27.4282 -27.4282
     5.0991   5.0991   5.1006   5.1006   7.0725   7.0725   7.0778   7.0778
     9.6225   9.6225   9.6262   9.6262  11.2875  11.2875  11.2893  11.2893
    11.9350  11.9350  11.9439  11.9439  12.5648  12.5648  12.5741  12.5741
    13.2670  13.2670  13.2731  13.2731  13.5508  13.5508  13.5658  13.5658
    14.2368  14.2368  14.2457  14.2457  14.7119  14.7119  14.7332  14.7332
    14.9650  14.9650  14.9828  14.9829  15.4466  15.4466  15.4634  15.4634
    16.3873  16.3874  16.3948  16.3949  17.1622  17.1706

     occupation numbers 
     1.0000   1.0000   1.0000   1.0000   1.0000   1.0000   1.0000   1.0000
     1.0000   1.0000   1.0000   1.0000   1.0000   1.0000   1.0000   1.0000
     1.0000   1.0000   1.0000   1.0000   1.0000   1.0000   1.0000   1.0000
     1.0000   1.0000   1.0000   1.0000   1.0000   1.0000   1.0000   1.0000
     1.0000   1.0000   1.0000   1.0000   1.0000   1.0000   1.0000   1.0000
     1.0000   1.0000   1.0000   1.0000   1.0000   1.0000   1.0000   1.0000
     1.0000   1.0000   1.0000   1.0000   1.0000   1.0000   1.0000   1.0000
     1.0000   1.0000   1.0000   1.0000   1.0000   1.0000   1.0000   1.0000
     1.0006   1.0006   1.0007   1.0007   1.0099   1.0099   0.9934   0.9934
     0.4675   0.4675   0.4125   0.4124  -0.0141  -0.0141  -0.0119  -0.0119
    -0.0000  -0.0000  -0.0000  -0.0000  -0.0000  -0.0000

          k = 0.1667-0.5000-0.5000 ( 11280 PWs)   bands (ev):

   -56.4898 -56.4898 -56.4898 -56.4898 -56.4750 -56.4750 -56.4750 -56.4750
   -28.5661 -28.5661 -28.5660 -28.5660 -28.5310 -28.5310 -28.5307 -28.5307
   -27.5980 -27.5980 -27.5912 -27.5912 -27.5460 -27.5460 -27.5323 -27.5323
   -27.5080 -27.5080 -27.4936 -27.4936 -27.4374 -27.4374 -27.4316 -27.4316
     5.5068   5.5068   5.5082   5.5082   6.5299   6.5299   6.5325   6.5325
     9.8342   9.8342   9.8384   9.8384  10.8962  10.8962  10.8984  10.8984
    12.1902  12.1902  12.1928  12.1928  12.3756  12.3756  12.3787  12.3787
    13.2235  13.2235  13.2243  13.2243  13.7580  13.7580  13.7719  13.7719
    14.3939  14.3939  14.4010  14.4010  14.6983  14.6983  14.7157  14.7157
    14.8397  14.8397  14.8415  14.8415  15.3688  15.3688  15.3690  15.3690
    16.4880  16.4880  16.4895  16.4896  16.9544  16.9583

     occupation numbers 
     1.0000   1.0000   1.0000   1.0000   1.0000   1.0000   1.0000   1.0000
     1.0000   1.0000   1.0000   1.0000   1.0000   1.0000   1.0000   1.0000
     1.0000   1.0000   1.0000   1.0000   1.0000   1.0000   1.0000   1.0000
     1.0000   1.0000   1.0000   1.0000   1.0000   1.0000   1.0000   1.0000
     1.0000   1.0000   1.0000   1.0000   1.0000   1.0000   1.0000   1.0000
     1.0000   1.0000   1.0000   1.0000   1.0000   1.0000   1.0000   1.0000
     1.0000   1.0000   1.0000   1.0000   1.0000   1.0000   1.0000   1.0000
     1.0000   1.0000   1.0000   1.0000   1.0000   1.0000   1.0000   1.0000
     1.0066   1.0066   1.0071   1.0071   1.0180   1.0179   1.0073   1.0073
     0.8243   0.8243   0.8201   0.8201  -0.0266  -0.0266  -0.0266  -0.0266
    -0.0000  -0.0000  -0.0000  -0.0000  -0.0000  -0.0000

          k = 0.3333 0.3333 0.3333 ( 11281 PWs)   bands (ev):

   -56.4923 -56.4923 -56.4867 -56.4867 -56.4768 -56.4768 -56.4738 -56.4738
   -28.5720 -28.5689 -28.5611 -28.5609 -28.5402 -28.5384 -28.5238 -28.5224
   -27.6104 -27.6068 -27.5737 -27.5637 -27.5635 -27.5620 -27.5410 -27.5278
   -27.5171 -27.4968 -27.4772 -27.4589 -27.4586 -27.4577 -27.4321 -27.4287
     4.8134   4.8138   5.9655   5.9720   6.6618   6.6722   7.5011   7.5037
     8.7480   8.7530   9.4977   9.5041  10.5489  10.5535  11.1931  11.1949
    12.0063  12.0080  12.4976  12.5007  12.7691  12.7732  12.8493  12.8510
    13.1391  13.1509  13.1960  13.2028  13.2664  13.2686  13.5454  13.5485
    14.1409  14.1455  14.4925  14.5008  14.7931  14.8298  14.8518  14.8635
    14.9967  15.0076  15.1379  15.1438  15.2644  15.2914  15.4146  15.4339
    16.2561  16.2630  16.3899  16.3927  16.9563  16.9646

     occupation numbers 
     1.0000   1.0000   1.0000   1.0000   1.0000   1.0000   1.0000   1.0000
     1.0000   1.0000   1.0000   1.0000   1.0000   1.0000   1.0000   1.0000
     1.0000   1.0000   1.0000   1.0000   1.0000   1.0000   1.0000   1.0000
     1.0000   1.0000   1.0000   1.0000   1.0000   1.0000   1.0000   1.0000
     1.0000   1.0000   1.0000   1.0000   1.0000   1.0000   1.0000   1.0000
     1.0000   1.0000   1.0000   1.0000   1.0000   1.0000   1.0000   1.0000
     1.0000   1.0000   1.0000   1.0000   1.0000   1.0000   1.0000   1.0000
     1.0000   1.0000   1.0000   1.0000   1.0000   1.0000   1.0000   1.0000
     1.0001   1.0001   1.0186   1.0200   0.9170   0.8463   0.7955   0.7663
     0.3705   0.3383   0.0496   0.0417  -0.0342  -0.0354  -0.0189  -0.0159
    -0.0000  -0.0000  -0.0000  -0.0000  -0.0000  -0.0000

          k = 0.3333 0.3333-0.5000 ( 11334 PWs)   bands (ev):

   -56.4885 -56.4885 -56.4885 -56.4885 -56.4763 -56.4763 -56.4763 -56.4763
   -28.5652 -28.5652 -28.5617 -28.5617 -28.5356 -28.5356 -28.5325 -28.5325
   -27.6027 -27.6027 -27.5739 -27.5739 -27.5635 -27.5635 -27.5377 -27.5377
   -27.5026 -27.5026 -27.4713 -27.4713 -27.4529 -27.4529 -27.4330 -27.4330
     5.5126   5.5126   5.5145   5.5145   6.9752   6.9752   6.9810   6.9810
     9.0500   9.0500   9.0559   9.0559  10.5630  10.5630  10.5660  10.5660
    12.3851  12.3851  12.3936  12.3936  12.8192  12.8192  12.8269  12.8269
    13.1332  13.1332  13.1442  13.1442  13.3783  13.3783  13.3867  13.3867
    14.4668  14.4668  14.4752  14.4752  14.8619  14.8619  14.8776  14.8776
    15.0818  15.0818  15.1011  15.1011  15.2978  15.2978  15.3141  15.3141
    16.3321  16.3321  16.3415  16.3415  16.9304  16.9332

     occupation numbers 
     1.0000   1.0000   1.0000   1.0000   1.0000   1.0000   1.0000   1.0000
     1.0000   1.0000   1.0000   1.0000   1.0000   1.0000   1.0000   1.0000
     1.0000   1.0000   1.0000   1.0000   1.0000   1.0000   1.0000   1.0000
     1.0000   1.0000   1.0000   1.0000   1.0000   1.0000   1.0000   1.0000
     1.0000   1.0000   1.0000   1.0000   1.0000   1.0000   1.0000   1.0000
     1.0000   1.0000   1.0000   1.0000   1.0000   1.0000   1.0000   1.0000
     1.0000   1.0000   1.0000   1.0000   1.0000   1.0000   1.0000   1.0000
     1.0000   1.0000   1.0000   1.0000   1.0000   1.0000   1.0000   1.0000
     1.0147   1.0147   1.0160   1.0160   0.7704   0.7704   0.7290   0.7290
     0.1481   0.1481   0.1094   0.1094  -0.0353  -0.0353  -0.0342  -0.0342
    -0.0000  -0.0000  -0.0000  -0.0000  -0.0000  -0.0000

          k = 0.3333-0.5000-0.5000 ( 11332 PWs)   bands (ev):

   -56.4867 -56.4867 -56.4867 -56.4867 -56.4781 -56.4781 -56.4781 -56.4781
   -28.5593 -28.5593 -28.5590 -28.5590 -28.5390 -28.5390 -28.5386 -28.5386
   -27.5920 -27.5920 -27.5836 -27.5836 -27.5637 -27.5637 -27.5421 -27.5421
   -27.4948 -27.4948 -27.4734 -27.4734 -27.4479 -27.4479 -27.4397 -27.4397
     5.8909   5.8909   5.8939   5.8939   6.6638   6.6638   6.6693   6.6693
     9.0933   9.0933   9.1000   9.1000  10.0569  10.0569  10.0611  10.0611
    12.6146  12.6146  12.6186  12.6186  12.8001  12.8001  12.8022  12.8022
    13.0434  13.0434  13.0435  13.0435  13.3529  13.3529  13.3636  13.3636
    14.6576  14.6576  14.6652  14.6652  14.9737  14.9737  14.9812  14.9812
    15.0656  15.0656  15.0711  15.0711  15.2566  15.2566  15.2684  15.2684
    16.3691  16.3691  16.3704  16.3704  16.7219  16.7223

     occupation numbers 
     1.0000   1.0000   1.0000   1.0000   1.0000   1.0000   1.0000   1.0000
     1.0000   1.0000   1.0000   1.0000   1.0000   1.0000   1.0000   1.0000
     1.0000   1.0000   1.0000   1.0000   1.0000   1.0000   1.0000   1.0000
     1.0000   1.0000   1.0000   1.0000   1.0000   1.0000   1.0000   1.0000
     1.0000   1.0000   1.0000   1.0000   1.0000   1.0000   1.0000   1.0000
     1.0000   1.0000   1.0000   1.0000   1.0000   1.0000   1.0000   1.0000
     1.0000   1.0000   1.0000   1.0000   1.0000   1.0000   1.0000   1.0000
     1.0000   1.0000   1.0000   1.0000   1.0000   1.0000   1.0000   1.0000
     1.0322   1.0322   1.0305   1.0305   0.4405   0.4405   0.4174   0.4174
     0.1844   0.1844   0.1716   0.1716  -0.0331  -0.0331  -0.0346  -0.0346
    -0.0000  -0.0000  -0.0000  -0.0000  -0.0000  -0.0000

          k =-0.5000-0.5000-0.5000 ( 11296 PWs)   bands (ev):

   -56.4824 -56.4824 -56.4824 -56.4824 -56.4824 -56.4824 -56.4824 -56.4824
   -28.5498 -28.5498 -28.5491 -28.5491 -28.5491 -28.5491 -28.5491 -28.5491
   -27.5799 -27.5799 -27.5799 -27.5799 -27.5799 -27.5799 -27.5461 -27.5461
   -27.4876 -27.4876 -27.4544 -27.4544 -27.4544 -27.4544 -27.4544 -27.4544
     6.3979   6.3979   6.3979   6.3979   6.3979   6.3979   6.4082   6.4082
     9.2380   9.2380   9.2504   9.2504   9.2504   9.2504   9.2504   9.2504
    12.9181  12.9182  12.9246  12.9246  12.9246  12.9246  12.9246  12.9246
    13.0013  13.0013  13.0061  13.0061  13.0061  13.0061  13.0061  13.0061
    14.9355  14.9355  14.9374  14.9374  14.9374  14.9374  14.9374  14.9374
    15.2378  15.2378  15.2378  15.2378  15.2378  15.2378  15.2809  15.2809
    16.4115  16.4116  16.4238  16.4238  16.4238  16.4238

     occupation numbers 
     1.0000   1.0000   1.0000   1.0000   1.0000   1.0000   1.0000   1.0000
     1.0000   1.0000   1.0000   1.0000   1.0000   1.0000   1.0000   1.0000
     1.0000   1.0000   1.0000   1.0000   1.0000   1.0000   1.0000   1.0000
     1.0000   1.0000   1.0000   1.0000   1.0000   1.0000   1.0000   1.0000
     1.0000   1.0000   1.0000   1.0000   1.0000   1.0000   1.0000   1.0000
     1.0000   1.0000   1.0000   1.0000   1.0000   1.0000   1.0000   1.0000
     1.0000   1.0000   1.0000   1.0000   1.0000   1.0000   1.0000   1.0000
     1.0000   1.0000   1.0000   1.0000   1.0000   1.0000   1.0000   1.0000
     0.5589   0.5589   0.5531   0.5531   0.5531   0.5531   0.5531   0.5531
    -0.0289  -0.0289  -0.0289  -0.0289  -0.0289  -0.0289  -0.0354  -0.0354
    -0.0000  -0.0000  -0.0000  -0.0000  -0.0000  -0.0000

          k = 0.0000 0.3333 0.1667 ( 11300 PWs)   bands (ev):

   -56.5004 -56.5004 -56.4868 -56.4868 -56.4728 -56.4728 -56.4697 -56.4697
   -28.5834 -28.5785 -28.5721 -28.5703 -28.5380 -28.5352 -28.5004 -28.4997
   -27.6289 -27.6236 -27.5728 -27.5717 -27.5544 -27.5422 -27.5367 -27.5281
   -27.5152 -27.4896 -27.4791 -27.4678 -27.4588 -27.4474 -27.4343 -27.4309
     3.6318   3.6319   5.5364   5.5374   7.3643   7.3655   8.4321   8.4387
     9.7430   9.7454  10.2564  10.2626  10.9713  10.9745  11.0975  11.1001
    11.8636  11.8659  12.2432  12.2471  12.7983  12.8034  12.9768  12.9819
    13.0681  13.0743  13.2459  13.2522  13.3419  13.3466  13.4901  13.4948
    13.5406  13.5431  13.9679  13.9780  14.2315  14.2435  14.8924  14.9244
    15.2807  15.2990  15.3409  15.3579  15.6489  15.6766  15.7874  15.8132
    16.1580  16.1704  16.4250  16.4392  17.2731  17.3029

     occupation numbers 
     1.0000   1.0000   1.0000   1.0000   1.0000   1.0000   1.0000   1.0000
     1.0000   1.0000   1.0000   1.0000   1.0000   1.0000   1.0000   1.0000
     1.0000   1.0000   1.0000   1.0000   1.0000   1.0000   1.0000   1.0000
     1.0000   1.0000   1.0000   1.0000   1.0000   1.0000   1.0000   1.0000
     1.0000   1.0000   1.0000   1.0000   1.0000   1.0000   1.0000   1.0000
     1.0000   1.0000   1.0000   1.0000   1.0000   1.0000   1.0000   1.0000
     1.0000   1.0000   1.0000   1.0000   1.0000   1.0000   1.0000   1.0000
     1.0000   1.0000   1.0000   1.0000   1.0000   1.0000   1.0000   1.0000
     1.0000   1.0000   1.0000   1.0000   1.0006   1.0007   0.6877   0.5931
    -0.0353  -0.0352  -0.0310  -0.0284  -0.0009  -0.0006  -0.0001  -0.0000
    -0.0000  -0.0000  -0.0000  -0.0000  -0.0000  -0.0000

          k = 0.0000-0.5000 0.1667 ( 11284 PWs)   bands (ev):

   -56.4938 -56.4938 -56.4938 -56.4938 -56.4710 -56.4710 -56.4710 -56.4710
   -28.5796 -28.5796 -28.5741 -28.5741 -28.5194 -28.5194 -28.5166 -28.5166
   -27.6273 -27.6273 -27.5658 -27.5658 -27.5529 -27.5529 -27.5280 -27.5280
   -27.5060 -27.5060 -27.4741 -27.4741 -27.4544 -27.4544 -27.4317 -27.4317
     4.4921   4.4921   4.4926   4.4926   7.8965   7.8965   7.9012   7.9012
    10.1027  10.1027  10.1078  10.1078  10.8746  10.8746  10.8819  10.8819
    12.1427  12.1427  12.1476  12.1476  12.8634  12.8634  12.8726  12.8726
    13.1101  13.1101  13.1181  13.1181  13.3991  13.3991  13.4082  13.4082
    13.8097  13.8097  13.8151  13.8151  14.6100  14.6100  14.6411  14.6411
    15.2626  15.2626  15.2849  15.2849  15.6864  15.6865  15.7149  15.7150
    16.2188  16.2188  16.2305  16.2305  17.5942  17.5958

     occupation numbers 
     1.0000   1.0000   1.0000   1.0000   1.0000   1.0000   1.0000   1.0000
     1.0000   1.0000   1.0000   1.0000   1.0000   1.0000   1.0000   1.0000
     1.0000   1.0000   1.0000   1.0000   1.0000   1.0000   1.0000   1.0000
     1.0000   1.0000   1.0000   1.0000   1.0000   1.0000   1.0000   1.0000
     1.0000   1.0000   1.0000   1.0000   1.0000   1.0000   1.0000   1.0000
     1.0000   1.0000   1.0000   1.0000   1.0000   1.0000   1.0000   1.0000
     1.0000   1.0000   1.0000   1.0000   1.0000   1.0000   1.0000   1.0000
     1.0000   1.0000   1.0000   1.0000   1.0000   1.0000   1.0000   1.0000
     1.0000   1.0000   1.0000   1.0000   1.0352   1.0352   1.0346   1.0346
    -0.0340  -0.0340  -0.0354  -0.0354  -0.0005  -0.0005  -0.0003  -0.0003
    -0.0000  -0.0000  -0.0000  -0.0000  -0.0000  -0.0000

          k = 0.0000-0.5000 0.3333 ( 11296 PWs)   bands (ev):

   -56.4920 -56.4920 -56.4920 -56.4920 -56.4728 -56.4728 -56.4728 -56.4728
   -28.5737 -28.5737 -28.5696 -28.5696 -28.5258 -28.5258 -28.5226 -28.5226
   -27.6153 -27.6153 -27.5774 -27.5774 -27.5445 -27.5445 -27.5252 -27.5252
   -27.5153 -27.5153 -27.4925 -27.4925 -27.4417 -27.4417 -27.4274 -27.4274
     4.9480   4.9480   4.9489   4.9489   7.0310   7.0310   7.0335   7.0335
    10.5076  10.5076  10.5110  10.5110  10.8272  10.8272  10.8295  10.8295
    11.9950  11.9950  12.0004  12.0004  12.4107  12.4107  12.4213  12.4213
    13.2691  13.2691  13.2755  13.2755  13.9164  13.9164  13.9228  13.9228
    13.9582  13.9582  13.9714  13.9714  14.6455  14.6455  14.6790  14.6790
    14.9052  14.9052  14.9411  14.9411  15.4826  15.4826  15.5057  15.5057
    16.3892  16.3892  16.4011  16.4011  17.2967  17.3038

     occupation numbers 
     1.0000   1.0000   1.0000   1.0000   1.0000   1.0000   1.0000   1.0000
     1.0000   1.0000   1.0000   1.0000   1.0000   1.0000   1.0000   1.0000
     1.0000   1.0000   1.0000   1.0000   1.0000   1.0000   1.0000   1.0000
     1.0000   1.0000   1.0000   1.0000   1.0000   1.0000   1.0000   1.0000
     1.0000   1.0000   1.0000   1.0000   1.0000   1.0000   1.0000   1.0000
     1.0000   1.0000   1.0000   1.0000   1.0000   1.0000   1.0000   1.0000
     1.0000   1.0000   1.0000   1.0000   1.0000   1.0000   1.0000   1.0000
     1.0000   1.0000   1.0000   1.0000   1.0000   1.0000   1.0000   1.0000
     1.0000   1.0000   1.0000   1.0000   1.0341   1.0341   1.0264   1.0264
     0.6505   0.6505   0.5416   0.5416  -0.0096  -0.0096  -0.0074  -0.0074
    -0.0000  -0.0000  -0.0000  -0.0000  -0.0000  -0.0000

          k =-0.1667-0.5000 0.3333 ( 11308 PWs)   bands (ev):

   -56.4910 -56.4910 -56.4910 -56.4910 -56.4738 -56.4738 -56.4738 -56.4738
   -28.5714 -28.5714 -28.5673 -28.5673 -28.5287 -28.5287 -28.5254 -28.5254
   -27.6120 -27.6120 -27.5754 -27.5754 -27.5521 -27.5521 -27.5278 -27.5278
   -27.5141 -27.5141 -27.4826 -27.4826 -27.4465 -27.4465 -27.4282 -27.4282
     5.0988   5.0988   5.1000   5.1000   7.0744   7.0744   7.0783   7.0783
     9.6360   9.6360   9.6388   9.6388  11.1981  11.1981  11.2012  11.2012
    11.9974  11.9974  12.0040  12.0040  12.6323  12.6323  12.6426  12.6426
    13.1737  13.1737  13.1816  13.1816  13.6517  13.6517  13.6634  13.6634
    14.1721  14.1721  14.1814  14.1814  14.7184  14.7184  14.7437  14.7437
    14.9643  14.9643  14.9956  14.9956  15.4271  15.4271  15.4443  15.4443
    16.3587  16.3588  16.3695  16.3696  17.2182  17.2205

     occupation numbers 
     1.0000   1.0000   1.0000   1.0000   1.0000   1.0000   1.0000   1.0000
     1.0000   1.0000   1.0000   1.0000   1.0000   1.0000   1.0000   1.0000
     1.0000   1.0000   1.0000   1.0000   1.0000   1.0000   1.0000   1.0000
     1.0000   1.0000   1.0000   1.0000   1.0000   1.0000   1.0000   1.0000
     1.0000   1.0000   1.0000   1.0000   1.0000   1.0000   1.0000   1.0000
     1.0000   1.0000   1.0000   1.0000   1.0000   1.0000   1.0000   1.0000
     1.0000   1.0000   1.0000   1.0000   1.0000   1.0000   1.0000   1.0000
     1.0000   1.0000   1.0000   1.0000   1.0000   1.0000   1.0000   1.0000
     1.0002   1.0002   1.0002   1.0002   1.0054   1.0054   0.9834   0.9834
     0.4697   0.4697   0.3739   0.3739  -0.0170  -0.0170  -0.0144  -0.0144
    -0.0000  -0.0000  -0.0000  -0.0000  -0.0000  -0.0000

     the Fermi energy is    14.9545 ev

!    total energy              =   -1180.35096675 Ry

     total all-electron energy =    -10727.811803 Ry
     estimated scf accuracy    <       0.00000091 Ry
     smearing contrib. (-TS)   =      -0.00130910 Ry
     internal energy E=F+TS    =   -1180.34965765 Ry

     The total energy is F=E-TS. E is the sum of the following terms:
     one-electron contribution =    -336.81644939 Ry
     hartree contribution      =     207.06278147 Ry
     xc contribution           =    -114.36386670 Ry
     ewald contribution        =    -496.51183961 Ry
     one-center paw contrib.   =    -439.72028343 Ry
      -> PAW hartree energy AE =     126.73926203 Ry
      -> PAW hartree energy PS =    -125.77195998 Ry
      -> PAW xc energy AE      =     -96.24147776 Ry
      -> PAW xc energy PS      =      20.93426375 Ry
      -> total E_H with PAW    =     208.03008352 Ry
      -> total E_XC with PAW   =    -189.67108071 Ry

     convergence has been achieved in   6 iterations

     Writing output data file /zfs_data/vergnior/martin/Scratch/OAL/CrSi/convergence/cutoff/6x6x6/100/tmp/CrSi.save/
 
     init_run     :      4.60s CPU      4.81s WALL (       1 calls)
     electrons    :     87.69s CPU     90.33s WALL (       1 calls)

     Called by init_run:
     wfcinit      :      3.21s CPU      3.31s WALL (       1 calls)
     wfcinit:atom :      0.04s CPU      0.04s WALL (      24 calls)
     wfcinit:wfcr :      3.03s CPU      3.12s WALL (      24 calls)
     potinit      :      0.19s CPU      0.20s WALL (       1 calls)
     hinit0       :      0.21s CPU      0.22s WALL (       1 calls)

     Called by electrons:
     c_bands      :     68.34s CPU     69.50s WALL (       7 calls)
     sum_band     :     15.10s CPU     16.03s WALL (       7 calls)
     v_of_rho     :      0.17s CPU      0.17s WALL (       7 calls)
     v_h          :      0.01s CPU      0.01s WALL (       7 calls)
     v_xc         :      0.15s CPU      0.16s WALL (       7 calls)
     newd         :      3.72s CPU      4.27s WALL (       7 calls)
     PAW_pot      :      0.88s CPU      0.89s WALL (       7 calls)
     mix_rho      :      0.09s CPU      0.10s WALL (       7 calls)

     Called by c_bands:
     init_us_2    :      0.46s CPU      0.47s WALL (     360 calls)
     cegterg      :     60.76s CPU     61.87s WALL (     168 calls)

     Called by sum_band:
     sum_band:wei :      0.02s CPU      0.02s WALL (       7 calls)
     sum_band:loo :     12.12s CPU     12.34s WALL (       7 calls)
     sum_band:buf :      0.14s CPU      0.15s WALL (     168 calls)
     sum_band:ini :      0.22s CPU      0.22s WALL (     168 calls)
     sum_band:cal :      1.03s CPU      1.03s WALL (     168 calls)
     sum_band:bec :      2.14s CPU      2.14s WALL (     168 calls)
     addusdens    :      2.82s CPU      3.52s WALL (       7 calls)
     addusd:skk   :      0.00s CPU      0.01s WALL (      14 calls)
     addusd:dgemm :      1.09s CPU      1.78s WALL (      14 calls)
     addusd:qvan2 :      1.68s CPU      1.69s WALL (      14 calls)

     Called by *egterg:
     cdiaghg      :      6.03s CPU      6.09s WALL (     860 calls)
     cegterg:over :      3.67s CPU      3.69s WALL (     716 calls)
     cegterg:upda :      1.99s CPU      2.00s WALL (     716 calls)
     cegterg:last :      3.34s CPU      3.35s WALL (     437 calls)
     h_psi        :     39.69s CPU     40.74s WALL (     908 calls)
     s_psi        :      6.85s CPU      6.87s WALL (     908 calls)
     g_psi        :      0.13s CPU      0.13s WALL (     716 calls)

     Called by h_psi:
     h_psi:calbec :      3.52s CPU      3.55s WALL (     908 calls)
     vloc_psi     :     29.59s CPU     30.56s WALL (     908 calls)
     add_vuspsi   :      6.33s CPU      6.37s WALL (     908 calls)

     General routines
     calbec       :      4.53s CPU      4.58s WALL (    1076 calls)
     fft          :      0.15s CPU      0.15s WALL (     144 calls)
     ffts         :      0.01s CPU      0.01s WALL (      56 calls)
     fftw         :     24.48s CPU     25.23s WALL (  221040 calls)
     interpolate  :      0.04s CPU      0.04s WALL (      28 calls)
 
     Parallel routines
     fft_scatt_xy :      3.26s CPU      3.38s WALL (  221240 calls)
     fft_scatt_yz :     12.59s CPU     12.98s WALL (  221240 calls)

     PAW routines
     PAW_pot      :      0.88s CPU      0.89s WALL (       7 calls)
     PAW_symme    :      0.01s CPU      0.01s WALL (      14 calls)
 
     PWSCF        :   1m35.31s CPU   1m39.46s WALL

 
   This run was terminated on:  18:27:11  30Jul2021            

=------------------------------------------------------------------------------=
   JOB DONE.
=------------------------------------------------------------------------------=
