MPI startup(): Warning: I_MPI_PMI_LIBRARY will be ignored since the hydra process manager was found
MPI startup(): Warning: I_MPI_PMI_LIBRARY will be ignored since the hydra process manager was found
MPI startup(): Warning: I_MPI_PMI_LIBRARY will be ignored since the hydra process manager was found
MPI startup(): Warning: I_MPI_PMI_LIBRARY will be ignored since the hydra process manager was found
MPI startup(): Warning: I_MPI_PMI_LIBRARY will be ignored since the hydra process manager was found
MPI startup(): Warning: I_MPI_PMI_LIBRARY will be ignored since the hydra process manager was found
MPI startup(): Warning: I_MPI_PMI_LIBRARY will be ignored since the hydra process manager was found
MPI startup(): Warning: I_MPI_PMI_LIBRARY will be ignored since the hydra process manager was found
MPI startup(): Warning: I_MPI_PMI_LIBRARY will be ignored since the hydra process manager was found
MPI startup(): Warning: I_MPI_PMI_LIBRARY will be ignored since the hydra process manager was found
MPI startup(): Warning: I_MPI_PMI_LIBRARY will be ignored since the hydra process manager was found
MPI startup(): Warning: I_MPI_PMI_LIBRARY will be ignored since the hydra process manager was found
MPI startup(): Warning: I_MPI_PMI_LIBRARY will be ignored since the hydra process manager was found
MPI startup(): Warning: I_MPI_PMI_LIBRARY will be ignored since the hydra process manager was found
MPI startup(): Warning: I_MPI_PMI_LIBRARY will be ignored since the hydra process manager was found
MPI startup(): Warning: I_MPI_PMI_LIBRARY will be ignored since the hydra process manager was found
MPI startup(): Warning: I_MPI_PMI_LIBRARY will be ignored since the hydra process manager was found
MPI startup(): Warning: I_MPI_PMI_LIBRARY will be ignored since the hydra process manager was found
MPI startup(): Warning: I_MPI_PMI_LIBRARY will be ignored since the hydra process manager was found
MPI startup(): Warning: I_MPI_PMI_LIBRARY will be ignored since the hydra process manager was found
MPI startup(): Warning: I_MPI_PMI_LIBRARY will be ignored since the hydra process manager was found
MPI startup(): Warning: I_MPI_PMI_LIBRARY will be ignored since the hydra process manager was found
MPI startup(): Warning: I_MPI_PMI_LIBRARY will be ignored since the hydra process manager was found
MPI startup(): Warning: I_MPI_PMI_LIBRARY will be ignored since the hydra process manager was found

     Program PWSCF v.6.7MaX starts on  1Aug2021 at 12:40:47 

     This program is part of the open-source Quantum ESPRESSO suite
     for quantum simulation of materials; please cite
         "P. Giannozzi et al., J. Phys.:Condens. Matter 21 395502 (2009);
         "P. Giannozzi et al., J. Phys.:Condens. Matter 29 465901 (2017);
          URL http://www.quantum-espresso.org", 
     in publications or presentations arising from this work. More details at
     http://www.quantum-espresso.org/quote

     Parallel version (MPI), running on    24 processors

     MPI processes distributed on     1 nodes
     R & G space division:  proc/nbgrp/npool/nimage =      24
     Waiting for input...
     Reading input from standard input

     Current dimensions of program PWSCF are:
     Max number of different atomic species (ntypx) = 10
     Max number of k-points (npk) =  40000
     Max angular momentum in pseudopotentials (lmaxx) =  3
     file Cr.rel-pbe-spn-kjpaw_psl.1.0.0.UPF: wavefunction(s)  3S 3P 3P 3D 3D renormalized
     file Si.rel-pbe-n-kjpaw_psl.1.0.0.UPF: wavefunction(s)  3S 3P 3P renormalized

     Subspace diagonalization in iterative solution of the eigenvalue problem:
     a serial algorithm will be used

     Message from routine setup:
     using ibrav=0 with symmetry is DISCOURAGED, use correct ibrav instead
 
     Parallelization info
     --------------------
     sticks:   dense  smooth     PW     G-vecs:    dense   smooth      PW
     Min         228      91     25                12702     3210     487
     Max         229      93     26                12704     3214     492
     Sum        5473    2201    621               304867    77053   11753
 


     bravais-lattice index     =            0
     lattice parameter (alat)  =       8.7475  a.u.
     unit-cell volume          =     669.3575 (a.u.)^3
     number of atoms/cell      =            8
     number of atomic types    =            2
     number of electrons       =        72.00
     number of Kohn-Sham states=           86
     kinetic-energy cutoff     =      90.0000  Ry
     charge density cutoff     =     900.0000  Ry
     scf convergence threshold =      1.0E-06
     mixing beta               =       0.7000
     number of iterations used =            8  plain     mixing
     Exchange-correlation= SLA  PW   PBX  PBC
                           (   1   4   3   4   0   0   0)
     Non magnetic calculation with spin-orbit


     celldm(1)=   8.747542  celldm(2)=   0.000000  celldm(3)=   0.000000
     celldm(4)=   0.000000  celldm(5)=   0.000000  celldm(6)=   0.000000

     crystal axes: (cart. coord. in units of alat)
               a(1) = (   1.000000   0.000000   0.000000 )  
               a(2) = (   0.000000   1.000000   0.000000 )  
               a(3) = (   0.000000   0.000000   1.000000 )  

     reciprocal axes: (cart. coord. in units 2 pi/alat)
               b(1) = (  1.000000  0.000000  0.000000 )  
               b(2) = (  0.000000  1.000000  0.000000 )  
               b(3) = (  0.000000  0.000000  1.000000 )  


     PseudoPot. # 1 for Cr read from file:
     ../../../../pseudo/Cr.rel-pbe-spn-kjpaw_psl.1.0.0.UPF
     MD5 check sum: 1e24e2b5251376a8b945118fca0c7981
     Pseudo is Projector augmented-wave + core cor, Zval = 14.0
     Generated using &quot;atomic&quot; code by A. Dal Corso  v.6.3
     Shape of augmentation charge: PSQ
     Using radial grid of 1183 points, 10 beta functions with: 
                l(1) =   0
                l(2) =   0
                l(3) =   1
                l(4) =   1
                l(5) =   1
                l(6) =   1
                l(7) =   2
                l(8) =   2
                l(9) =   2
               l(10) =   2
     Q(r) pseudized with 0 coefficients 


     PseudoPot. # 2 for Si read from file:
     ../../../../pseudo/Si.rel-pbe-n-kjpaw_psl.1.0.0.UPF
     MD5 check sum: d74f6caf6830ea4c2076867160cab1b0
     Pseudo is Projector augmented-wave + core cor, Zval =  4.0
     Generated using &quot;atomic&quot; code by A. Dal Corso  v.6.3
     Shape of augmentation charge: PSQ
     Using radial grid of 1141 points, 10 beta functions with: 
                l(1) =   0
                l(2) =   0
                l(3) =   1
                l(4) =   1
                l(5) =   1
                l(6) =   1
                l(7) =   2
                l(8) =   2
                l(9) =   2
               l(10) =   2
     Q(r) pseudized with 0 coefficients 


     atomic species   valence    mass     pseudopotential
        Cr            14.00    51.99600     Cr( 1.00)
        Si             4.00    28.08500     Si( 1.00)

     12 Sym. Ops. (no inversion) found ( 9 have fractional translation)


                                    s                        frac. trans.

      isym =  1     identity                                     

 cryst.   s( 1) = (     1          0          0      )
                  (     0          1          0      )
                  (     0          0          1      )

 cart.    s( 1) = (  1.0000000  0.0000000  0.0000000 )
                  (  0.0000000  1.0000000  0.0000000 )
                  (  0.0000000  0.0000000  1.0000000 )


      isym =  2     180 deg rotation - cart. axis [0,0,1]        

 cryst.   s( 2) = (    -1          0          0      )    f =(  0.5000000 )
                  (     0         -1          0      )       (  0.0000000 )
                  (     0          0          1      )       ( -0.5000000 )

 cart.    s( 2) = ( -1.0000000  0.0000000  0.0000000 )    f =(  0.5000000 )
                  (  0.0000000 -1.0000000  0.0000000 )       (  0.0000000 )
                  (  0.0000000  0.0000000  1.0000000 )       ( -0.5000000 )


      isym =  3     180 deg rotation - cart. axis [0,1,0]        

 cryst.   s( 3) = (    -1          0          0      )    f =(  0.0000000 )
                  (     0          1          0      )       ( -0.5000000 )
                  (     0          0         -1      )       (  0.5000000 )

 cart.    s( 3) = ( -1.0000000  0.0000000  0.0000000 )    f =(  0.0000000 )
                  (  0.0000000  1.0000000  0.0000000 )       ( -0.5000000 )
                  (  0.0000000  0.0000000 -1.0000000 )       (  0.5000000 )


      isym =  4     180 deg rotation - cart. axis [1,0,0]        

 cryst.   s( 4) = (     1          0          0      )    f =(  0.5000000 )
                  (     0         -1          0      )       (  0.5000000 )
                  (     0          0         -1      )       (  0.0000000 )

 cart.    s( 4) = (  1.0000000  0.0000000  0.0000000 )    f =(  0.5000000 )
                  (  0.0000000 -1.0000000  0.0000000 )       (  0.5000000 )
                  (  0.0000000  0.0000000 -1.0000000 )       (  0.0000000 )


      isym =  5     120 deg rotation - cart. axis [-1,-1,-1]     

 cryst.   s( 5) = (     0          0          1      )
                  (     1          0          0      )
                  (     0          1          0      )

 cart.    s( 5) = (  0.0000000  1.0000000  0.0000000 )
                  (  0.0000000  0.0000000  1.0000000 )
                  (  1.0000000  0.0000000  0.0000000 )


      isym =  6     120 deg rotation - cart. axis [-1,1,1]       

 cryst.   s( 6) = (     0          0         -1      )    f =(  0.0000000 )
                  (    -1          0          0      )       ( -0.5000000 )
                  (     0          1          0      )       (  0.5000000 )

 cart.    s( 6) = (  0.0000000 -1.0000000  0.0000000 )    f =(  0.0000000 )
                  (  0.0000000  0.0000000  1.0000000 )       ( -0.5000000 )
                  ( -1.0000000  0.0000000  0.0000000 )       (  0.5000000 )


      isym =  7     120 deg rotation - cart. axis [1,1,-1]       

 cryst.   s( 7) = (     0          0         -1      )    f =(  0.5000000 )
                  (     1          0          0      )       (  0.5000000 )
                  (     0         -1          0      )       (  0.0000000 )

 cart.    s( 7) = (  0.0000000  1.0000000  0.0000000 )    f =(  0.5000000 )
                  (  0.0000000  0.0000000 -1.0000000 )       (  0.5000000 )
                  ( -1.0000000  0.0000000  0.0000000 )       (  0.0000000 )


      isym =  8     120 deg rotation - cart. axis [1,-1,1]       

 cryst.   s( 8) = (     0          0          1      )    f =(  0.5000000 )
                  (    -1          0          0      )       (  0.0000000 )
                  (     0         -1          0      )       ( -0.5000000 )

 cart.    s( 8) = (  0.0000000 -1.0000000  0.0000000 )    f =(  0.5000000 )
                  (  0.0000000  0.0000000 -1.0000000 )       (  0.0000000 )
                  (  1.0000000  0.0000000  0.0000000 )       ( -0.5000000 )


      isym =  9     120 deg rotation - cart. axis [1,1,1]        

 cryst.   s( 9) = (     0          1          0      )
                  (     0          0          1      )
                  (     1          0          0      )

 cart.    s( 9) = (  0.0000000  0.0000000  1.0000000 )
                  (  1.0000000  0.0000000  0.0000000 )
                  (  0.0000000  1.0000000  0.0000000 )


      isym = 10     120 deg rotation - cart. axis [-1,1,-1]      

 cryst.   s(10) = (     0         -1          0      )    f =(  0.5000000 )
                  (     0          0         -1      )       (  0.5000000 )
                  (     1          0          0      )       (  0.0000000 )

 cart.    s(10) = (  0.0000000  0.0000000  1.0000000 )    f =(  0.5000000 )
                  ( -1.0000000  0.0000000  0.0000000 )       (  0.5000000 )
                  (  0.0000000 -1.0000000  0.0000000 )       (  0.0000000 )


      isym = 11     120 deg rotation - cart. axis [1,-1,-1]      

 cryst.   s(11) = (     0         -1          0      )    f =(  0.5000000 )
                  (     0          0          1      )       (  0.0000000 )
                  (    -1          0          0      )       ( -0.5000000 )

 cart.    s(11) = (  0.0000000  0.0000000 -1.0000000 )    f =(  0.5000000 )
                  ( -1.0000000  0.0000000  0.0000000 )       (  0.0000000 )
                  (  0.0000000  1.0000000  0.0000000 )       ( -0.5000000 )


      isym = 12     120 deg rotation - cart. axis [-1,-1,1]      

 cryst.   s(12) = (     0          1          0      )    f =(  0.0000000 )
                  (     0          0         -1      )       ( -0.5000000 )
                  (    -1          0          0      )       (  0.5000000 )

 cart.    s(12) = (  0.0000000  0.0000000 -1.0000000 )    f =(  0.0000000 )
                  (  1.0000000  0.0000000  0.0000000 )       ( -0.5000000 )
                  (  0.0000000 -1.0000000  0.0000000 )       (  0.5000000 )


   Cartesian axes

     site n.     atom                  positions (alat units)
         1           Cr  tau(   1) = (   0.8640000   0.3640000   0.1360000  )
         2           Cr  tau(   2) = (   0.3640000   0.1360000   0.8640000  )
         3           Cr  tau(   3) = (   0.1360000   0.8640000   0.3640000  )
         4           Cr  tau(   4) = (   0.6360000   0.6360000   0.6360000  )
         5           Si  tau(   5) = (   0.1540000   0.6540000   0.8460000  )
         6           Si  tau(   6) = (   0.6540000   0.8460000   0.1540000  )
         7           Si  tau(   7) = (   0.8460000   0.1540000   0.6540000  )
         8           Si  tau(   8) = (   0.3460000   0.3460000   0.3460000  )

   Crystallographic axes

     site n.     atom                  positions (cryst. coord.)
         1           Cr  tau(   1) = (  0.8640000  0.3640000  0.1360000  )
         2           Cr  tau(   2) = (  0.3640000  0.1360000  0.8640000  )
         3           Cr  tau(   3) = (  0.1360000  0.8640000  0.3640000  )
         4           Cr  tau(   4) = (  0.6360000  0.6360000  0.6360000  )
         5           Si  tau(   5) = (  0.1540000  0.6540000  0.8460000  )
         6           Si  tau(   6) = (  0.6540000  0.8460000  0.1540000  )
         7           Si  tau(   7) = (  0.8460000  0.1540000  0.6540000  )
         8           Si  tau(   8) = (  0.3460000  0.3460000  0.3460000  )

     number of k points=   119  Methfessel-Paxton smearing, width (Ry)=  0.0140
                       cart. coord. in units 2pi/alat
        k(    1) = (   0.0000000   0.0000000   0.0000000), wk =   0.0005787
        k(    2) = (   0.0000000   0.0000000   0.0833333), wk =   0.0034722
        k(    3) = (   0.0000000   0.0000000   0.1666667), wk =   0.0034722
        k(    4) = (   0.0000000   0.0000000   0.2500000), wk =   0.0034722
        k(    5) = (   0.0000000   0.0000000   0.3333333), wk =   0.0034722
        k(    6) = (   0.0000000   0.0000000   0.4166667), wk =   0.0034722
        k(    7) = (   0.0000000   0.0000000  -0.5000000), wk =   0.0017361
        k(    8) = (   0.0000000   0.0833333   0.0833333), wk =   0.0069444
        k(    9) = (   0.0000000   0.0833333   0.1666667), wk =   0.0069444
        k(   10) = (   0.0000000   0.0833333   0.2500000), wk =   0.0069444
        k(   11) = (   0.0000000   0.0833333   0.3333333), wk =   0.0069444
        k(   12) = (   0.0000000   0.0833333   0.4166667), wk =   0.0069444
        k(   13) = (   0.0000000   0.0833333  -0.5000000), wk =   0.0034722
        k(   14) = (   0.0000000   0.1666667   0.1666667), wk =   0.0069444
        k(   15) = (   0.0000000   0.1666667   0.2500000), wk =   0.0069444
        k(   16) = (   0.0000000   0.1666667   0.3333333), wk =   0.0069444
        k(   17) = (   0.0000000   0.1666667   0.4166667), wk =   0.0069444
        k(   18) = (   0.0000000   0.1666667  -0.5000000), wk =   0.0034722
        k(   19) = (   0.0000000   0.2500000   0.2500000), wk =   0.0069444
        k(   20) = (   0.0000000   0.2500000   0.3333333), wk =   0.0069444
        k(   21) = (   0.0000000   0.2500000   0.4166667), wk =   0.0069444
        k(   22) = (   0.0000000   0.2500000  -0.5000000), wk =   0.0034722
        k(   23) = (   0.0000000   0.3333333   0.3333333), wk =   0.0069444
        k(   24) = (   0.0000000   0.3333333   0.4166667), wk =   0.0069444
        k(   25) = (   0.0000000   0.3333333  -0.5000000), wk =   0.0034722
        k(   26) = (   0.0000000   0.4166667   0.4166667), wk =   0.0069444
        k(   27) = (   0.0000000   0.4166667  -0.5000000), wk =   0.0034722
        k(   28) = (   0.0000000  -0.5000000  -0.5000000), wk =   0.0017361
        k(   29) = (   0.0833333   0.0833333   0.0833333), wk =   0.0046296
        k(   30) = (   0.0833333   0.0833333   0.1666667), wk =   0.0138889
        k(   31) = (   0.0833333   0.0833333   0.2500000), wk =   0.0138889
        k(   32) = (   0.0833333   0.0833333   0.3333333), wk =   0.0138889
        k(   33) = (   0.0833333   0.0833333   0.4166667), wk =   0.0138889
        k(   34) = (   0.0833333   0.0833333  -0.5000000), wk =   0.0069444
        k(   35) = (   0.0833333   0.1666667   0.1666667), wk =   0.0138889
        k(   36) = (   0.0833333   0.1666667   0.2500000), wk =   0.0138889
        k(   37) = (   0.0833333   0.1666667   0.3333333), wk =   0.0138889
        k(   38) = (   0.0833333   0.1666667   0.4166667), wk =   0.0138889
        k(   39) = (   0.0833333   0.1666667  -0.5000000), wk =   0.0069444
        k(   40) = (   0.0833333   0.2500000   0.2500000), wk =   0.0138889
        k(   41) = (   0.0833333   0.2500000   0.3333333), wk =   0.0138889
        k(   42) = (   0.0833333   0.2500000   0.4166667), wk =   0.0138889
        k(   43) = (   0.0833333   0.2500000  -0.5000000), wk =   0.0069444
        k(   44) = (   0.0833333   0.3333333   0.3333333), wk =   0.0138889
        k(   45) = (   0.0833333   0.3333333   0.4166667), wk =   0.0138889
        k(   46) = (   0.0833333   0.3333333  -0.5000000), wk =   0.0069444
        k(   47) = (   0.0833333   0.4166667   0.4166667), wk =   0.0138889
        k(   48) = (   0.0833333   0.4166667  -0.5000000), wk =   0.0069444
        k(   49) = (   0.0833333  -0.5000000  -0.5000000), wk =   0.0034722
        k(   50) = (   0.1666667   0.1666667   0.1666667), wk =   0.0046296
        k(   51) = (   0.1666667   0.1666667   0.2500000), wk =   0.0138889
        k(   52) = (   0.1666667   0.1666667   0.3333333), wk =   0.0138889
        k(   53) = (   0.1666667   0.1666667   0.4166667), wk =   0.0138889
        k(   54) = (   0.1666667   0.1666667  -0.5000000), wk =   0.0069444
        k(   55) = (   0.1666667   0.2500000   0.2500000), wk =   0.0138889
        k(   56) = (   0.1666667   0.2500000   0.3333333), wk =   0.0138889
        k(   57) = (   0.1666667   0.2500000   0.4166667), wk =   0.0138889
        k(   58) = (   0.1666667   0.2500000  -0.5000000), wk =   0.0069444
        k(   59) = (   0.1666667   0.3333333   0.3333333), wk =   0.0138889
        k(   60) = (   0.1666667   0.3333333   0.4166667), wk =   0.0138889
        k(   61) = (   0.1666667   0.3333333  -0.5000000), wk =   0.0069444
        k(   62) = (   0.1666667   0.4166667   0.4166667), wk =   0.0138889
        k(   63) = (   0.1666667   0.4166667  -0.5000000), wk =   0.0069444
        k(   64) = (   0.1666667  -0.5000000  -0.5000000), wk =   0.0034722
        k(   65) = (   0.2500000   0.2500000   0.2500000), wk =   0.0046296
        k(   66) = (   0.2500000   0.2500000   0.3333333), wk =   0.0138889
        k(   67) = (   0.2500000   0.2500000   0.4166667), wk =   0.0138889
        k(   68) = (   0.2500000   0.2500000  -0.5000000), wk =   0.0069444
        k(   69) = (   0.2500000   0.3333333   0.3333333), wk =   0.0138889
        k(   70) = (   0.2500000   0.3333333   0.4166667), wk =   0.0138889
        k(   71) = (   0.2500000   0.3333333  -0.5000000), wk =   0.0069444
        k(   72) = (   0.2500000   0.4166667   0.4166667), wk =   0.0138889
        k(   73) = (   0.2500000   0.4166667  -0.5000000), wk =   0.0069444
        k(   74) = (   0.2500000  -0.5000000  -0.5000000), wk =   0.0034722
        k(   75) = (   0.3333333   0.3333333   0.3333333), wk =   0.0046296
        k(   76) = (   0.3333333   0.3333333   0.4166667), wk =   0.0138889
        k(   77) = (   0.3333333   0.3333333  -0.5000000), wk =   0.0069444
        k(   78) = (   0.3333333   0.4166667   0.4166667), wk =   0.0138889
        k(   79) = (   0.3333333   0.4166667  -0.5000000), wk =   0.0069444
        k(   80) = (   0.3333333  -0.5000000  -0.5000000), wk =   0.0034722
        k(   81) = (   0.4166667   0.4166667   0.4166667), wk =   0.0046296
        k(   82) = (   0.4166667   0.4166667  -0.5000000), wk =   0.0069444
        k(   83) = (   0.4166667  -0.5000000  -0.5000000), wk =   0.0034722
        k(   84) = (  -0.5000000  -0.5000000  -0.5000000), wk =   0.0005787
        k(   85) = (   0.0000000   0.1666667   0.0833333), wk =   0.0069444
        k(   86) = (   0.0000000   0.2500000   0.0833333), wk =   0.0069444
        k(   87) = (   0.0000000   0.3333333   0.0833333), wk =   0.0069444
        k(   88) = (   0.0000000   0.4166667   0.0833333), wk =   0.0069444
        k(   89) = (   0.0000000  -0.5000000   0.0833333), wk =   0.0034722
        k(   90) = (   0.0000000   0.2500000   0.1666667), wk =   0.0069444
        k(   91) = (   0.0000000   0.3333333   0.1666667), wk =   0.0069444
        k(   92) = (   0.0000000   0.4166667   0.1666667), wk =   0.0069444
        k(   93) = (   0.0000000  -0.5000000   0.1666667), wk =   0.0034722
        k(   94) = (   0.0000000   0.3333333   0.2500000), wk =   0.0069444
        k(   95) = (   0.0000000   0.4166667   0.2500000), wk =   0.0069444
        k(   96) = (   0.0000000  -0.5000000   0.2500000), wk =   0.0034722
        k(   97) = (   0.0000000   0.4166667   0.3333333), wk =   0.0069444
        k(   98) = (   0.0000000  -0.5000000   0.3333333), wk =   0.0034722
        k(   99) = (   0.0000000  -0.5000000   0.4166667), wk =   0.0034722
        k(  100) = (  -0.0833333   0.2500000   0.1666667), wk =   0.0138889
        k(  101) = (  -0.0833333   0.3333333   0.1666667), wk =   0.0138889
        k(  102) = (  -0.0833333   0.4166667   0.1666667), wk =   0.0138889
        k(  103) = (  -0.0833333  -0.5000000   0.1666667), wk =   0.0069444
        k(  104) = (  -0.0833333   0.3333333   0.2500000), wk =   0.0138889
        k(  105) = (  -0.0833333   0.4166667   0.2500000), wk =   0.0138889
        k(  106) = (  -0.0833333  -0.5000000   0.2500000), wk =   0.0069444
        k(  107) = (  -0.0833333   0.4166667   0.3333333), wk =   0.0138889
        k(  108) = (  -0.0833333  -0.5000000   0.3333333), wk =   0.0069444
        k(  109) = (  -0.0833333  -0.5000000   0.4166667), wk =   0.0069444
        k(  110) = (  -0.1666667   0.3333333   0.2500000), wk =   0.0138889
        k(  111) = (  -0.1666667   0.4166667   0.2500000), wk =   0.0138889
        k(  112) = (  -0.1666667  -0.5000000   0.2500000), wk =   0.0069444
        k(  113) = (  -0.1666667   0.4166667   0.3333333), wk =   0.0138889
        k(  114) = (  -0.1666667  -0.5000000   0.3333333), wk =   0.0069444
        k(  115) = (  -0.1666667  -0.5000000   0.4166667), wk =   0.0069444
        k(  116) = (  -0.2500000   0.4166667   0.3333333), wk =   0.0138889
        k(  117) = (  -0.2500000  -0.5000000   0.3333333), wk =   0.0069444
        k(  118) = (  -0.2500000  -0.5000000   0.4166667), wk =   0.0069444
        k(  119) = (  -0.3333333  -0.5000000   0.4166667), wk =   0.0069444

                       cryst. coord.
        k(    1) = (   0.0000000   0.0000000   0.0000000), wk =   0.0005787
        k(    2) = (   0.0000000   0.0000000   0.0833333), wk =   0.0034722
        k(    3) = (   0.0000000   0.0000000   0.1666667), wk =   0.0034722
        k(    4) = (   0.0000000   0.0000000   0.2500000), wk =   0.0034722
        k(    5) = (   0.0000000   0.0000000   0.3333333), wk =   0.0034722
        k(    6) = (   0.0000000   0.0000000   0.4166667), wk =   0.0034722
        k(    7) = (   0.0000000   0.0000000  -0.5000000), wk =   0.0017361
        k(    8) = (   0.0000000   0.0833333   0.0833333), wk =   0.0069444
        k(    9) = (   0.0000000   0.0833333   0.1666667), wk =   0.0069444
        k(   10) = (   0.0000000   0.0833333   0.2500000), wk =   0.0069444
        k(   11) = (   0.0000000   0.0833333   0.3333333), wk =   0.0069444
        k(   12) = (   0.0000000   0.0833333   0.4166667), wk =   0.0069444
        k(   13) = (   0.0000000   0.0833333  -0.5000000), wk =   0.0034722
        k(   14) = (   0.0000000   0.1666667   0.1666667), wk =   0.0069444
        k(   15) = (   0.0000000   0.1666667   0.2500000), wk =   0.0069444
        k(   16) = (   0.0000000   0.1666667   0.3333333), wk =   0.0069444
        k(   17) = (   0.0000000   0.1666667   0.4166667), wk =   0.0069444
        k(   18) = (   0.0000000   0.1666667  -0.5000000), wk =   0.0034722
        k(   19) = (   0.0000000   0.2500000   0.2500000), wk =   0.0069444
        k(   20) = (   0.0000000   0.2500000   0.3333333), wk =   0.0069444
        k(   21) = (   0.0000000   0.2500000   0.4166667), wk =   0.0069444
        k(   22) = (   0.0000000   0.2500000  -0.5000000), wk =   0.0034722
        k(   23) = (   0.0000000   0.3333333   0.3333333), wk =   0.0069444
        k(   24) = (   0.0000000   0.3333333   0.4166667), wk =   0.0069444
        k(   25) = (   0.0000000   0.3333333  -0.5000000), wk =   0.0034722
        k(   26) = (   0.0000000   0.4166667   0.4166667), wk =   0.0069444
        k(   27) = (   0.0000000   0.4166667  -0.5000000), wk =   0.0034722
        k(   28) = (   0.0000000  -0.5000000  -0.5000000), wk =   0.0017361
        k(   29) = (   0.0833333   0.0833333   0.0833333), wk =   0.0046296
        k(   30) = (   0.0833333   0.0833333   0.1666667), wk =   0.0138889
        k(   31) = (   0.0833333   0.0833333   0.2500000), wk =   0.0138889
        k(   32) = (   0.0833333   0.0833333   0.3333333), wk =   0.0138889
        k(   33) = (   0.0833333   0.0833333   0.4166667), wk =   0.0138889
        k(   34) = (   0.0833333   0.0833333  -0.5000000), wk =   0.0069444
        k(   35) = (   0.0833333   0.1666667   0.1666667), wk =   0.0138889
        k(   36) = (   0.0833333   0.1666667   0.2500000), wk =   0.0138889
        k(   37) = (   0.0833333   0.1666667   0.3333333), wk =   0.0138889
        k(   38) = (   0.0833333   0.1666667   0.4166667), wk =   0.0138889
        k(   39) = (   0.0833333   0.1666667  -0.5000000), wk =   0.0069444
        k(   40) = (   0.0833333   0.2500000   0.2500000), wk =   0.0138889
        k(   41) = (   0.0833333   0.2500000   0.3333333), wk =   0.0138889
        k(   42) = (   0.0833333   0.2500000   0.4166667), wk =   0.0138889
        k(   43) = (   0.0833333   0.2500000  -0.5000000), wk =   0.0069444
        k(   44) = (   0.0833333   0.3333333   0.3333333), wk =   0.0138889
        k(   45) = (   0.0833333   0.3333333   0.4166667), wk =   0.0138889
        k(   46) = (   0.0833333   0.3333333  -0.5000000), wk =   0.0069444
        k(   47) = (   0.0833333   0.4166667   0.4166667), wk =   0.0138889
        k(   48) = (   0.0833333   0.4166667  -0.5000000), wk =   0.0069444
        k(   49) = (   0.0833333  -0.5000000  -0.5000000), wk =   0.0034722
        k(   50) = (   0.1666667   0.1666667   0.1666667), wk =   0.0046296
        k(   51) = (   0.1666667   0.1666667   0.2500000), wk =   0.0138889
        k(   52) = (   0.1666667   0.1666667   0.3333333), wk =   0.0138889
        k(   53) = (   0.1666667   0.1666667   0.4166667), wk =   0.0138889
        k(   54) = (   0.1666667   0.1666667  -0.5000000), wk =   0.0069444
        k(   55) = (   0.1666667   0.2500000   0.2500000), wk =   0.0138889
        k(   56) = (   0.1666667   0.2500000   0.3333333), wk =   0.0138889
        k(   57) = (   0.1666667   0.2500000   0.4166667), wk =   0.0138889
        k(   58) = (   0.1666667   0.2500000  -0.5000000), wk =   0.0069444
        k(   59) = (   0.1666667   0.3333333   0.3333333), wk =   0.0138889
        k(   60) = (   0.1666667   0.3333333   0.4166667), wk =   0.0138889
        k(   61) = (   0.1666667   0.3333333  -0.5000000), wk =   0.0069444
        k(   62) = (   0.1666667   0.4166667   0.4166667), wk =   0.0138889
        k(   63) = (   0.1666667   0.4166667  -0.5000000), wk =   0.0069444
        k(   64) = (   0.1666667  -0.5000000  -0.5000000), wk =   0.0034722
        k(   65) = (   0.2500000   0.2500000   0.2500000), wk =   0.0046296
        k(   66) = (   0.2500000   0.2500000   0.3333333), wk =   0.0138889
        k(   67) = (   0.2500000   0.2500000   0.4166667), wk =   0.0138889
        k(   68) = (   0.2500000   0.2500000  -0.5000000), wk =   0.0069444
        k(   69) = (   0.2500000   0.3333333   0.3333333), wk =   0.0138889
        k(   70) = (   0.2500000   0.3333333   0.4166667), wk =   0.0138889
        k(   71) = (   0.2500000   0.3333333  -0.5000000), wk =   0.0069444
        k(   72) = (   0.2500000   0.4166667   0.4166667), wk =   0.0138889
        k(   73) = (   0.2500000   0.4166667  -0.5000000), wk =   0.0069444
        k(   74) = (   0.2500000  -0.5000000  -0.5000000), wk =   0.0034722
        k(   75) = (   0.3333333   0.3333333   0.3333333), wk =   0.0046296
        k(   76) = (   0.3333333   0.3333333   0.4166667), wk =   0.0138889
        k(   77) = (   0.3333333   0.3333333  -0.5000000), wk =   0.0069444
        k(   78) = (   0.3333333   0.4166667   0.4166667), wk =   0.0138889
        k(   79) = (   0.3333333   0.4166667  -0.5000000), wk =   0.0069444
        k(   80) = (   0.3333333  -0.5000000  -0.5000000), wk =   0.0034722
        k(   81) = (   0.4166667   0.4166667   0.4166667), wk =   0.0046296
        k(   82) = (   0.4166667   0.4166667  -0.5000000), wk =   0.0069444
        k(   83) = (   0.4166667  -0.5000000  -0.5000000), wk =   0.0034722
        k(   84) = (  -0.5000000  -0.5000000  -0.5000000), wk =   0.0005787
        k(   85) = (   0.0000000   0.1666667   0.0833333), wk =   0.0069444
        k(   86) = (   0.0000000   0.2500000   0.0833333), wk =   0.0069444
        k(   87) = (   0.0000000   0.3333333   0.0833333), wk =   0.0069444
        k(   88) = (   0.0000000   0.4166667   0.0833333), wk =   0.0069444
        k(   89) = (   0.0000000  -0.5000000   0.0833333), wk =   0.0034722
        k(   90) = (   0.0000000   0.2500000   0.1666667), wk =   0.0069444
        k(   91) = (   0.0000000   0.3333333   0.1666667), wk =   0.0069444
        k(   92) = (   0.0000000   0.4166667   0.1666667), wk =   0.0069444
        k(   93) = (   0.0000000  -0.5000000   0.1666667), wk =   0.0034722
        k(   94) = (   0.0000000   0.3333333   0.2500000), wk =   0.0069444
        k(   95) = (   0.0000000   0.4166667   0.2500000), wk =   0.0069444
        k(   96) = (   0.0000000  -0.5000000   0.2500000), wk =   0.0034722
        k(   97) = (   0.0000000   0.4166667   0.3333333), wk =   0.0069444
        k(   98) = (   0.0000000  -0.5000000   0.3333333), wk =   0.0034722
        k(   99) = (   0.0000000  -0.5000000   0.4166667), wk =   0.0034722
        k(  100) = (  -0.0833333   0.2500000   0.1666667), wk =   0.0138889
        k(  101) = (  -0.0833333   0.3333333   0.1666667), wk =   0.0138889
        k(  102) = (  -0.0833333   0.4166667   0.1666667), wk =   0.0138889
        k(  103) = (  -0.0833333  -0.5000000   0.1666667), wk =   0.0069444
        k(  104) = (  -0.0833333   0.3333333   0.2500000), wk =   0.0138889
        k(  105) = (  -0.0833333   0.4166667   0.2500000), wk =   0.0138889
        k(  106) = (  -0.0833333  -0.5000000   0.2500000), wk =   0.0069444
        k(  107) = (  -0.0833333   0.4166667   0.3333333), wk =   0.0138889
        k(  108) = (  -0.0833333  -0.5000000   0.3333333), wk =   0.0069444
        k(  109) = (  -0.0833333  -0.5000000   0.4166667), wk =   0.0069444
        k(  110) = (  -0.1666667   0.3333333   0.2500000), wk =   0.0138889
        k(  111) = (  -0.1666667   0.4166667   0.2500000), wk =   0.0138889
        k(  112) = (  -0.1666667  -0.5000000   0.2500000), wk =   0.0069444
        k(  113) = (  -0.1666667   0.4166667   0.3333333), wk =   0.0138889
        k(  114) = (  -0.1666667  -0.5000000   0.3333333), wk =   0.0069444
        k(  115) = (  -0.1666667  -0.5000000   0.4166667), wk =   0.0069444
        k(  116) = (  -0.2500000   0.4166667   0.3333333), wk =   0.0138889
        k(  117) = (  -0.2500000  -0.5000000   0.3333333), wk =   0.0069444
        k(  118) = (  -0.2500000  -0.5000000   0.4166667), wk =   0.0069444
        k(  119) = (  -0.3333333  -0.5000000   0.4166667), wk =   0.0069444

     Dense  grid:   304867 G-vectors     FFT dimensions: (  90,  90,  90)

     Smooth grid:    77053 G-vectors     FFT dimensions: (  54,  54,  54)

     Dynamical RAM for                 wfc:       1.06 MB

     Dynamical RAM for     wfc (w. buffer):     126.61 MB

     Dynamical RAM for           str. fact:       0.39 MB

     Dynamical RAM for           local pot:       0.00 MB

     Dynamical RAM for          nlocal pot:       1.67 MB

     Dynamical RAM for                qrad:      12.61 MB

     Dynamical RAM for          rho,v,vnew:       5.29 MB

     Dynamical RAM for               rhoin:       1.76 MB

     Dynamical RAM for            rho*nmix:      12.41 MB

     Dynamical RAM for           G-vectors:       0.75 MB

     Dynamical RAM for          h,s,v(r/c):       1.35 MB

     Dynamical RAM for          <psi|beta>:       0.71 MB

     Dynamical RAM for                 psi:       2.11 MB

     Dynamical RAM for                hpsi:       2.11 MB

     Dynamical RAM for                spsi:       2.11 MB

     Dynamical RAM for      wfcinit/wfcrot:       2.35 MB

     Dynamical RAM for           addusdens:     119.02 MB

     Dynamical RAM for          addusforce:     120.34 MB

     Dynamical RAM for         addusstress:     121.74 MB

     Estimated static dynamical RAM per process >     164.04 MB

     Estimated max dynamical RAM per process >     285.78 MB

     Estimated total dynamical RAM >       6.70 GB

     Initial potential from superposition of free atoms

     starting charge   71.99469, renormalised to   72.00000
     Starting wfcs are  112 randomized atomic wfcs
     Checking if some PAW data can be deallocated... 
       PAW data deallocated on   12 nodes for type:  1
       PAW data deallocated on   12 nodes for type:  2

     total cpu time spent up to now is       21.1 secs

     Self-consistent Calculation

     iteration #  1     ecut=    90.00 Ry     beta= 0.70
     Davidson diagonalization with overlap
     ethr =  1.00E-02,  avg # of iterations =  2.0

     Threshold (ethr) on eigenvalues was too large:
     Diagonalizing with lowered threshold

     Davidson diagonalization with overlap
     ethr =  2.09E-04,  avg # of iterations =  4.3

     total cpu time spent up to now is      134.9 secs

     total energy              =   -1180.30971911 Ry
     estimated scf accuracy    <       0.18921601 Ry

     iteration #  2     ecut=    90.00 Ry     beta= 0.70
     Davidson diagonalization with overlap
     ethr =  2.63E-04,  avg # of iterations =  3.2

     total cpu time spent up to now is      192.4 secs

     total energy              =   -1180.31479078 Ry
     estimated scf accuracy    <       0.08083769 Ry

     iteration #  3     ecut=    90.00 Ry     beta= 0.70
     Davidson diagonalization with overlap
     ethr =  1.12E-04,  avg # of iterations =  5.0

     total cpu time spent up to now is      262.7 secs

     total energy              =   -1180.32599189 Ry
     estimated scf accuracy    <       0.16189052 Ry

     iteration #  4     ecut=    90.00 Ry     beta= 0.70
     Davidson diagonalization with overlap
     ethr =  1.12E-04,  avg # of iterations =  4.1

     total cpu time spent up to now is      319.3 secs

     total energy              =   -1180.34980031 Ry
     estimated scf accuracy    <       0.00032571 Ry

     iteration #  5     ecut=    90.00 Ry     beta= 0.70
     Davidson diagonalization with overlap
     ethr =  4.52E-07,  avg # of iterations =  8.1

     total cpu time spent up to now is      406.4 secs

     total energy              =   -1180.35041733 Ry
     estimated scf accuracy    <       0.00031550 Ry

     iteration #  6     ecut=    90.00 Ry     beta= 0.70
     Davidson diagonalization with overlap
     ethr =  4.38E-07,  avg # of iterations =  2.6

     total cpu time spent up to now is      455.2 secs

     total energy              =   -1180.35046676 Ry
     estimated scf accuracy    <       0.00000501 Ry

     iteration #  7     ecut=    90.00 Ry     beta= 0.70
     Davidson diagonalization with overlap
     ethr =  6.95E-09,  avg # of iterations =  6.2

     total cpu time spent up to now is      531.0 secs

     total energy              =   -1180.35047034 Ry
     estimated scf accuracy    <       0.00003725 Ry

     iteration #  8     ecut=    90.00 Ry     beta= 0.70
     Davidson diagonalization with overlap
     ethr =  6.95E-09,  avg # of iterations =  5.0

     total cpu time spent up to now is      602.9 secs

     End of self-consistent calculation

          k = 0.0000 0.0000 0.0000 (  9771 PWs)   bands (ev):

   -56.5154 -56.5154 -56.4807 -56.4807 -56.4807 -56.4807 -56.4807 -56.4807
   -28.5810 -28.5810 -28.5733 -28.5733 -28.5733 -28.5733 -28.4840 -28.4840
   -27.6160 -27.6160 -27.6160 -27.6160 -27.5391 -27.5391 -27.5391 -27.5391
   -27.5324 -27.5324 -27.4504 -27.4504 -27.4504 -27.4504 -27.4497 -27.4497
     2.6986   2.6986   7.4569   7.4569   7.4569   7.4569   7.4661   7.4661
    10.5369  10.5369  10.5448  10.5448  10.5448  10.5448  11.9118  11.9118
    11.9118  11.9118  11.9229  11.9229  12.6030  12.6030  12.7721  12.7721
    12.7721  12.7721  13.1433  13.1433  13.1433  13.1433  13.1444  13.1444
    13.6714  13.6714  13.6714  13.6714  13.6752  13.6752  15.5517  15.5517
    15.5830  15.5830  15.5830  15.5830  15.7652  15.7652  15.7652  15.7652
    16.6658  16.6658  16.6961  16.6961  16.6961  16.6961

     occupation numbers 
     1.0000   1.0000   1.0000   1.0000   1.0000   1.0000   1.0000   1.0000
     1.0000   1.0000   1.0000   1.0000   1.0000   1.0000   1.0000   1.0000
     1.0000   1.0000   1.0000   1.0000   1.0000   1.0000   1.0000   1.0000
     1.0000   1.0000   1.0000   1.0000   1.0000   1.0000   1.0000   1.0000
     1.0000   1.0000   1.0000   1.0000   1.0000   1.0000   1.0000   1.0000
     1.0000   1.0000   1.0000   1.0000   1.0000   1.0000   1.0000   1.0000
     1.0000   1.0000   1.0000   1.0000   1.0000   1.0000   1.0000   1.0000
     1.0000   1.0000   1.0000   1.0000   1.0000   1.0000   1.0000   1.0000
     1.0000   1.0000   1.0000   1.0000   1.0000   1.0000  -0.0000  -0.0000
    -0.0000  -0.0000  -0.0000  -0.0000  -0.0000  -0.0000  -0.0000  -0.0000
    -0.0000  -0.0000  -0.0000  -0.0000  -0.0000  -0.0000

          k = 0.0000 0.0000 0.0833 (  9699 PWs)   bands (ev):

   -56.5149 -56.5149 -56.4832 -56.4832 -56.4805 -56.4805 -56.4787 -56.4787
   -28.5853 -28.5781 -28.5776 -28.5753 -28.5697 -28.5670 -28.4852 -28.4852
   -27.6254 -27.6208 -27.6101 -27.6055 -27.5448 -27.5431 -27.5381 -27.5351
   -27.5341 -27.5245 -27.4552 -27.4540 -27.4524 -27.4490 -27.4485 -27.4454
     2.7469   2.7469   7.0339   7.0380   7.4857   7.4866   7.8140   7.8220
    10.2171  10.2227  10.5747  10.5756  10.8835  10.8869  11.4923  11.4943
    11.7822  11.7851  12.3542  12.3683  12.5854  12.5880  12.7665  12.7742
    12.8425  12.8428  13.1204  13.1219  13.1614  13.1619  13.1855  13.1861
    13.5504  13.5557  13.6649  13.6657  13.8254  13.8263  15.4677  15.4903
    15.4958  15.4994  15.6795  15.6987  15.7455  15.7543  15.7577  15.7690
    16.5417  16.5607  16.6631  16.6647  16.8151  16.8352

     occupation numbers 
     1.0000   1.0000   1.0000   1.0000   1.0000   1.0000   1.0000   1.0000
     1.0000   1.0000   1.0000   1.0000   1.0000   1.0000   1.0000   1.0000
     1.0000   1.0000   1.0000   1.0000   1.0000   1.0000   1.0000   1.0000
     1.0000   1.0000   1.0000   1.0000   1.0000   1.0000   1.0000   1.0000
     1.0000   1.0000   1.0000   1.0000   1.0000   1.0000   1.0000   1.0000
     1.0000   1.0000   1.0000   1.0000   1.0000   1.0000   1.0000   1.0000
     1.0000   1.0000   1.0000   1.0000   1.0000   1.0000   1.0000   1.0000
     1.0000   1.0000   1.0000   1.0000   1.0000   1.0000   1.0000   1.0000
     1.0000   1.0000   1.0000   1.0000   1.0000   1.0000  -0.0004  -0.0002
    -0.0002  -0.0002  -0.0000  -0.0000  -0.0000  -0.0000  -0.0000  -0.0000
    -0.0000  -0.0000  -0.0000  -0.0000  -0.0000  -0.0000

          k = 0.0000 0.0000 0.1667 (  9663 PWs)   bands (ev):

   -56.5136 -56.5136 -56.4863 -56.4863 -56.4801 -56.4801 -56.4774 -56.4774
   -28.5887 -28.5815 -28.5776 -28.5770 -28.5628 -28.5595 -28.4890 -28.4889
   -27.6328 -27.6249 -27.6026 -27.5951 -27.5512 -27.5458 -27.5401 -27.5329
   -27.5305 -27.5154 -27.4609 -27.4588 -27.4556 -27.4489 -27.4477 -27.4422
     2.8907   2.8907   6.5401   6.5426   7.5631   7.5650   8.1196   8.1290
     9.9479   9.9521  10.6626  10.6651  11.0721  11.0750  11.2873  11.2881
    11.5005  11.5053  12.4494  12.4597  12.7395  12.7619  12.8029  12.8095
    13.0115  13.0148  13.1074  13.1100  13.1965  13.1986  13.2275  13.2278
    13.5314  13.5415  13.6321  13.6347  13.9633  13.9637  15.2938  15.3147
    15.4171  15.4246  15.6921  15.7016  15.7472  15.7656  15.7922  15.8178
    16.4074  16.4229  16.5957  16.6031  16.9910  17.0116

     occupation numbers 
     1.0000   1.0000   1.0000   1.0000   1.0000   1.0000   1.0000   1.0000
     1.0000   1.0000   1.0000   1.0000   1.0000   1.0000   1.0000   1.0000
     1.0000   1.0000   1.0000   1.0000   1.0000   1.0000   1.0000   1.0000
     1.0000   1.0000   1.0000   1.0000   1.0000   1.0000   1.0000   1.0000
     1.0000   1.0000   1.0000   1.0000   1.0000   1.0000   1.0000   1.0000
     1.0000   1.0000   1.0000   1.0000   1.0000   1.0000   1.0000   1.0000
     1.0000   1.0000   1.0000   1.0000   1.0000   1.0000   1.0000   1.0000
     1.0000   1.0000   1.0000   1.0000   1.0000   1.0000   1.0000   1.0000
     1.0000   1.0000   1.0000   1.0000   1.0000   1.0000  -0.0148  -0.0109
    -0.0015  -0.0013  -0.0000  -0.0000  -0.0000  -0.0000  -0.0000  -0.0000
    -0.0000  -0.0000  -0.0000  -0.0000  -0.0000  -0.0000

          k = 0.0000 0.0000 0.2500 (  9618 PWs)   bands (ev):

   -56.5115 -56.5115 -56.4898 -56.4898 -56.4795 -56.4795 -56.4766 -56.4766
   -28.5907 -28.5835 -28.5804 -28.5779 -28.5539 -28.5509 -28.4950 -28.4948
   -27.6379 -27.6289 -27.5936 -27.5863 -27.5575 -27.5464 -27.5372 -27.5340
   -27.5287 -27.5057 -27.4688 -27.4618 -27.4597 -27.4498 -27.4473 -27.4406
     3.1272   3.1272   5.9919   5.9933   7.6896   7.6925   8.3701   8.3802
     9.7440   9.7453  10.7560  10.7613  10.8661  10.8748  11.1953  11.2026
    11.5683  11.5690  12.2655  12.2804  12.8663  12.8730  12.9123  12.9341
    13.1204  13.1244  13.1290  13.1343  13.2511  13.2517  13.2820  13.2859
    13.5438  13.5472  13.6978  13.7054  14.0464  14.0469  15.0731  15.1017
    15.3802  15.3807  15.6165  15.6317  15.7389  15.7631  15.8515  15.8755
    16.2857  16.3004  16.4938  16.5053  17.1875  17.2080

     occupation numbers 
     1.0000   1.0000   1.0000   1.0000   1.0000   1.0000   1.0000   1.0000
     1.0000   1.0000   1.0000   1.0000   1.0000   1.0000   1.0000   1.0000
     1.0000   1.0000   1.0000   1.0000   1.0000   1.0000   1.0000   1.0000
     1.0000   1.0000   1.0000   1.0000   1.0000   1.0000   1.0000   1.0000
     1.0000   1.0000   1.0000   1.0000   1.0000   1.0000   1.0000   1.0000
     1.0000   1.0000   1.0000   1.0000   1.0000   1.0000   1.0000   1.0000
     1.0000   1.0000   1.0000   1.0000   1.0000   1.0000   1.0000   1.0000
     1.0000   1.0000   1.0000   1.0000   1.0000   1.0000   1.0000   1.0000
     1.0000   1.0000   1.0000   1.0000   1.0000   1.0000   0.0664   0.0148
    -0.0034  -0.0033  -0.0000  -0.0000  -0.0000  -0.0000  -0.0000  -0.0000
    -0.0000  -0.0000  -0.0000  -0.0000  -0.0000  -0.0000

          k = 0.0000 0.0000 0.3333 (  9606 PWs)   bands (ev):

   -56.5087 -56.5087 -56.4936 -56.4936 -56.4787 -56.4787 -56.4764 -56.4764
   -28.5913 -28.5843 -28.5834 -28.5795 -28.5440 -28.5414 -28.5030 -28.5024
   -27.6406 -27.6328 -27.5840 -27.5794 -27.5634 -27.5446 -27.5393 -27.5293
   -27.5291 -27.4961 -27.4791 -27.4649 -27.4620 -27.4516 -27.4466 -27.4405
     3.4512   3.4512   5.4202   5.4210   7.8602   7.8642   8.5098   8.5194
     9.6515   9.6530  10.6593  10.6616  10.7717  10.7841  11.0445  11.0474
    11.8626  11.8646  12.1344  12.1502  12.8383  12.8544  12.9332  12.9427
    13.1139  13.1198  13.1693  13.1745  13.2583  13.2611  13.3939  13.3961
    13.4520  13.4542  13.9157  13.9195  14.1179  14.1247  14.8898  14.9239
    15.3577  15.3661  15.5351  15.5534  15.7434  15.7717  15.8544  15.8785
    16.1949  16.2107  16.3709  16.3845  17.3063  17.3224

     occupation numbers 
     1.0000   1.0000   1.0000   1.0000   1.0000   1.0000   1.0000   1.0000
     1.0000   1.0000   1.0000   1.0000   1.0000   1.0000   1.0000   1.0000
     1.0000   1.0000   1.0000   1.0000   1.0000   1.0000   1.0000   1.0000
     1.0000   1.0000   1.0000   1.0000   1.0000   1.0000   1.0000   1.0000
     1.0000   1.0000   1.0000   1.0000   1.0000   1.0000   1.0000   1.0000
     1.0000   1.0000   1.0000   1.0000   1.0000   1.0000   1.0000   1.0000
     1.0000   1.0000   1.0000   1.0000   1.0000   1.0000   1.0000   1.0000
     1.0000   1.0000   1.0000   1.0000   1.0000   1.0000   1.0000   1.0000
     1.0000   1.0000   1.0000   1.0000   1.0000   1.0000   0.7639   0.6270
    -0.0052  -0.0044  -0.0001  -0.0000  -0.0000  -0.0000  -0.0000  -0.0000
    -0.0000  -0.0000  -0.0000  -0.0000  -0.0000  -0.0000

          k = 0.0000 0.0000 0.4167 (  9666 PWs)   bands (ev):

   -56.5053 -56.5053 -56.4976 -56.4976 -56.4779 -56.4779 -56.4766 -56.4766
   -28.5906 -28.5863 -28.5840 -28.5813 -28.5334 -28.5314 -28.5124 -28.5114
   -27.6410 -27.6366 -27.5775 -27.5704 -27.5684 -27.5480 -27.5409 -27.5321
   -27.5174 -27.4911 -27.4869 -27.4712 -27.4601 -27.4542 -27.4452 -27.4415
     3.8552   3.8553   4.8570   4.8573   8.0649   8.0701   8.4633   8.4714
     9.7543   9.7580  10.3459  10.3483  10.7985  10.8117  11.0008  11.0066
    12.1358  12.1376  12.1478  12.1610  12.6965  12.7117  12.8883  12.9001
    13.0764  13.0808  13.1929  13.1953  13.2274  13.2312  13.2803  13.2837
    13.6257  13.6273  13.9010  13.9051  14.3435  14.3626  14.7374  14.7716
    15.3642  15.3785  15.4605  15.4797  15.7684  15.7985  15.8357  15.8626
    16.1485  16.1637  16.2503  16.2641  17.4014  17.4067

     occupation numbers 
     1.0000   1.0000   1.0000   1.0000   1.0000   1.0000   1.0000   1.0000
     1.0000   1.0000   1.0000   1.0000   1.0000   1.0000   1.0000   1.0000
     1.0000   1.0000   1.0000   1.0000   1.0000   1.0000   1.0000   1.0000
     1.0000   1.0000   1.0000   1.0000   1.0000   1.0000   1.0000   1.0000
     1.0000   1.0000   1.0000   1.0000   1.0000   1.0000   1.0000   1.0000
     1.0000   1.0000   1.0000   1.0000   1.0000   1.0000   1.0000   1.0000
     1.0000   1.0000   1.0000   1.0000   1.0000   1.0000   1.0000   1.0000
     1.0000   1.0000   1.0000   1.0000   1.0000   1.0000   1.0000   1.0000
     1.0000   1.0000   1.0000   1.0000   1.0000   1.0001   1.0339   1.0194
    -0.0046  -0.0035  -0.0005  -0.0003  -0.0000  -0.0000  -0.0000  -0.0000
    -0.0000  -0.0000  -0.0000  -0.0000  -0.0000  -0.0000

          k = 0.0000 0.0000-0.5000 (  9658 PWs)   bands (ev):

   -56.5016 -56.5016 -56.5016 -56.5016 -56.4771 -56.4771 -56.4771 -56.4771
   -28.5888 -28.5888 -28.5829 -28.5829 -28.5227 -28.5227 -28.5212 -28.5212
   -27.6395 -27.6395 -27.5733 -27.5733 -27.5588 -27.5588 -27.5364 -27.5364
   -27.5042 -27.5042 -27.4785 -27.4785 -27.4572 -27.4572 -27.4433 -27.4433
     4.3286   4.3286   4.3288   4.3288   8.2825   8.2825   8.2890   8.2890
    10.0171  10.0171  10.0211  10.0211  10.8981  10.8981  10.9093  10.9093
    12.2473  12.2473  12.2539  12.2539  12.6851  12.6851  12.6975  12.6975
    13.1419  13.1419  13.1423  13.1423  13.2369  13.2369  13.2406  13.2406
    13.7827  13.7827  13.7858  13.7858  14.5657  14.5657  14.5942  14.5942
    15.4009  15.4009  15.4187  15.4187  15.8057  15.8057  15.8355  15.8355
    16.1660  16.1660  16.1797  16.1797  17.5424  17.5434

     occupation numbers 
     1.0000   1.0000   1.0000   1.0000   1.0000   1.0000   1.0000   1.0000
     1.0000   1.0000   1.0000   1.0000   1.0000   1.0000   1.0000   1.0000
     1.0000   1.0000   1.0000   1.0000   1.0000   1.0000   1.0000   1.0000
     1.0000   1.0000   1.0000   1.0000   1.0000   1.0000   1.0000   1.0000
     1.0000   1.0000   1.0000   1.0000   1.0000   1.0000   1.0000   1.0000
     1.0000   1.0000   1.0000   1.0000   1.0000   1.0000   1.0000   1.0000
     1.0000   1.0000   1.0000   1.0000   1.0000   1.0000   1.0000   1.0000
     1.0000   1.0000   1.0000   1.0000   1.0000   1.0000   1.0000   1.0000
     1.0000   1.0000   1.0000   1.0000   1.0072   1.0072   1.0115   1.0115
    -0.0022  -0.0022  -0.0015  -0.0015  -0.0000  -0.0000  -0.0000  -0.0000
    -0.0000  -0.0000  -0.0000  -0.0000  -0.0000  -0.0000

          k = 0.0000 0.0833 0.0833 (  9665 PWs)   bands (ev):

   -56.5145 -56.5145 -56.4842 -56.4842 -56.4807 -56.4807 -56.4780 -56.4780
   -28.5870 -28.5803 -28.5766 -28.5747 -28.5681 -28.5645 -28.4865 -28.4865
   -27.6272 -27.6243 -27.6054 -27.6023 -27.5474 -27.5431 -27.5400 -27.5377
   -27.5297 -27.5205 -27.4575 -27.4572 -27.4534 -27.4491 -27.4469 -27.4438
     2.7950   2.7950   6.9085   6.9139   7.3949   7.3979   7.9861   7.9923
    10.1065  10.1121  10.6055  10.6086  10.9968  11.0020  11.2457  11.2472
    11.8532  11.8546  12.3856  12.4014  12.6047  12.6092  12.8119  12.8210
    12.8788  12.8838  13.1326  13.1351  13.1586  13.1619  13.2144  13.2166
    13.5047  13.5093  13.6660  13.6733  13.8926  13.8956  15.4190  15.4294
    15.4857  15.4875  15.6661  15.6795  15.7448  15.7526  15.7652  15.7763
    16.4767  16.4957  16.6699  16.6742  16.8511  16.8760

     occupation numbers 
     1.0000   1.0000   1.0000   1.0000   1.0000   1.0000   1.0000   1.0000
     1.0000   1.0000   1.0000   1.0000   1.0000   1.0000   1.0000   1.0000
     1.0000   1.0000   1.0000   1.0000   1.0000   1.0000   1.0000   1.0000
     1.0000   1.0000   1.0000   1.0000   1.0000   1.0000   1.0000   1.0000
     1.0000   1.0000   1.0000   1.0000   1.0000   1.0000   1.0000   1.0000
     1.0000   1.0000   1.0000   1.0000   1.0000   1.0000   1.0000   1.0000
     1.0000   1.0000   1.0000   1.0000   1.0000   1.0000   1.0000   1.0000
     1.0000   1.0000   1.0000   1.0000   1.0000   1.0000   1.0000   1.0000
     1.0000   1.0000   1.0000   1.0000   1.0000   1.0000  -0.0015  -0.0011
    -0.0003  -0.0003  -0.0000  -0.0000  -0.0000  -0.0000  -0.0000  -0.0000
    -0.0000  -0.0000  -0.0000  -0.0000  -0.0000  -0.0000

          k = 0.0000 0.0833 0.1667 (  9653 PWs)   bands (ev):

   -56.5132 -56.5132 -56.4867 -56.4867 -56.4804 -56.4804 -56.4771 -56.4771
   -28.5894 -28.5828 -28.5763 -28.5761 -28.5622 -28.5585 -28.4902 -28.4901
   -27.6328 -27.6268 -27.5995 -27.5937 -27.5517 -27.5464 -27.5415 -27.5366
   -27.5262 -27.5126 -27.4639 -27.4612 -27.4555 -27.4503 -27.4454 -27.4410
     2.9384   2.9384   6.5237   6.5273   7.4123   7.4148   8.2329   8.2395
     9.9138   9.9181  10.6960  10.6970  10.8382  10.8410  11.3144  11.3163
    11.6691  11.6732  12.4473  12.4526  12.6189  12.6253  12.9296  12.9371
    13.0461  13.0520  13.1331  13.1335  13.1829  13.1854  13.2623  13.2648
    13.4814  13.4864  13.6759  13.6867  13.9994  14.0047  15.2965  15.3175
    15.3787  15.3930  15.6429  15.6571  15.7237  15.7375  15.8077  15.8293
    16.3630  16.3808  16.6150  16.6247  16.9881  17.0150

     occupation numbers 
     1.0000   1.0000   1.0000   1.0000   1.0000   1.0000   1.0000   1.0000
     1.0000   1.0000   1.0000   1.0000   1.0000   1.0000   1.0000   1.0000
     1.0000   1.0000   1.0000   1.0000   1.0000   1.0000   1.0000   1.0000
     1.0000   1.0000   1.0000   1.0000   1.0000   1.0000   1.0000   1.0000
     1.0000   1.0000   1.0000   1.0000   1.0000   1.0000   1.0000   1.0000
     1.0000   1.0000   1.0000   1.0000   1.0000   1.0000   1.0000   1.0000
     1.0000   1.0000   1.0000   1.0000   1.0000   1.0000   1.0000   1.0000
     1.0000   1.0000   1.0000   1.0000   1.0000   1.0000   1.0000   1.0000
     1.0000   1.0000   1.0000   1.0000   1.0000   1.0000  -0.0143  -0.0104
    -0.0035  -0.0026  -0.0000  -0.0000  -0.0000  -0.0000  -0.0000  -0.0000
    -0.0000  -0.0000  -0.0000  -0.0000  -0.0000  -0.0000

          k = 0.0000 0.0833 0.2500 (  9646 PWs)   bands (ev):

   -56.5111 -56.5111 -56.4900 -56.4900 -56.4798 -56.4798 -56.4765 -56.4765
   -28.5908 -28.5844 -28.5788 -28.5770 -28.5538 -28.5506 -28.4961 -28.4959
   -27.6372 -27.6295 -27.5919 -27.5855 -27.5573 -27.5472 -27.5394 -27.5366
   -27.5253 -27.5035 -27.4722 -27.4642 -27.4586 -27.4524 -27.4443 -27.4391
     3.1740   3.1741   6.0096   6.0115   7.5331   7.5348   8.4345   8.4414
     9.7448   9.7462  10.5618  10.5653  10.8458  10.8486  11.3940  11.4022
    11.5686  11.5703  12.2884  12.3012  12.7223  12.7238  13.0170  13.0313
    13.0882  13.0920  13.1764  13.1823  13.2491  13.2497  13.3330  13.3360
    13.5256  13.5310  13.7539  13.7670  14.0711  14.0764  15.0810  15.1089
    15.3422  15.3525  15.5655  15.5811  15.7116  15.7334  15.8496  15.8740
    16.2535  16.2691  16.5138  16.5264  17.1638  17.1915

     occupation numbers 
     1.0000   1.0000   1.0000   1.0000   1.0000   1.0000   1.0000   1.0000
     1.0000   1.0000   1.0000   1.0000   1.0000   1.0000   1.0000   1.0000
     1.0000   1.0000   1.0000   1.0000   1.0000   1.0000   1.0000   1.0000
     1.0000   1.0000   1.0000   1.0000   1.0000   1.0000   1.0000   1.0000
     1.0000   1.0000   1.0000   1.0000   1.0000   1.0000   1.0000   1.0000
     1.0000   1.0000   1.0000   1.0000   1.0000   1.0000   1.0000   1.0000
     1.0000   1.0000   1.0000   1.0000   1.0000   1.0000   1.0000   1.0000
     1.0000   1.0000   1.0000   1.0000   1.0000   1.0000   1.0000   1.0000
     1.0000   1.0000   1.0000   1.0000   1.0000   1.0000   0.0500   0.0052
    -0.0069  -0.0058  -0.0000  -0.0000  -0.0000  -0.0000  -0.0000  -0.0000
    -0.0000  -0.0000  -0.0000  -0.0000  -0.0000  -0.0000

          k = 0.0000 0.0833 0.3333 (  9649 PWs)   bands (ev):

   -56.5083 -56.5083 -56.4936 -56.4936 -56.4790 -56.4790 -56.4764 -56.4764
   -28.5911 -28.5850 -28.5817 -28.5787 -28.5442 -28.5416 -28.5040 -28.5035
   -27.6396 -27.6326 -27.5834 -27.5786 -27.5631 -27.5457 -27.5411 -27.5314
   -27.5265 -27.4944 -27.4821 -27.4660 -27.4619 -27.4548 -27.4432 -27.4387
     3.4968   3.4969   5.4515   5.4525   7.7140   7.7162   8.5120   8.5183
     9.6729   9.6749  10.3913  10.3957  10.9572  10.9601  11.1469  11.1594
    11.8087  11.8124  12.1756  12.1890  12.7438  12.7483  12.9869  12.9938
    13.0257  13.0305  13.2299  13.2348  13.2973  13.2989  13.4273  13.4326
    13.4958  13.5061  13.9332  13.9414  14.1521  14.1602  14.8958  14.9292
    15.3232  15.3355  15.4793  15.4950  15.7133  15.7391  15.8535  15.8792
    16.1744  16.1872  16.3941  16.4077  17.2784  17.3018

     occupation numbers 
     1.0000   1.0000   1.0000   1.0000   1.0000   1.0000   1.0000   1.0000
     1.0000   1.0000   1.0000   1.0000   1.0000   1.0000   1.0000   1.0000
     1.0000   1.0000   1.0000   1.0000   1.0000   1.0000   1.0000   1.0000
     1.0000   1.0000   1.0000   1.0000   1.0000   1.0000   1.0000   1.0000
     1.0000   1.0000   1.0000   1.0000   1.0000   1.0000   1.0000   1.0000
     1.0000   1.0000   1.0000   1.0000   1.0000   1.0000   1.0000   1.0000
     1.0000   1.0000   1.0000   1.0000   1.0000   1.0000   1.0000   1.0000
     1.0000   1.0000   1.0000   1.0000   1.0000   1.0000   1.0000   1.0000
     1.0000   1.0000   1.0000   1.0000   1.0000   1.0000   0.7413   0.6042
    -0.0095  -0.0078  -0.0003  -0.0002  -0.0000  -0.0000  -0.0000  -0.0000
    -0.0000  -0.0000  -0.0000  -0.0000  -0.0000  -0.0000

          k = 0.0000 0.0833 0.4167 (  9647 PWs)   bands (ev):

   -56.5050 -56.5050 -56.4975 -56.4975 -56.4781 -56.4781 -56.4767 -56.4767
   -28.5901 -28.5859 -28.5833 -28.5806 -28.5339 -28.5319 -28.5132 -28.5123
   -27.6399 -27.6358 -27.5774 -27.5697 -27.5684 -27.5495 -27.5409 -27.5315
   -27.5191 -27.4943 -27.4850 -27.4704 -27.4618 -27.4572 -27.4420 -27.4393
     3.8992   3.8994   4.8948   4.8954   7.9378   7.9408   8.4043   8.4095
     9.7772   9.7808  10.2245  10.2284  10.9621  10.9678  11.0304  11.0357
    12.0233  12.0293  12.2039  12.2114  12.6466  12.6513  12.8364  12.8441
    13.0727  13.0766  13.2595  13.2625  13.2906  13.2936  13.3203  13.3229
    13.6491  13.6523  13.9196  13.9242  14.3702  14.3910  14.7448  14.7788
    15.3267  15.3418  15.4065  15.4223  15.7399  15.7672  15.8304  15.8582
    16.1460  16.1557  16.2755  16.2881  17.3828  17.3968

     occupation numbers 
     1.0000   1.0000   1.0000   1.0000   1.0000   1.0000   1.0000   1.0000
     1.0000   1.0000   1.0000   1.0000   1.0000   1.0000   1.0000   1.0000
     1.0000   1.0000   1.0000   1.0000   1.0000   1.0000   1.0000   1.0000
     1.0000   1.0000   1.0000   1.0000   1.0000   1.0000   1.0000   1.0000
     1.0000   1.0000   1.0000   1.0000   1.0000   1.0000   1.0000   1.0000
     1.0000   1.0000   1.0000   1.0000   1.0000   1.0000   1.0000   1.0000
     1.0000   1.0000   1.0000   1.0000   1.0000   1.0000   1.0000   1.0000
     1.0000   1.0000   1.0000   1.0000   1.0000   1.0000   1.0000   1.0000
     1.0000   1.0000   1.0000   1.0000   1.0001   1.0001   1.0322   1.0137
    -0.0090  -0.0070  -0.0019  -0.0014  -0.0000  -0.0000  -0.0000  -0.0000
    -0.0000  -0.0000  -0.0000  -0.0000  -0.0000  -0.0000

          k = 0.0000 0.0833-0.5000 (  9688 PWs)   bands (ev):

   -56.5014 -56.5014 -56.5014 -56.5014 -56.4773 -56.4773 -56.4773 -56.4773
   -28.5882 -28.5882 -28.5823 -28.5823 -28.5236 -28.5236 -28.5217 -28.5217
   -27.6384 -27.6384 -27.5730 -27.5730 -27.5592 -27.5592 -27.5362 -27.5362
   -27.5067 -27.5067 -27.4772 -27.4772 -27.4597 -27.4597 -27.4406 -27.4406
     4.3703   4.3703   4.3706   4.3706   8.1814   8.1814   8.1881   8.1881
     9.9984   9.9984  10.0029  10.0029  10.9695  10.9695  10.9827  10.9827
    12.1975  12.1975  12.2035  12.2035  12.6444  12.6444  12.6602  12.6602
    13.1823  13.1823  13.1866  13.1866  13.2829  13.2829  13.2849  13.2849
    13.8038  13.8038  13.8073  13.8073  14.5811  14.5811  14.6106  14.6106
    15.3545  15.3545  15.3713  15.3713  15.7861  15.7861  15.8158  15.8158
    16.1821  16.1821  16.1941  16.1941  17.5401  17.5449

     occupation numbers 
     1.0000   1.0000   1.0000   1.0000   1.0000   1.0000   1.0000   1.0000
     1.0000   1.0000   1.0000   1.0000   1.0000   1.0000   1.0000   1.0000
     1.0000   1.0000   1.0000   1.0000   1.0000   1.0000   1.0000   1.0000
     1.0000   1.0000   1.0000   1.0000   1.0000   1.0000   1.0000   1.0000
     1.0000   1.0000   1.0000   1.0000   1.0000   1.0000   1.0000   1.0000
     1.0000   1.0000   1.0000   1.0000   1.0000   1.0000   1.0000   1.0000
     1.0000   1.0000   1.0000   1.0000   1.0000   1.0000   1.0000   1.0000
     1.0000   1.0000   1.0000   1.0000   1.0000   1.0000   1.0000   1.0000
     1.0000   1.0000   1.0000   1.0000   1.0093   1.0093   1.0145   1.0145
    -0.0055  -0.0055  -0.0040  -0.0040  -0.0000  -0.0000  -0.0000  -0.0000
    -0.0000  -0.0000  -0.0000  -0.0000  -0.0000  -0.0000

          k = 0.0000 0.1667 0.1667 (  9657 PWs)   bands (ev):

   -56.5119 -56.5119 -56.4882 -56.4882 -56.4807 -56.4807 -56.4766 -56.4766
   -28.5905 -28.5844 -28.5753 -28.5752 -28.5591 -28.5552 -28.4938 -28.4937
   -27.6336 -27.6295 -27.5934 -27.5896 -27.5526 -27.5493 -27.5434 -27.5385
   -27.5224 -27.5062 -27.4697 -27.4660 -27.4584 -27.4501 -27.4429 -27.4386
     3.0803   3.0804   6.3974   6.4018   7.2077   7.2121   8.4068   8.4122
     9.8324   9.8357  10.5104  10.5128  10.7868  10.7880  11.3570  11.3600
    11.7802  11.7806  12.4121  12.4177  12.5879  12.5957  12.9948  12.9962
    13.0906  13.0988  13.1713  13.1721  13.2433  13.2499  13.3352  13.3402
    13.4670  13.4748  13.7322  13.7464  14.0753  14.0826  15.2517  15.2734
    15.3011  15.3205  15.5348  15.5468  15.6944  15.7154  15.8138  15.8383
    16.2775  16.2944  16.6072  16.6170  17.0332  17.0677

     occupation numbers 
     1.0000   1.0000   1.0000   1.0000   1.0000   1.0000   1.0000   1.0000
     1.0000   1.0000   1.0000   1.0000   1.0000   1.0000   1.0000   1.0000
     1.0000   1.0000   1.0000   1.0000   1.0000   1.0000   1.0000   1.0000
     1.0000   1.0000   1.0000   1.0000   1.0000   1.0000   1.0000   1.0000
     1.0000   1.0000   1.0000   1.0000   1.0000   1.0000   1.0000   1.0000
     1.0000   1.0000   1.0000   1.0000   1.0000   1.0000   1.0000   1.0000
     1.0000   1.0000   1.0000   1.0000   1.0000   1.0000   1.0000   1.0000
     1.0000   1.0000   1.0000   1.0000   1.0000   1.0000   1.0000   1.0000
     1.0000   1.0000   1.0000   1.0000   1.0000   1.0000  -0.0245  -0.0193
    -0.0134  -0.0100  -0.0001  -0.0000  -0.0000  -0.0000  -0.0000  -0.0000
    -0.0000  -0.0000  -0.0000  -0.0000  -0.0000  -0.0000

          k = 0.0000 0.1667 0.2500 (  9644 PWs)   bands (ev):

   -56.5100 -56.5100 -56.4906 -56.4906 -56.4804 -56.4804 -56.4764 -56.4764
   -28.5909 -28.5852 -28.5765 -28.5754 -28.5529 -28.5495 -28.4994 -28.4993
   -27.6356 -27.6305 -27.5876 -27.5833 -27.5567 -27.5504 -27.5424 -27.5387
   -27.5215 -27.4988 -27.4782 -27.4693 -27.4619 -27.4508 -27.4410 -27.4365
     3.3136   3.3137   6.0385   6.0415   7.2040   7.2077   8.5047   8.5090
     9.7418   9.7437  10.2897  10.2938  10.8766  10.8777  11.4819  11.4826
    11.6893  11.6905  12.3246  12.3301  12.5674  12.5728  12.9877  12.9950
    13.1251  13.1382  13.2051  13.2105  13.3295  13.3306  13.4425  13.4504
    13.5205  13.5280  13.8634  13.8789  14.1363  14.1438  15.0964  15.1216
    15.2387  15.2577  15.4376  15.4507  15.6651  15.6881  15.8201  15.8470
    16.1948  16.2088  16.5337  16.5453  17.1531  17.1919

     occupation numbers 
     1.0000   1.0000   1.0000   1.0000   1.0000   1.0000   1.0000   1.0000
     1.0000   1.0000   1.0000   1.0000   1.0000   1.0000   1.0000   1.0000
     1.0000   1.0000   1.0000   1.0000   1.0000   1.0000   1.0000   1.0000
     1.0000   1.0000   1.0000   1.0000   1.0000   1.0000   1.0000   1.0000
     1.0000   1.0000   1.0000   1.0000   1.0000   1.0000   1.0000   1.0000
     1.0000   1.0000   1.0000   1.0000   1.0000   1.0000   1.0000   1.0000
     1.0000   1.0000   1.0000   1.0000   1.0000   1.0000   1.0000   1.0000
     1.0000   1.0000   1.0000   1.0000   1.0000   1.0000   1.0000   1.0000
     1.0000   1.0000   1.0000   1.0000   1.0000   1.0000   0.0228  -0.0089
    -0.0276  -0.0231  -0.0009  -0.0007  -0.0000  -0.0000  -0.0000  -0.0000
    -0.0000  -0.0000  -0.0000  -0.0000  -0.0000  -0.0000

          k = 0.0000 0.1667 0.3333 (  9647 PWs)   bands (ev):

   -56.5073 -56.5073 -56.4937 -56.4937 -56.4797 -56.4797 -56.4766 -56.4766
   -28.5903 -28.5850 -28.5790 -28.5768 -28.5446 -28.5419 -28.5069 -28.5065
   -27.6369 -27.6316 -27.5823 -27.5766 -27.5624 -27.5494 -27.5426 -27.5340
   -27.5236 -27.4926 -27.4872 -27.4717 -27.4639 -27.4529 -27.4392 -27.4355
     3.6328   3.6330   5.5378   5.5395   7.3630   7.3656   8.4326   8.4359
     9.7330   9.7362  10.1894  10.1937  10.9873  10.9904  11.3854  11.3951
    11.7521  11.7564  12.1888  12.1976  12.5943  12.6020  12.8757  12.8845
    13.1121  13.1216  13.2506  13.2564  13.3787  13.3800  13.5256  13.5356
    13.5894  13.6025  13.9885  13.9991  14.2438  14.2563  14.9095  14.9405
    15.2243  15.2429  15.3442  15.3542  15.6530  15.6780  15.8057  15.8361
    16.1516  16.1611  16.4395  16.4525  17.2363  17.2692

     occupation numbers 
     1.0000   1.0000   1.0000   1.0000   1.0000   1.0000   1.0000   1.0000
     1.0000   1.0000   1.0000   1.0000   1.0000   1.0000   1.0000   1.0000
     1.0000   1.0000   1.0000   1.0000   1.0000   1.0000   1.0000   1.0000
     1.0000   1.0000   1.0000   1.0000   1.0000   1.0000   1.0000   1.0000
     1.0000   1.0000   1.0000   1.0000   1.0000   1.0000   1.0000   1.0000
     1.0000   1.0000   1.0000   1.0000   1.0000   1.0000   1.0000   1.0000
     1.0000   1.0000   1.0000   1.0000   1.0000   1.0000   1.0000   1.0000
     1.0000   1.0000   1.0000   1.0000   1.0000   1.0000   1.0000   1.0000
     1.0000   1.0000   1.0000   1.0000   1.0000   1.0000   0.6874   0.5550
    -0.0308  -0.0266  -0.0067  -0.0056  -0.0000  -0.0000  -0.0000  -0.0000
    -0.0000  -0.0000  -0.0000  -0.0000  -0.0000  -0.0000

          k = 0.0000 0.1667 0.4167 (  9668 PWs)   bands (ev):

   -56.5042 -56.5042 -56.4972 -56.4972 -56.4789 -56.4789 -56.4771 -56.4771
   -28.5887 -28.5848 -28.5812 -28.5788 -28.5352 -28.5333 -28.5156 -28.5149
   -27.6366 -27.6333 -27.5779 -27.5707 -27.5659 -27.5522 -27.5407 -27.5303
   -27.5225 -27.5001 -27.4844 -27.4749 -27.4628 -27.4561 -27.4377 -27.4356
     4.0300   4.0304   5.0054   5.0064   7.6067   7.6089   8.1965   8.1990
     9.8542   9.8578  10.1271  10.1305  11.0543  11.0630  11.2131  11.2270
    11.9235  11.9286  12.1474  12.1531  12.5358  12.5451  12.7022  12.7129
    13.1763  13.1807  13.2857  13.2905  13.3744  13.3766  13.4821  13.4834
    13.7240  13.7281  13.9709  13.9770  14.4433  14.4683  14.7614  14.7943
    15.2234  15.2397  15.2765  15.2850  15.6695  15.6963  15.7668  15.7983
    16.1697  16.1756  16.3385  16.3512  17.3265  17.3479

     occupation numbers 
     1.0000   1.0000   1.0000   1.0000   1.0000   1.0000   1.0000   1.0000
     1.0000   1.0000   1.0000   1.0000   1.0000   1.0000   1.0000   1.0000
     1.0000   1.0000   1.0000   1.0000   1.0000   1.0000   1.0000   1.0000
     1.0000   1.0000   1.0000   1.0000   1.0000   1.0000   1.0000   1.0000
     1.0000   1.0000   1.0000   1.0000   1.0000   1.0000   1.0000   1.0000
     1.0000   1.0000   1.0000   1.0000   1.0000   1.0000   1.0000   1.0000
     1.0000   1.0000   1.0000   1.0000   1.0000   1.0000   1.0000   1.0000
     1.0000   1.0000   1.0000   1.0000   1.0000   1.0000   1.0000   1.0000
     1.0000   1.0000   1.0000   1.0000   1.0005   1.0009   1.0257   0.9979
    -0.0310  -0.0274  -0.0186  -0.0167  -0.0000  -0.0000  -0.0000  -0.0000
    -0.0000  -0.0000  -0.0000  -0.0000  -0.0000  -0.0000

          k = 0.0000 0.1667-0.5000 (  9654 PWs)   bands (ev):

   -56.5008 -56.5008 -56.5008 -56.5008 -56.4779 -56.4779 -56.4779 -56.4779
   -28.5865 -28.5865 -28.5807 -28.5807 -28.5260 -28.5260 -28.5234 -28.5234
   -27.6352 -27.6352 -27.5738 -27.5738 -27.5593 -27.5593 -27.5355 -27.5355
   -27.5117 -27.5117 -27.4792 -27.4792 -27.4596 -27.4596 -27.4364 -27.4364
     4.4934   4.4934   4.4940   4.4940   7.8951   7.8951   7.9019   7.9019
    10.0149  10.0149  10.0189  10.0189  11.1033  11.1033  11.1175  11.1175
    12.0900  12.0900  12.0946  12.0946  12.5396  12.5396  12.5553  12.5553
    13.2753  13.2753  13.2762  13.2762  13.3906  13.3906  13.3917  13.3917
    13.8666  13.8666  13.8706  13.8706  14.6208  14.6208  14.6521  14.6521
    15.2369  15.2369  15.2516  15.2516  15.7138  15.7138  15.7435  15.7435
    16.2396  16.2396  16.2502  16.2502  17.4854  17.4930

     occupation numbers 
     1.0000   1.0000   1.0000   1.0000   1.0000   1.0000   1.0000   1.0000
     1.0000   1.0000   1.0000   1.0000   1.0000   1.0000   1.0000   1.0000
     1.0000   1.0000   1.0000   1.0000   1.0000   1.0000   1.0000   1.0000
     1.0000   1.0000   1.0000   1.0000   1.0000   1.0000   1.0000   1.0000
     1.0000   1.0000   1.0000   1.0000   1.0000   1.0000   1.0000   1.0000
     1.0000   1.0000   1.0000   1.0000   1.0000   1.0000   1.0000   1.0000
     1.0000   1.0000   1.0000   1.0000   1.0000   1.0000   1.0000   1.0000
     1.0000   1.0000   1.0000   1.0000   1.0000   1.0000   1.0000   1.0000
     1.0000   1.0000   1.0000   1.0000   1.0167   1.0167   1.0240   1.0240
    -0.0281  -0.0281  -0.0245  -0.0245  -0.0000  -0.0000  -0.0000  -0.0000
    -0.0000  -0.0000  -0.0000  -0.0000  -0.0000  -0.0000

          k = 0.0000 0.2500 0.2500 (  9661 PWs)   bands (ev):

   -56.5081 -56.5081 -56.4920 -56.4920 -56.4807 -56.4807 -56.4766 -56.4766
   -28.5903 -28.5851 -28.5754 -28.5746 -28.5500 -28.5466 -28.5048 -28.5044
   -27.6340 -27.6308 -27.5829 -27.5806 -27.5570 -27.5534 -27.5427 -27.5398
   -27.5198 -27.4955 -27.4849 -27.4748 -27.4650 -27.4484 -27.4384 -27.4345
     3.5426   3.5428   5.9652   5.9685   6.9412   6.9452   8.4363   8.4414
     9.7516   9.7548  10.1864  10.1916  10.9260  10.9285  11.3506  11.3517
    11.8599  11.8637  12.2864  12.2898  12.5059  12.5151  12.9039  12.9115
    13.1478  13.1571  13.2702  13.2796  13.4417  13.4432  13.5199  13.5291
    13.5707  13.5813  13.9844  13.9967  14.2200  14.2256  15.0462  15.0666
    15.1399  15.1646  15.2941  15.3056  15.6152  15.6404  15.7628  15.7917
    16.1597  16.1707  16.5124  16.5231  17.1854  17.2283

     occupation numbers 
     1.0000   1.0000   1.0000   1.0000   1.0000   1.0000   1.0000   1.0000
     1.0000   1.0000   1.0000   1.0000   1.0000   1.0000   1.0000   1.0000
     1.0000   1.0000   1.0000   1.0000   1.0000   1.0000   1.0000   1.0000
     1.0000   1.0000   1.0000   1.0000   1.0000   1.0000   1.0000   1.0000
     1.0000   1.0000   1.0000   1.0000   1.0000   1.0000   1.0000   1.0000
     1.0000   1.0000   1.0000   1.0000   1.0000   1.0000   1.0000   1.0000
     1.0000   1.0000   1.0000   1.0000   1.0000   1.0000   1.0000   1.0000
     1.0000   1.0000   1.0000   1.0000   1.0000   1.0000   1.0000   1.0000
     1.0000   1.0000   1.0000   1.0000   1.0000   1.0000   0.1354   0.0812
    -0.0232  -0.0332  -0.0148  -0.0125  -0.0000  -0.0000  -0.0000  -0.0000
    -0.0000  -0.0000  -0.0000  -0.0000  -0.0000  -0.0000

          k = 0.0000 0.2500 0.3333 (  9636 PWs)   bands (ev):

   -56.5057 -56.5057 -56.4941 -56.4941 -56.4804 -56.4804 -56.4771 -56.4771
   -28.5888 -28.5841 -28.5765 -28.5750 -28.5443 -28.5417 -28.5116 -28.5112
   -27.6328 -27.6298 -27.5821 -27.5755 -27.5613 -27.5517 -27.5418 -27.5364
   -27.5219 -27.4954 -27.4924 -27.4792 -27.4634 -27.4481 -27.4364 -27.4332
     3.8555   3.8559   5.6432   5.6456   6.9525   6.9560   8.1880   8.1918
     9.8430   9.8466  10.1796  10.1835  10.9893  10.9915  11.3884  11.3920
    11.8759  11.8781  12.1108  12.1121  12.4497  12.4600  12.7484  12.7569
    13.1971  13.2071  13.3028  13.3097  13.4491  13.4526  13.6457  13.6490
    13.7124  13.7173  14.0564  14.0674  14.3684  14.3882  14.9104  14.9351
    15.0751  15.0990  15.1874  15.1947  15.5832  15.6076  15.7081  15.7398
    16.1730  16.1809  16.4785  16.4884  17.1845  17.2201

     occupation numbers 
     1.0000   1.0000   1.0000   1.0000   1.0000   1.0000   1.0000   1.0000
     1.0000   1.0000   1.0000   1.0000   1.0000   1.0000   1.0000   1.0000
     1.0000   1.0000   1.0000   1.0000   1.0000   1.0000   1.0000   1.0000
     1.0000   1.0000   1.0000   1.0000   1.0000   1.0000   1.0000   1.0000
     1.0000   1.0000   1.0000   1.0000   1.0000   1.0000   1.0000   1.0000
     1.0000   1.0000   1.0000   1.0000   1.0000   1.0000   1.0000   1.0000
     1.0000   1.0000   1.0000   1.0000   1.0000   1.0000   1.0000   1.0000
     1.0000   1.0000   1.0000   1.0000   1.0000   1.0000   1.0000   1.0000
     1.0000   1.0000   1.0000   1.0000   1.0001   1.0001   0.6836   0.5787
     0.0622   0.0188  -0.0355  -0.0352  -0.0000  -0.0000  -0.0000  -0.0000
    -0.0000  -0.0000  -0.0000  -0.0000  -0.0000  -0.0000

          k = 0.0000 0.2500 0.4167 (  9659 PWs)   bands (ev):

   -56.5029 -56.5029 -56.4969 -56.4969 -56.4797 -56.4797 -56.4778 -56.4778
   -28.5864 -28.5828 -28.5786 -28.5766 -28.5368 -28.5350 -28.5195 -28.5189
   -27.6315 -27.6293 -27.5809 -27.5750 -27.5609 -27.5523 -27.5400 -27.5296
   -27.5252 -27.5055 -27.4907 -27.4838 -27.4588 -27.4501 -27.4347 -27.4328
     4.2433   4.2438   5.1760   5.1774   7.1708   7.1737   7.8423   7.8453
     9.9964   9.9994  10.1860  10.1890  11.0742  11.0807  11.3415  11.3526
    11.9082  11.9109  11.9805  11.9856  12.4124  12.4240  12.5558  12.5672
    13.2760  13.2843  13.3658  13.3679  13.4296  13.4314  13.6289  13.6312
    13.8635  13.8664  14.0587  14.0664  14.5324  14.5614  14.7626  14.7910
    15.0730  15.0903  15.1195  15.1228  15.5774  15.6026  15.6519  15.6835
    16.2388  16.2460  16.4218  16.4329  17.2191  17.2413

     occupation numbers 
     1.0000   1.0000   1.0000   1.0000   1.0000   1.0000   1.0000   1.0000
     1.0000   1.0000   1.0000   1.0000   1.0000   1.0000   1.0000   1.0000
     1.0000   1.0000   1.0000   1.0000   1.0000   1.0000   1.0000   1.0000
     1.0000   1.0000   1.0000   1.0000   1.0000   1.0000   1.0000   1.0000
     1.0000   1.0000   1.0000   1.0000   1.0000   1.0000   1.0000   1.0000
     1.0000   1.0000   1.0000   1.0000   1.0000   1.0000   1.0000   1.0000
     1.0000   1.0000   1.0000   1.0000   1.0000   1.0000   1.0000   1.0000
     1.0000   1.0000   1.0000   1.0000   1.0000   1.0000   1.0000   1.0000
     1.0000   1.0000   1.0000   1.0000   1.0039   1.0067   1.0250   1.0018
     0.0666   0.0329  -0.0068  -0.0100  -0.0000  -0.0000  -0.0000  -0.0000
    -0.0000  -0.0000  -0.0000  -0.0000  -0.0000  -0.0000

          k = 0.0000 0.2500-0.5000 (  9686 PWs)   bands (ev):

   -56.4999 -56.4999 -56.4999 -56.4999 -56.4788 -56.4788 -56.4788 -56.4788
   -28.5838 -28.5838 -28.5785 -28.5785 -28.5292 -28.5292 -28.5261 -28.5261
   -27.6301 -27.6301 -27.5782 -27.5782 -27.5563 -27.5563 -27.5344 -27.5344
   -27.5164 -27.5164 -27.4876 -27.4876 -27.4538 -27.4538 -27.4334 -27.4334
     4.6916   4.6916   4.6926   4.6926   7.4836   7.4836   7.4898   7.4898
    10.1294  10.1294  10.1324  10.1324  11.2000  11.2000  11.2117  11.2117
    11.9552  11.9552  11.9572  11.9572  12.4185  12.4185  12.4310  12.4310
    13.3468  13.3468  13.3533  13.3533  13.5158  13.5158  13.5219  13.5219
    13.9873  13.9873  13.9929  13.9929  14.6543  14.6543  14.6848  14.6848
    15.0850  15.0850  15.0966  15.0966  15.6031  15.6031  15.6320  15.6320
    16.3328  16.3328  16.3438  16.3438  17.3593  17.3604

     occupation numbers 
     1.0000   1.0000   1.0000   1.0000   1.0000   1.0000   1.0000   1.0000
     1.0000   1.0000   1.0000   1.0000   1.0000   1.0000   1.0000   1.0000
     1.0000   1.0000   1.0000   1.0000   1.0000   1.0000   1.0000   1.0000
     1.0000   1.0000   1.0000   1.0000   1.0000   1.0000   1.0000   1.0000
     1.0000   1.0000   1.0000   1.0000   1.0000   1.0000   1.0000   1.0000
     1.0000   1.0000   1.0000   1.0000   1.0000   1.0000   1.0000   1.0000
     1.0000   1.0000   1.0000   1.0000   1.0000   1.0000   1.0000   1.0000
     1.0000   1.0000   1.0000   1.0000   1.0000   1.0000   1.0000   1.0000
     1.0000   1.0000   1.0000   1.0000   1.0246   1.0246   1.0315   1.0315
     0.0424   0.0424   0.0225   0.0225  -0.0000  -0.0000  -0.0000  -0.0000
    -0.0000  -0.0000  -0.0000  -0.0000  -0.0000  -0.0000

          k = 0.0000 0.3333 0.3333 (  9619 PWs)   bands (ev):

   -56.5037 -56.5037 -56.4951 -56.4951 -56.4807 -56.4807 -56.4778 -56.4778
   -28.5864 -28.5823 -28.5753 -28.5743 -28.5423 -28.5399 -28.5177 -28.5170
   -27.6284 -27.6271 -27.5836 -27.5780 -27.5585 -27.5506 -27.5387 -27.5373
   -27.5224 -27.5006 -27.4984 -27.4872 -27.4582 -27.4446 -27.4349 -27.4318
     4.1584   4.1588   5.6400   5.6422   6.6785   6.6812   7.8198   7.8236
    10.0315  10.0343  10.3051  10.3080  10.9405  10.9423  11.2582  11.2603
    11.8943  11.9009  12.1584  12.1628  12.3091  12.3187  12.6282  12.6360
    13.1784  13.1867  13.3906  13.3956  13.5590  13.5618  13.7202  13.7255
    13.8833  13.8948  14.0942  14.1069  14.4878  14.5135  14.8481  14.8597
    14.9405  14.9606  15.0568  15.0736  15.5210  15.5441  15.6020  15.6320
    16.2322  16.2410  16.4898  16.4967  17.1465  17.1770

     occupation numbers 
     1.0000   1.0000   1.0000   1.0000   1.0000   1.0000   1.0000   1.0000
     1.0000   1.0000   1.0000   1.0000   1.0000   1.0000   1.0000   1.0000
     1.0000   1.0000   1.0000   1.0000   1.0000   1.0000   1.0000   1.0000
     1.0000   1.0000   1.0000   1.0000   1.0000   1.0000   1.0000   1.0000
     1.0000   1.0000   1.0000   1.0000   1.0000   1.0000   1.0000   1.0000
     1.0000   1.0000   1.0000   1.0000   1.0000   1.0000   1.0000   1.0000
     1.0000   1.0000   1.0000   1.0000   1.0000   1.0000   1.0000   1.0000
     1.0000   1.0000   1.0000   1.0000   1.0000   1.0000   1.0000   1.0000
     1.0000   1.0000   1.0000   1.0000   1.0015   1.0026   0.8965   0.8642
     0.5551   0.4657   0.1059   0.0655  -0.0001  -0.0001  -0.0000  -0.0000
    -0.0000  -0.0000  -0.0000  -0.0000  -0.0000  -0.0000

          k = 0.0000 0.3333 0.4167 (  9633 PWs)   bands (ev):

   -56.5014 -56.5014 -56.4968 -56.4968 -56.4805 -56.4805 -56.4788 -56.4788
   -28.5834 -28.5803 -28.5762 -28.5748 -28.5377 -28.5362 -28.5243 -28.5237
   -27.6250 -27.6240 -27.5863 -27.5824 -27.5544 -27.5489 -27.5379 -27.5299
   -27.5267 -27.5091 -27.5004 -27.4935 -27.4520 -27.4441 -27.4337 -27.4316
     4.5302   4.5309   5.3663   5.3680   6.7396   6.7424   7.4119   7.4150
    10.2064  10.2081  10.3657  10.3678  11.0317  11.0346  11.3561  11.3632
    11.7475  11.7504  11.9382  11.9433  12.3002  12.3064  12.4377  12.4464
    13.2744  13.2825  13.4175  13.4197  13.5834  13.5858  13.7589  13.7640
    14.0548  14.0621  14.1737  14.1817  14.5737  14.5974  14.7024  14.7210
    14.9167  14.9337  14.9746  14.9936  15.4941  15.5145  15.5348  15.5633
    16.3320  16.3420  16.5036  16.5099  17.0968  17.1161

     occupation numbers 
     1.0000   1.0000   1.0000   1.0000   1.0000   1.0000   1.0000   1.0000
     1.0000   1.0000   1.0000   1.0000   1.0000   1.0000   1.0000   1.0000
     1.0000   1.0000   1.0000   1.0000   1.0000   1.0000   1.0000   1.0000
     1.0000   1.0000   1.0000   1.0000   1.0000   1.0000   1.0000   1.0000
     1.0000   1.0000   1.0000   1.0000   1.0000   1.0000   1.0000   1.0000
     1.0000   1.0000   1.0000   1.0000   1.0000   1.0000   1.0000   1.0000
     1.0000   1.0000   1.0000   1.0000   1.0000   1.0000   1.0000   1.0000
     1.0000   1.0000   1.0000   1.0000   1.0000   1.0000   1.0000   1.0000
     1.0000   1.0000   1.0000   1.0000   1.0082   1.0120   1.0344   1.0354
     0.6574   0.5849   0.4041   0.3234  -0.0002  -0.0001  -0.0001  -0.0000
    -0.0000  -0.0000  -0.0000  -0.0000  -0.0000  -0.0000

          k = 0.0000 0.3333-0.5000 (  9646 PWs)   bands (ev):

   -56.4990 -56.4990 -56.4990 -56.4990 -56.4797 -56.4797 -56.4797 -56.4797
   -28.5806 -28.5806 -28.5762 -28.5762 -28.5324 -28.5324 -28.5294 -28.5294
   -27.6231 -27.6231 -27.5860 -27.5860 -27.5505 -27.5505 -27.5333 -27.5333
   -27.5196 -27.5196 -27.4980 -27.4980 -27.4470 -27.4470 -27.4323 -27.4323
     4.9496   4.9496   4.9509   4.9509   7.0286   7.0286   7.0335   7.0335
    10.3304  10.3304  10.3324  10.3324  11.2378  11.2378  11.2462  11.2462
    11.7604  11.7604  11.7659  11.7659  12.3339  12.3339  12.3413  12.3413
    13.3659  13.3659  13.3730  13.3730  13.6746  13.6746  13.6832  13.6832
    14.1705  14.1705  14.1761  14.1761  14.6104  14.6104  14.6295  14.6295
    14.9431  14.9431  14.9581  14.9581  15.4971  15.4971  15.5213  15.5213
    16.4403  16.4403  16.4510  16.4510  17.1946  17.1964

     occupation numbers 
     1.0000   1.0000   1.0000   1.0000   1.0000   1.0000   1.0000   1.0000
     1.0000   1.0000   1.0000   1.0000   1.0000   1.0000   1.0000   1.0000
     1.0000   1.0000   1.0000   1.0000   1.0000   1.0000   1.0000   1.0000
     1.0000   1.0000   1.0000   1.0000   1.0000   1.0000   1.0000   1.0000
     1.0000   1.0000   1.0000   1.0000   1.0000   1.0000   1.0000   1.0000
     1.0000   1.0000   1.0000   1.0000   1.0000   1.0000   1.0000   1.0000
     1.0000   1.0000   1.0000   1.0000   1.0000   1.0000   1.0000   1.0000
     1.0000   1.0000   1.0000   1.0000   1.0000   1.0000   1.0000   1.0000
     1.0000   1.0000   1.0000   1.0000   1.0145   1.0145   1.0186   1.0186
     0.5432   0.5432   0.4768   0.4768  -0.0002  -0.0002  -0.0001  -0.0001
    -0.0000  -0.0000  -0.0000  -0.0000  -0.0000  -0.0000

          k = 0.0000 0.4167 0.4167 (  9620 PWs)   bands (ev):

[...]
    12.1173  12.1173  12.1240  12.1240  12.4603  12.4603  12.4692  12.4692
    13.2037  13.2037  13.2083  13.2083  13.7314  13.7314  13.7450  13.7450
    14.3189  14.3189  14.3236  14.3236  14.7067  14.7067  14.7331  14.7331
    14.8546  14.8546  14.8934  14.8934  15.3755  15.3755  15.3867  15.3867
    16.4339  16.4340  16.4434  16.4435  17.0295  17.0328

     occupation numbers 
     1.0000   1.0000   1.0000   1.0000   1.0000   1.0000   1.0000   1.0000
     1.0000   1.0000   1.0000   1.0000   1.0000   1.0000   1.0000   1.0000
     1.0000   1.0000   1.0000   1.0000   1.0000   1.0000   1.0000   1.0000
     1.0000   1.0000   1.0000   1.0000   1.0000   1.0000   1.0000   1.0000
     1.0000   1.0000   1.0000   1.0000   1.0000   1.0000   1.0000   1.0000
     1.0000   1.0000   1.0000   1.0000   1.0000   1.0000   1.0000   1.0000
     1.0000   1.0000   1.0000   1.0000   1.0000   1.0000   1.0000   1.0000
     1.0000   1.0000   1.0000   1.0000   1.0000   1.0000   1.0000   1.0000
     1.0000   1.0000   1.0000   1.0000   1.0348   1.0348   1.0346   1.0346
     0.8788   0.8788   0.7504   0.7504  -0.0037  -0.0037  -0.0030  -0.0030
    -0.0000  -0.0000  -0.0000  -0.0000  -0.0000  -0.0000

          k =-0.2500 0.4167 0.3333 (  9646 PWs)   bands (ev):

   -56.4989 -56.4989 -56.4950 -56.4950 -56.4827 -56.4827 -56.4807 -56.4807
   -28.5786 -28.5758 -28.5709 -28.5698 -28.5431 -28.5412 -28.5315 -28.5300
   -27.6187 -27.6164 -27.5821 -27.5781 -27.5676 -27.5643 -27.5419 -27.5324
   -27.5233 -27.5101 -27.4835 -27.4759 -27.4594 -27.4548 -27.4358 -27.4334
     4.8887   4.8893   5.6567   5.6593   6.8101   6.8155   7.3890   7.3922
     8.9985   9.0029   9.5183   9.5230  10.7774  10.7806  11.2114  11.2132
    12.0004  12.0029  12.3393  12.3431  12.7069  12.7133  12.8290  12.8360
    13.1071  13.1148  13.1623  13.1741  13.4051  13.4130  13.5761  13.5865
    14.1371  14.1447  14.4446  14.4567  14.6832  14.6975  14.8323  14.8516
    14.9670  14.9787  15.1295  15.1627  15.2846  15.2926  15.4300  15.4432
    16.2782  16.2863  16.3855  16.3925  17.0197  17.0290

     occupation numbers 
     1.0000   1.0000   1.0000   1.0000   1.0000   1.0000   1.0000   1.0000
     1.0000   1.0000   1.0000   1.0000   1.0000   1.0000   1.0000   1.0000
     1.0000   1.0000   1.0000   1.0000   1.0000   1.0000   1.0000   1.0000
     1.0000   1.0000   1.0000   1.0000   1.0000   1.0000   1.0000   1.0000
     1.0000   1.0000   1.0000   1.0000   1.0000   1.0000   1.0000   1.0000
     1.0000   1.0000   1.0000   1.0000   1.0000   1.0000   1.0000   1.0000
     1.0000   1.0000   1.0000   1.0000   1.0000   1.0000   1.0000   1.0000
     1.0000   1.0000   1.0000   1.0000   1.0000   1.0000   1.0000   1.0000
     1.0000   1.0000   1.0005   1.0007   1.0312   1.0337   0.9344   0.8869
     0.4372   0.3865  -0.0158  -0.0327  -0.0168  -0.0151  -0.0011  -0.0008
    -0.0000  -0.0000  -0.0000  -0.0000  -0.0000  -0.0000

          k =-0.2500-0.5000 0.3333 (  9656 PWs)   bands (ev):

   -56.4968 -56.4968 -56.4968 -56.4968 -56.4819 -56.4819 -56.4819 -56.4819
   -28.5755 -28.5755 -28.5713 -28.5713 -28.5387 -28.5387 -28.5352 -28.5352
   -27.6161 -27.6161 -27.5814 -27.5814 -27.5661 -27.5661 -27.5377 -27.5377
   -27.5159 -27.5159 -27.4808 -27.4808 -27.4557 -27.4557 -27.4349 -27.4349
     5.2805   5.2805   5.2819   5.2819   7.0732   7.0732   7.0783   7.0783
     9.2473   9.2473   9.2519   9.2519  10.9387  10.9387  10.9413  10.9413
    12.1896  12.1896  12.1977  12.1977  12.7742  12.7742  12.7845  12.7845
    13.1173  13.1173  13.1285  13.1285  13.5002  13.5002  13.5105  13.5105
    14.3083  14.3083  14.3169  14.3169  14.7796  14.7796  14.7973  14.7973
    15.0299  15.0299  15.0551  15.0551  15.3560  15.3560  15.3712  15.3712
    16.3336  16.3336  16.3439  16.3439  17.0867  17.0879

     occupation numbers 
     1.0000   1.0000   1.0000   1.0000   1.0000   1.0000   1.0000   1.0000
     1.0000   1.0000   1.0000   1.0000   1.0000   1.0000   1.0000   1.0000
     1.0000   1.0000   1.0000   1.0000   1.0000   1.0000   1.0000   1.0000
     1.0000   1.0000   1.0000   1.0000   1.0000   1.0000   1.0000   1.0000
     1.0000   1.0000   1.0000   1.0000   1.0000   1.0000   1.0000   1.0000
     1.0000   1.0000   1.0000   1.0000   1.0000   1.0000   1.0000   1.0000
     1.0000   1.0000   1.0000   1.0000   1.0000   1.0000   1.0000   1.0000
     1.0000   1.0000   1.0000   1.0000   1.0000   1.0000   1.0000   1.0000
     1.0000   1.0000   1.0000   1.0000   1.0130   1.0130   0.9942   0.9942
     0.1867   0.1867   0.1103   0.1103  -0.0054  -0.0054  -0.0040  -0.0040
    -0.0000  -0.0000  -0.0000  -0.0000  -0.0000  -0.0000

          k =-0.2500-0.5000 0.4167 (  9646 PWs)   bands (ev):

   -56.4958 -56.4958 -56.4958 -56.4958 -56.4829 -56.4829 -56.4829 -56.4829
   -28.5722 -28.5722 -28.5696 -28.5696 -28.5410 -28.5410 -28.5387 -28.5387
   -27.6091 -27.6091 -27.5896 -27.5896 -27.5638 -27.5638 -27.5407 -27.5407
   -27.5113 -27.5113 -27.4856 -27.4856 -27.4506 -27.4506 -27.4376 -27.4376
     5.5372   5.5372   5.5390   5.5390   6.7775   6.7775   6.7819   6.7819
     9.3213   9.3213   9.3263   9.3263  10.6409  10.6409  10.6437  10.6437
    12.3614  12.3614  12.3698  12.3698  12.6611  12.6611  12.6706  12.6706
    13.1097  13.1097  13.1160  13.1160  13.5446  13.5446  13.5571  13.5571
    14.4449  14.4449  14.4514  14.4514  14.8161  14.8161  14.8425  14.8425
    14.9538  14.9538  14.9915  14.9915  15.3199  15.3199  15.3314  15.3314
    16.3807  16.3807  16.3892  16.3892  16.9299  16.9319

     occupation numbers 
     1.0000   1.0000   1.0000   1.0000   1.0000   1.0000   1.0000   1.0000
     1.0000   1.0000   1.0000   1.0000   1.0000   1.0000   1.0000   1.0000
     1.0000   1.0000   1.0000   1.0000   1.0000   1.0000   1.0000   1.0000
     1.0000   1.0000   1.0000   1.0000   1.0000   1.0000   1.0000   1.0000
     1.0000   1.0000   1.0000   1.0000   1.0000   1.0000   1.0000   1.0000
     1.0000   1.0000   1.0000   1.0000   1.0000   1.0000   1.0000   1.0000
     1.0000   1.0000   1.0000   1.0000   1.0000   1.0000   1.0000   1.0000
     1.0000   1.0000   1.0000   1.0000   1.0000   1.0000   1.0000   1.0000
     1.0005   1.0005   1.0006   1.0006   0.9660   0.9660   0.9107   0.9107
     0.4957   0.4957   0.3321   0.3321  -0.0101  -0.0101  -0.0083  -0.0083
    -0.0000  -0.0000  -0.0000  -0.0000  -0.0000  -0.0000

          k =-0.3333-0.5000 0.4167 (  9664 PWs)   bands (ev):

   -56.4942 -56.4942 -56.4942 -56.4942 -56.4845 -56.4845 -56.4845 -56.4845
   -28.5684 -28.5684 -28.5659 -28.5659 -28.5453 -28.5453 -28.5429 -28.5429
   -27.6045 -27.6045 -27.5869 -27.5869 -27.5720 -27.5720 -27.5452 -27.5452
   -27.5050 -27.5050 -27.4768 -27.4768 -27.4556 -27.4556 -27.4419 -27.4419
     5.7599   5.7599   5.7624   5.7624   6.7869   6.7869   6.7924   6.7924
     9.0481   9.0481   9.0544   9.0544  10.2140  10.2140  10.2177  10.2177
    12.5361  12.5361  12.5439  12.5439  12.8190  12.8190  12.8271  12.8271
    13.0620  13.0620  13.0716  13.0716  13.3561  13.3561  13.3666  13.3666
    14.5897  14.5897  14.5966  14.5966  14.9405  14.9405  14.9677  14.9677
    15.0542  15.0542  15.0887  15.0887  15.2580  15.2580  15.2765  15.2765
    16.3427  16.3427  16.3509  16.3509  16.7823  16.7876

     occupation numbers 
     1.0000   1.0000   1.0000   1.0000   1.0000   1.0000   1.0000   1.0000
     1.0000   1.0000   1.0000   1.0000   1.0000   1.0000   1.0000   1.0000
     1.0000   1.0000   1.0000   1.0000   1.0000   1.0000   1.0000   1.0000
     1.0000   1.0000   1.0000   1.0000   1.0000   1.0000   1.0000   1.0000
     1.0000   1.0000   1.0000   1.0000   1.0000   1.0000   1.0000   1.0000
     1.0000   1.0000   1.0000   1.0000   1.0000   1.0000   1.0000   1.0000
     1.0000   1.0000   1.0000   1.0000   1.0000   1.0000   1.0000   1.0000
     1.0000   1.0000   1.0000   1.0000   1.0000   1.0000   1.0000   1.0000
     1.0107   1.0107   1.0119   1.0119   0.5550   0.5550   0.4343   0.4343
     0.1129   0.1129   0.0357   0.0357  -0.0230  -0.0230  -0.0186  -0.0186
    -0.0000  -0.0000  -0.0000  -0.0000  -0.0000  -0.0000

     the Fermi energy is    14.9529 ev

!    total energy              =   -1180.35047575 Ry

     total all-electron energy =    -10727.811312 Ry
     estimated scf accuracy    <       0.00000013 Ry
     smearing contrib. (-TS)   =      -0.00032941 Ry
     internal energy E=F+TS    =   -1180.35014634 Ry

     The total energy is F=E-TS. E is the sum of the following terms:
     one-electron contribution =    -336.79304257 Ry
     hartree contribution      =     207.03718621 Ry
     xc contribution           =    -114.36155236 Ry
     ewald contribution        =    -496.51183961 Ry
     one-center paw contrib.   =    -439.72089802 Ry
      -> PAW hartree energy AE =     126.71365009 Ry
      -> PAW hartree energy PS =    -125.74631426 Ry
      -> PAW xc energy AE      =     -96.23963386 Ry
      -> PAW xc energy PS      =      20.93228335 Ry
      -> total E_H with PAW    =     208.00452204 Ry
      -> total E_XC with PAW   =    -189.66890287 Ry

     convergence has been achieved in   8 iterations

     Forces acting on atoms (cartesian axes, Ry/au):

     atom    1 type  1   force =    -0.00282535   -0.00282535    0.00282535
     atom    2 type  1   force =    -0.00282535    0.00282535   -0.00282535
     atom    3 type  1   force =     0.00282535   -0.00282535   -0.00282535
     atom    4 type  1   force =     0.00282535    0.00282535    0.00282535
     atom    5 type  2   force =    -0.00426568   -0.00426568    0.00426568
     atom    6 type  2   force =    -0.00426568    0.00426568   -0.00426568
     atom    7 type  2   force =     0.00426568   -0.00426568   -0.00426568
     atom    8 type  2   force =     0.00426568    0.00426568    0.00426568
     The non-local contrib.  to forces
     atom    1 type  1   force =     0.05118368    0.05118368   -0.05118368
     atom    2 type  1   force =     0.05118368   -0.05118368    0.05118368
     atom    3 type  1   force =    -0.05118368    0.05118368    0.05118368
     atom    4 type  1   force =    -0.05118368   -0.05118368   -0.05118368
     atom    5 type  2   force =    -0.00806538   -0.00806538    0.00806538
     atom    6 type  2   force =    -0.00806538    0.00806538   -0.00806538
     atom    7 type  2   force =     0.00806538   -0.00806538   -0.00806538
     atom    8 type  2   force =     0.00806538    0.00806538    0.00806538
     The ionic contribution  to forces
     atom    1 type  1   force =    -0.85044630   -0.85044630    0.85044630
     atom    2 type  1   force =    -0.85044630    0.85044630   -0.85044630
     atom    3 type  1   force =     0.85044630   -0.85044630   -0.85044630
     atom    4 type  1   force =     0.85044630    0.85044630    0.85044630
     atom    5 type  2   force =    -0.24524978   -0.24524978    0.24524978
     atom    6 type  2   force =    -0.24524978    0.24524978   -0.24524978
     atom    7 type  2   force =     0.24524978   -0.24524978   -0.24524978
     atom    8 type  2   force =     0.24524978    0.24524978    0.24524978
     The local contribution  to forces
     atom    1 type  1   force =     0.79735885    0.79735885   -0.79735885
     atom    2 type  1   force =     0.79735885   -0.79735885    0.79735885
     atom    3 type  1   force =    -0.79735885    0.79735885    0.79735885
     atom    4 type  1   force =    -0.79735885   -0.79735885   -0.79735885
     atom    5 type  2   force =     0.24826073    0.24826073   -0.24826073
     atom    6 type  2   force =     0.24826073   -0.24826073    0.24826073
     atom    7 type  2   force =    -0.24826073    0.24826073    0.24826073
     atom    8 type  2   force =    -0.24826073   -0.24826073   -0.24826073
     The core correction contribution to forces
     atom    1 type  1   force =    -0.00103217   -0.00103217    0.00103217
     atom    2 type  1   force =    -0.00103217    0.00103217   -0.00103217
     atom    3 type  1   force =     0.00103217   -0.00103217   -0.00103217
     atom    4 type  1   force =     0.00103217    0.00103217    0.00103217
     atom    5 type  2   force =     0.00079517    0.00079517   -0.00079517
     atom    6 type  2   force =     0.00079517   -0.00079517    0.00079517
     atom    7 type  2   force =    -0.00079517    0.00079517    0.00079517
     atom    8 type  2   force =    -0.00079517   -0.00079517   -0.00079517
     The Hubbard contrib.    to forces
     atom    1 type  1   force =     0.00000000    0.00000000    0.00000000
     atom    2 type  1   force =     0.00000000    0.00000000    0.00000000
     atom    3 type  1   force =     0.00000000    0.00000000    0.00000000
     atom    4 type  1   force =     0.00000000    0.00000000    0.00000000
     atom    5 type  2   force =     0.00000000    0.00000000    0.00000000
     atom    6 type  2   force =     0.00000000    0.00000000    0.00000000
     atom    7 type  2   force =     0.00000000    0.00000000    0.00000000
     atom    8 type  2   force =     0.00000000    0.00000000    0.00000000
     The SCF correction term to forces
     atom    1 type  1   force =     0.00011059    0.00011059   -0.00011059
     atom    2 type  1   force =     0.00011059   -0.00011059    0.00011059
     atom    3 type  1   force =    -0.00011059    0.00011059    0.00011059
     atom    4 type  1   force =    -0.00011059   -0.00011059   -0.00011059
     atom    5 type  2   force =    -0.00000642   -0.00000642    0.00000642
     atom    6 type  2   force =    -0.00000642    0.00000642   -0.00000642
     atom    7 type  2   force =     0.00000642   -0.00000642   -0.00000642
     atom    8 type  2   force =     0.00000642    0.00000642    0.00000642

     Total force =     0.017724     Total SCF correction =     0.000384


     Computing stress (Cartesian axis) and pressure

          total   stress  (Ry/bohr**3)                   (kbar)     P=      -42.33
  -0.00028775   0.00000000   0.00000000          -42.33        0.00        0.00
   0.00000000  -0.00028775   0.00000000            0.00      -42.33        0.00
   0.00000000   0.00000000  -0.00028775            0.00        0.00      -42.33

     kinetic stress (kbar)  35759.60      0.00      0.00
                                0.00  35759.60      0.00
                                0.00      0.00  35759.60

     local   stress (kbar) -10012.33     -0.00     -0.00
                               -0.00 -10012.33     -0.00
                               -0.00     -0.00 -10012.33

     nonloc. stress (kbar)   2427.34      0.00      0.00
                                0.00   2427.34      0.00
                                0.00      0.00   2427.34

     hartree stress (kbar)  15166.89      0.00     -0.00
                                0.00  15166.89      0.00
                               -0.00      0.00  15166.89

     exc-cor stress (kbar)  -1706.56     -0.00     -0.00
                               -0.00  -1706.56     -0.00
                               -0.00     -0.00  -1706.56

     corecor stress (kbar)  -5304.38      0.00     -0.00
                                0.00  -5304.38     -0.00
                               -0.00     -0.00  -5304.38

     ewald   stress (kbar) -36372.90      0.00      0.00
                                0.00 -36372.90      0.00
                                0.00      0.00 -36372.90

     hubbard stress (kbar)      0.00      0.00      0.00
                                0.00      0.00      0.00
                                0.00      0.00      0.00

     DFT-D   stress (kbar)      0.00      0.00      0.00
                                0.00      0.00      0.00
                                0.00      0.00      0.00

     XDM     stress (kbar)      0.00      0.00      0.00
                                0.00      0.00      0.00
                                0.00      0.00      0.00

     dft-nl  stress (kbar)      0.00      0.00      0.00
                                0.00      0.00      0.00
                                0.00      0.00      0.00

     TS-vdW  stress (kbar)      0.00      0.00      0.00
                                0.00      0.00      0.00
                                0.00      0.00      0.00



     Writing output data file /zfs_data/vergnior/martin/Scratch/OAL/CrSi/convergence/smearing/12x12x12/0.014/tmp/CrSi.save/
 
     init_run     :     17.96s CPU     18.54s WALL (       1 calls)
     electrons    :    571.56s CPU    581.84s WALL (       1 calls)
     forces       :     17.55s CPU     17.68s WALL (       1 calls)
     stress       :     43.08s CPU     43.41s WALL (       1 calls)

     Called by init_run:
     wfcinit      :     16.75s CPU     17.17s WALL (       1 calls)
     wfcinit:atom :      0.15s CPU      0.15s WALL (     119 calls)
     wfcinit:wfcr :     15.95s CPU     16.35s WALL (     119 calls)
     potinit      :      0.19s CPU      0.26s WALL (       1 calls)
     hinit0       :      0.18s CPU      0.18s WALL (       1 calls)

     Called by electrons:
     c_bands      :    475.71s CPU    483.12s WALL (       9 calls)
     sum_band     :     90.49s CPU     92.71s WALL (       9 calls)
     v_of_rho     :      0.21s CPU      0.22s WALL (       9 calls)
     v_h          :      0.02s CPU      0.02s WALL (       9 calls)
     v_xc         :      0.24s CPU      0.25s WALL (      11 calls)
     newd         :      4.40s CPU      5.06s WALL (       9 calls)
     PAW_pot      :      1.13s CPU      1.15s WALL (       9 calls)
     mix_rho      :      0.13s CPU      0.13s WALL (       9 calls)

     Called by c_bands:
     init_us_2    :      2.65s CPU      2.69s WALL (    2499 calls)
     cegterg      :    433.92s CPU    440.99s WALL (    1071 calls)

     Called by sum_band:
     sum_band:wei :      0.14s CPU      0.15s WALL (       9 calls)
     sum_band:loo :     87.17s CPU     88.58s WALL (       9 calls)
     sum_band:buf :      0.76s CPU      0.85s WALL (    1071 calls)
     sum_band:ini :      1.17s CPU      1.19s WALL (    1071 calls)
     sum_band:cal :      5.78s CPU      5.80s WALL (    1071 calls)
     sum_band:bec :     13.80s CPU     13.84s WALL (    1071 calls)
     addusdens    :      3.00s CPU      3.80s WALL (       9 calls)
     addusd:skk   :      0.00s CPU      0.01s WALL (      18 calls)
     addusd:dgemm :      1.17s CPU      1.94s WALL (      18 calls)
     addusd:qvan2 :      1.78s CPU      1.79s WALL (      18 calls)

     Called by *egterg:
     cdiaghg      :     41.25s CPU     41.40s WALL (    5772 calls)
     cegterg:over :     23.23s CPU     23.33s WALL (    4820 calls)
     cegterg:upda :     11.68s CPU     11.75s WALL (    4820 calls)
     cegterg:last :     23.07s CPU     23.16s WALL (    3101 calls)
     h_psi        :    295.95s CPU    302.82s WALL (    6010 calls)
     s_psi        :     42.80s CPU     42.96s WALL (    6010 calls)
     g_psi        :      0.69s CPU      0.70s WALL (    4820 calls)

     Called by h_psi:
     h_psi:calbec :     20.79s CPU     20.94s WALL (    6010 calls)
     vloc_psi     :    234.29s CPU    240.77s WALL (    6010 calls)
     add_vuspsi   :     39.44s CPU     39.65s WALL (    6010 calls)

     General routines
     calbec       :     29.70s CPU     29.90s WALL (    7676 calls)
     fft          :      0.22s CPU      0.22s WALL (     216 calls)
     ffts         :      0.02s CPU      0.09s WALL (      72 calls)
     fftw         :    211.19s CPU    216.80s WALL ( 1463648 calls)
     interpolate  :      0.05s CPU      0.12s WALL (      36 calls)
 
     Parallel routines
     fft_scatt_xy :     21.44s CPU     22.02s WALL ( 1463936 calls)
     fft_scatt_yz :     79.11s CPU     81.19s WALL ( 1463936 calls)

     PAW routines
     PAW_pot      :      1.13s CPU      1.15s WALL (       9 calls)
     PAW_symme    :      0.02s CPU      0.02s WALL (      18 calls)
 
     PWSCF        :  10m54.83s CPU  11m10.97s WALL

 
   This run was terminated on:  12:51:58   1Aug2021            

=------------------------------------------------------------------------------=
   JOB DONE.
=------------------------------------------------------------------------------=
