
     Program PWSCF v.6.7MaX starts on 18May2022 at 17:50: 4 

     This program is part of the open-source Quantum ESPRESSO suite
     for quantum simulation of materials; please cite
         "P. Giannozzi et al., J. Phys.:Condens. Matter 21 395502 (2009);
         "P. Giannozzi et al., J. Phys.:Condens. Matter 29 465901 (2017);
          URL http://www.quantum-espresso.org", 
     in publications or presentations arising from this work. More details at
     http://www.quantum-espresso.org/quote

     Parallel version (MPI), running on    48 processors

     MPI processes distributed on     1 nodes
     R & G space division:  proc/nbgrp/npool/nimage =      48
     Waiting for input...
     Reading input from standard input

     Current dimensions of program PWSCF are:
     Max number of different atomic species (ntypx) = 10
     Max number of k-points (npk) =  40000
     Max angular momentum in pseudopotentials (lmaxx) =  3
     file O.pbe-nl-kjpaw_psl.1.0.0.UPF: wavefunction(s)  2S 2P renormalized
     file Cl.pbe-nl-kjpaw_psl.1.0.0.UPF: wavefunction(s)  3S renormalized
     file Nb.pbe-spn-kjpaw_psl.1.0.0.UPF: wavefunction(s)  4S 4P 4D renormalized

     Subspace diagonalization in iterative solution of the eigenvalue problem:
     a serial algorithm will be used

     Message from routine setup:
     using ibrav=0 with symmetry is DISCOURAGED, use correct ibrav instead
 
     Parallelization info
     --------------------
     sticks:   dense  smooth     PW     G-vecs:    dense   smooth      PW
     Min         226      90     28                 8011     2025     357
     Max         227      91     29                 8013     2026     359
     Sum       10861    4353   1363               384583    97215   17183
 


     bravais-lattice index     =            0
     lattice parameter (alat)  =      12.6717  a.u.
     unit-cell volume          =     547.9313 (a.u.)^3
     number of atoms/cell      =            4
     number of atomic types    =            3
     number of electrons       =        33.00
     number of Kohn-Sham states=           21
     kinetic-energy cutoff     =     120.0000  Ry
     charge density cutoff     =    1200.0000  Ry
     scf convergence threshold =      1.0E-10
     mixing beta               =       0.7000
     number of iterations used =            8  plain     mixing
     Exchange-correlation= SLA  PW   PBX  PBC
                           (   1   4   3   4   0   0   0)

     celldm(1)=  12.671676  celldm(2)=   0.000000  celldm(3)=   0.000000
     celldm(4)=   0.000000  celldm(5)=   0.000000  celldm(6)=   0.000000

     crystal axes: (cart. coord. in units of alat)
               a(1) = (  -0.250426   0.291161   0.923316 )  
               a(2) = (   0.250426  -0.291161   0.923316 )  
               a(3) = (   0.250426   0.291161  -0.923316 )  

     reciprocal axes: (cart. coord. in units 2 pi/alat)
               b(1) = (  0.000000  1.717261  0.541527 )  
               b(2) = (  1.996594  0.000000  0.541527 )  
               b(3) = (  1.996594  1.717261  0.000000 )  


     PseudoPot. # 1 for O  read from file:
     /zfs_data/gutierre/Scratch/Cl2NbO/smearing/8x8x8/0.003/pseudo/O.pbe-nl-kjpaw_psl.1.0.0.UPF
     MD5 check sum: df3ddea38124b4e5de5e1084591730e4
     Pseudo is Projector augmented-wave + core cor, Zval =  6.0
     Generated using 'atomic' code by A. Dal Corso  v.6.7MaX
     Shape of augmentation charge: PSQ
     Using radial grid of 1095 points,  4 beta functions with: 
                l(1) =   0
                l(2) =   0
                l(3) =   1
                l(4) =   1
     Q(r) pseudized with 0 coefficients 


     PseudoPot. # 2 for Cl read from file:
     /zfs_data/gutierre/Scratch/Cl2NbO/smearing/8x8x8/0.003/pseudo/Cl.pbe-nl-kjpaw_psl.1.0.0.UPF
     MD5 check sum: 8cf6bde52c08f6236e0f72a8870677af
     Pseudo is Projector augmented-wave + core cor, Zval =  7.0
     Generated using 'atomic' code by A. Dal Corso  v.6.7MaX
     Shape of augmentation charge: PSQ
     Using radial grid of 1157 points,  4 beta functions with: 
                l(1) =   0
                l(2) =   0
                l(3) =   1
                l(4) =   1
     Q(r) pseudized with 0 coefficients 


     PseudoPot. # 3 for Nb read from file:
     /zfs_data/gutierre/Scratch/Cl2NbO/smearing/8x8x8/0.003/pseudo/Nb.pbe-spn-kjpaw_psl.1.0.0.UPF
     MD5 check sum: 1ec1a3aa7bf3cbf7f7e0d720422bce7a
     Pseudo is Projector augmented-wave + core cor, Zval = 13.0
     Generated using 'atomic' code by A. Dal Corso  v.6.7MaX
     Shape of augmentation charge: PSQ
     Using radial grid of 1227 points,  6 beta functions with: 
                l(1) =   0
                l(2) =   0
                l(3) =   1
                l(4) =   1
                l(5) =   2
                l(6) =   2
     Q(r) pseudized with 0 coefficients 


     atomic species   valence    mass     pseudopotential
        O              6.00    15.99940     O ( 1.00)
        Cl             7.00    35.45150     Cl( 1.00)
        Nb            13.00    92.90637     Nb( 1.00)

      8 Sym. Ops., with inversion, found


                                    s                        frac. trans.

      isym =  1     identity                                     

 cryst.   s( 1) = (     1          0          0      )
                  (     0          1          0      )
                  (     0          0          1      )

 cart.    s( 1) = (  1.0000000  0.0000000  0.0000000 )
                  (  0.0000000  1.0000000  0.0000000 )
                  (  0.0000000  0.0000000  1.0000000 )


      isym =  2     180 deg rotation - cart. axis [0,0,1]        

 cryst.   s( 2) = (     0          1          0      )
                  (     1          0          0      )
                  (    -1         -1         -1      )

 cart.    s( 2) = ( -1.0000000  0.0000000  0.0000000 )
                  (  0.0000000 -1.0000000  0.0000000 )
                  (  0.0000000  0.0000000  1.0000000 )


      isym =  3     180 deg rotation - cart. axis [0,1,0]        

 cryst.   s( 3) = (     0          0          1      )
                  (    -1         -1         -1      )
                  (     1          0          0      )

 cart.    s( 3) = ( -1.0000000  0.0000000  0.0000000 )
                  (  0.0000000  1.0000000  0.0000000 )
                  (  0.0000000  0.0000000 -1.0000000 )


      isym =  4     180 deg rotation - cart. axis [1,0,0]        

 cryst.   s( 4) = (    -1         -1         -1      )
                  (     0          0          1      )
                  (     0          1          0      )

 cart.    s( 4) = (  1.0000000  0.0000000  0.0000000 )
                  (  0.0000000 -1.0000000  0.0000000 )
                  (  0.0000000  0.0000000 -1.0000000 )


      isym =  5     inversion                                    

 cryst.   s( 5) = (    -1          0          0      )
                  (     0         -1          0      )
                  (     0          0         -1      )

 cart.    s( 5) = ( -1.0000000  0.0000000  0.0000000 )
                  (  0.0000000 -1.0000000  0.0000000 )
                  (  0.0000000  0.0000000 -1.0000000 )


      isym =  6     inv. 180 deg rotation - cart. axis [0,0,1]   

 cryst.   s( 6) = (     0         -1          0      )
                  (    -1          0          0      )
                  (     1          1          1      )

 cart.    s( 6) = (  1.0000000  0.0000000  0.0000000 )
                  (  0.0000000  1.0000000  0.0000000 )
                  (  0.0000000  0.0000000 -1.0000000 )


      isym =  7     inv. 180 deg rotation - cart. axis [0,1,0]   

 cryst.   s( 7) = (     0          0         -1      )
                  (     1          1          1      )
                  (    -1          0          0      )

 cart.    s( 7) = (  1.0000000  0.0000000  0.0000000 )
                  (  0.0000000 -1.0000000  0.0000000 )
                  (  0.0000000  0.0000000  1.0000000 )


      isym =  8     inv. 180 deg rotation - cart. axis [1,0,0]   

 cryst.   s( 8) = (     1          1          1      )
                  (     0          0         -1      )
                  (     0         -1          0      )

 cart.    s( 8) = ( -1.0000000  0.0000000  0.0000000 )
                  (  0.0000000  1.0000000  0.0000000 )
                  (  0.0000000  0.0000000  1.0000000 )


   Cartesian axes

     site n.     atom                  positions (alat units)
         1           O   tau(   1) = (   0.0000000   0.2911613   0.0000000  )
         2           Cl  tau(   2) = (  -0.0000000   0.2911613   0.6365338  )
         3           Cl  tau(   3) = (   0.2504264  -0.0000000   0.2867819  )
         4           Nb  tau(   4) = (   0.0000000   0.0000000   0.0000000  )

   Crystallographic axes

     site n.     atom                  positions (cryst. coord.)
         1           O   tau(   1) = (  0.5000000  0.0000000  0.5000000  )
         2           Cl  tau(   2) = (  0.8447000  0.3447000  0.5000000  )
         3           Cl  tau(   3) = (  0.1553000  0.6553000  0.5000000  )
         4           Nb  tau(   4) = (  0.0000000  0.0000000  0.0000000  )

     number of k points=    95  Methfessel-Paxton smearing, width (Ry)=  0.0030
                       cart. coord. in units 2pi/alat
        k(    1) = (   0.0000000   0.0000000   0.0000000), wk =   0.0039062
        k(    2) = (   0.2495743   0.2146577   0.0000000), wk =   0.0156250
        k(    3) = (   0.4991486   0.4293153   0.0000000), wk =   0.0156250
        k(    4) = (   0.7487229   0.6439730   0.0000000), wk =   0.0156250
        k(    5) = (  -0.9982971  -0.8586307   0.0000000), wk =   0.0078125
        k(    6) = (   0.2495743   0.0000000   0.0676908), wk =   0.0156250
        k(    7) = (   0.4991486   0.2146577   0.0676908), wk =   0.0312500
        k(    8) = (   0.7487229   0.4293153   0.0676908), wk =   0.0312500
        k(    9) = (   0.9982971   0.6439730   0.0676908), wk =   0.0312500
        k(   10) = (  -0.7487229  -0.8586307   0.0676908), wk =   0.0312500
        k(   11) = (  -0.4991486  -0.6439730   0.0676908), wk =   0.0312500
        k(   12) = (  -0.2495743  -0.4293153   0.0676908), wk =   0.0312500
        k(   13) = (   0.0000000  -0.2146577   0.0676908), wk =   0.0156250
        k(   14) = (   0.4991486   0.0000000   0.1353817), wk =   0.0156250
        k(   15) = (   0.7487229   0.2146577   0.1353817), wk =   0.0312500
        k(   16) = (   0.9982971   0.4293153   0.1353817), wk =   0.0312500
        k(   17) = (   1.2478714   0.6439730   0.1353817), wk =   0.0312500
        k(   18) = (  -0.4991486  -0.8586307   0.1353817), wk =   0.0312500
        k(   19) = (  -0.2495743  -0.6439730   0.1353817), wk =   0.0312500
        k(   20) = (   0.0000000  -0.4293153   0.1353817), wk =   0.0156250
        k(   21) = (   0.2495743  -0.2146577   0.1353817), wk =   0.0312500
        k(   22) = (   0.7487229   0.0000000   0.2030725), wk =   0.0156250
        k(   23) = (   0.9982971   0.2146577   0.2030725), wk =   0.0312500
        k(   24) = (   1.2478714   0.4293153   0.2030725), wk =   0.0312500
        k(   25) = (   1.4974457   0.6439730   0.2030725), wk =   0.0312500
        k(   26) = (  -0.2495743  -0.8586307   0.2030725), wk =   0.0312500
        k(   27) = (   0.0000000  -0.6439730   0.2030725), wk =   0.0156250
        k(   28) = (   0.2495743  -0.4293153   0.2030725), wk =   0.0312500
        k(   29) = (   0.4991486  -0.2146577   0.2030725), wk =   0.0312500
        k(   30) = (  -0.9982971   0.0000000  -0.2707633), wk =   0.0078125
        k(   31) = (  -0.7487229   0.2146577  -0.2707633), wk =   0.0312500
        k(   32) = (  -0.4991486   0.4293153  -0.2707633), wk =   0.0312500
        k(   33) = (  -0.2495743   0.6439730  -0.2707633), wk =   0.0312500
        k(   34) = (  -1.9965943  -0.8586307  -0.2707633), wk =   0.0078125
        k(   35) = (   0.4991486   0.4293153   0.1353817), wk =   0.0312500
        k(   36) = (   0.7487229   0.6439730   0.1353817), wk =   0.0312500
        k(   37) = (   0.9982971   0.8586307   0.1353817), wk =   0.0156250
        k(   38) = (   0.0000000   0.0000000   0.1353817), wk =   0.0078125
        k(   39) = (   0.7487229   0.4293153   0.2030725), wk =   0.0312500
        k(   40) = (   0.9982971   0.6439730   0.2030725), wk =   0.0312500
        k(   41) = (   1.2478714   0.8586307   0.2030725), wk =   0.0312500
        k(   42) = (  -0.4991486  -0.6439730   0.2030725), wk =   0.0312500
        k(   43) = (   0.0000000  -0.2146577   0.2030725), wk =   0.0156250
        k(   44) = (   0.2495743   0.0000000   0.2030725), wk =   0.0156250
        k(   45) = (   0.9982971   0.4293153   0.2707633), wk =   0.0156250
        k(   46) = (   1.2478714   0.6439730   0.2707633), wk =   0.0312500
        k(   47) = (   1.4974457   0.8586307   0.2707633), wk =   0.0156250
        k(   48) = (   0.0000000  -0.4293153   0.2707633), wk =   0.0156250
        k(   49) = (   0.2495743  -0.2146577   0.2707633), wk =   0.0312500
        k(   50) = (   0.4991486   0.0000000   0.2707633), wk =   0.0156250
        k(   51) = (  -1.9965943  -0.6439730  -0.2030725), wk =   0.0156250
        k(   52) = (  -1.7470200  -0.4293153  -0.2030725), wk =   0.0312500
        k(   53) = (  -1.4974457  -0.2146577  -0.2030725), wk =   0.0312500
        k(   54) = (  -1.2478714   0.0000000  -0.2030725), wk =   0.0156250
        k(   55) = (   0.0000000   0.8586307  -0.1353817), wk =   0.0156250
        k(   56) = (  -1.7470200  -0.6439730  -0.1353817), wk =   0.0312500
        k(   57) = (  -1.4974457  -0.4293153  -0.1353817), wk =   0.0312500
        k(   58) = (  -1.2478714  -0.2146577  -0.1353817), wk =   0.0312500
        k(   59) = (  -0.9982971   0.0000000  -0.1353817), wk =   0.0156250
        k(   60) = (   0.0000000   0.6439730  -0.0676908), wk =   0.0156250
        k(   61) = (   0.2495743   0.8586307  -0.0676908), wk =   0.0312500
        k(   62) = (  -1.4974457  -0.6439730  -0.0676908), wk =   0.0312500
        k(   63) = (  -1.2478714  -0.4293153  -0.0676908), wk =   0.0312500
        k(   64) = (  -0.9982971  -0.2146577  -0.0676908), wk =   0.0312500
        k(   65) = (  -0.7487229   0.0000000  -0.0676908), wk =   0.0156250
        k(   66) = (   0.0000000   0.4293153   0.0000000), wk =   0.0078125
        k(   67) = (   0.2495743   0.6439730   0.0000000), wk =   0.0156250
        k(   68) = (   0.4991486   0.8586307   0.0000000), wk =   0.0156250
        k(   69) = (  -1.2478714  -0.6439730   0.0000000), wk =   0.0156250
        k(   70) = (  -0.9982971  -0.4293153   0.0000000), wk =   0.0156250
        k(   71) = (  -0.7487229  -0.2146577   0.0000000), wk =   0.0156250
        k(   72) = (  -0.4991486   0.0000000   0.0000000), wk =   0.0078125
        k(   73) = (   0.9982971   0.8586307   0.2707633), wk =   0.0078125
        k(   74) = (   0.0000000   0.0000000   0.2707633), wk =   0.0078125
        k(   75) = (   0.0000000  -0.2146577   0.3384542), wk =   0.0156250
        k(   76) = (   0.2495743   0.0000000   0.3384542), wk =   0.0156250
        k(   77) = (  -1.9965943  -0.4293153  -0.1353817), wk =   0.0156250
        k(   78) = (  -1.7470200  -0.2146577  -0.1353817), wk =   0.0312500
        k(   79) = (  -1.4974457   0.0000000  -0.1353817), wk =   0.0156250
        k(   80) = (   0.0000000   1.0732883  -0.0676908), wk =   0.0156250
        k(   81) = (  -1.7470200  -0.4293153  -0.0676908), wk =   0.0312500
        k(   82) = (  -1.4974457  -0.2146577  -0.0676908), wk =   0.0312500
        k(   83) = (  -1.2478714   0.0000000  -0.0676908), wk =   0.0156250
        k(   84) = (   0.0000000   0.8586307   0.0000000), wk =   0.0078125
        k(   85) = (   0.2495743   1.0732883   0.0000000), wk =   0.0156250
        k(   86) = (  -1.4974457  -0.4293153   0.0000000), wk =   0.0156250
        k(   87) = (  -1.2478714  -0.2146577   0.0000000), wk =   0.0156250
        k(   88) = (  -0.9982971   0.0000000   0.0000000), wk =   0.0078125
        k(   89) = (   0.0000000   0.0000000   0.4061450), wk =   0.0078125
        k(   90) = (  -1.9965943  -0.2146577  -0.0676908), wk =   0.0156250
        k(   91) = (  -1.7470200   0.0000000  -0.0676908), wk =   0.0156250
        k(   92) = (   0.0000000   1.2879460   0.0000000), wk =   0.0078125
        k(   93) = (  -1.7470200  -0.2146577   0.0000000), wk =   0.0156250
        k(   94) = (  -1.4974457   0.0000000   0.0000000), wk =   0.0078125
        k(   95) = (  -1.9965943  -1.7172613  -0.5415266), wk =   0.0039062

                       cryst. coord.
        k(    1) = (   0.0000000   0.0000000   0.0000000), wk =   0.0039062
        k(    2) = (   0.0000000   0.0000000   0.1250000), wk =   0.0156250
        k(    3) = (   0.0000000   0.0000000   0.2500000), wk =   0.0156250
        k(    4) = (  -0.0000000   0.0000000   0.3750000), wk =   0.0156250
        k(    5) = (   0.0000000   0.0000000  -0.5000000), wk =   0.0078125
        k(    6) = (   0.0000000   0.1250000   0.0000000), wk =   0.0156250
        k(    7) = (   0.0000000   0.1250000   0.1250000), wk =   0.0312500
        k(    8) = (   0.0000000   0.1250000   0.2500000), wk =   0.0312500
        k(    9) = (  -0.0000000   0.1250000   0.3750000), wk =   0.0312500
        k(   10) = (   0.0000000   0.1250000  -0.5000000), wk =   0.0312500
        k(   11) = (   0.0000000   0.1250000  -0.3750000), wk =   0.0312500
        k(   12) = (   0.0000000   0.1250000  -0.2500000), wk =   0.0312500
        k(   13) = (   0.0000000   0.1250000  -0.1250000), wk =   0.0156250
        k(   14) = (   0.0000000   0.2500000   0.0000000), wk =   0.0156250
        k(   15) = (   0.0000000   0.2500000   0.1250000), wk =   0.0312500
        k(   16) = (   0.0000000   0.2500000   0.2500000), wk =   0.0312500
        k(   17) = (  -0.0000000   0.2500000   0.3750000), wk =   0.0312500
        k(   18) = (   0.0000000   0.2500000  -0.5000000), wk =   0.0312500
        k(   19) = (   0.0000000   0.2500000  -0.3750000), wk =   0.0312500
        k(   20) = (   0.0000000   0.2500000  -0.2500000), wk =   0.0156250
        k(   21) = (   0.0000000   0.2500000  -0.1250000), wk =   0.0312500
        k(   22) = (   0.0000000   0.3750000   0.0000000), wk =   0.0156250
        k(   23) = (   0.0000000   0.3750000   0.1250000), wk =   0.0312500
        k(   24) = (  -0.0000000   0.3750000   0.2500000), wk =   0.0312500
        k(   25) = (  -0.0000000   0.3750000   0.3750000), wk =   0.0312500
        k(   26) = (   0.0000000   0.3750000  -0.5000000), wk =   0.0312500
        k(   27) = (   0.0000000   0.3750000  -0.3750000), wk =   0.0156250
        k(   28) = (   0.0000000   0.3750000  -0.2500000), wk =   0.0312500
        k(   29) = (   0.0000000   0.3750000  -0.1250000), wk =   0.0312500
        k(   30) = (   0.0000000  -0.5000000   0.0000000), wk =   0.0078125
        k(   31) = (   0.0000000  -0.5000000   0.1250000), wk =   0.0312500
        k(   32) = (   0.0000000  -0.5000000   0.2500000), wk =   0.0312500
        k(   33) = (   0.0000000  -0.5000000   0.3750000), wk =   0.0312500
        k(   34) = (   0.0000000  -0.5000000  -0.5000000), wk =   0.0078125
        k(   35) = (   0.1250000   0.1250000   0.1250000), wk =   0.0312500
        k(   36) = (   0.1250000   0.1250000   0.2500000), wk =   0.0312500
        k(   37) = (   0.1250000   0.1250000   0.3750000), wk =   0.0156250
        k(   38) = (   0.1250000   0.1250000  -0.1250000), wk =   0.0078125
        k(   39) = (   0.1250000   0.2500000   0.1250000), wk =   0.0312500
        k(   40) = (   0.1250000   0.2500000   0.2500000), wk =   0.0312500
        k(   41) = (   0.1250000   0.2500000   0.3750000), wk =   0.0312500
        k(   42) = (   0.1250000   0.2500000  -0.5000000), wk =   0.0312500
        k(   43) = (   0.1250000   0.2500000  -0.2500000), wk =   0.0156250
        k(   44) = (   0.1250000   0.2500000  -0.1250000), wk =   0.0156250
        k(   45) = (   0.1250000   0.3750000   0.1250000), wk =   0.0156250
        k(   46) = (   0.1250000   0.3750000   0.2500000), wk =   0.0312500
        k(   47) = (   0.1250000   0.3750000   0.3750000), wk =   0.0156250
        k(   48) = (   0.1250000   0.3750000  -0.3750000), wk =   0.0156250
        k(   49) = (   0.1250000   0.3750000  -0.2500000), wk =   0.0312500
        k(   50) = (   0.1250000   0.3750000  -0.1250000), wk =   0.0156250
        k(   51) = (   0.1250000  -0.5000000  -0.5000000), wk =   0.0156250
        k(   52) = (   0.1250000  -0.5000000  -0.3750000), wk =   0.0312500
        k(   53) = (   0.1250000  -0.5000000  -0.2500000), wk =   0.0312500
        k(   54) = (   0.1250000  -0.5000000  -0.1250000), wk =   0.0156250
        k(   55) = (   0.1250000  -0.3750000   0.3750000), wk =   0.0156250
        k(   56) = (   0.1250000  -0.3750000  -0.5000000), wk =   0.0312500
        k(   57) = (   0.1250000  -0.3750000  -0.3750000), wk =   0.0312500
        k(   58) = (   0.1250000  -0.3750000  -0.2500000), wk =   0.0312500
        k(   59) = (   0.1250000  -0.3750000  -0.1250000), wk =   0.0156250
        k(   60) = (   0.1250000  -0.2500000   0.2500000), wk =   0.0156250
        k(   61) = (   0.1250000  -0.2500000   0.3750000), wk =   0.0312500
        k(   62) = (   0.1250000  -0.2500000  -0.5000000), wk =   0.0312500
        k(   63) = (   0.1250000  -0.2500000  -0.3750000), wk =   0.0312500
        k(   64) = (   0.1250000  -0.2500000  -0.2500000), wk =   0.0312500
        k(   65) = (   0.1250000  -0.2500000  -0.1250000), wk =   0.0156250
        k(   66) = (   0.1250000  -0.1250000   0.1250000), wk =   0.0078125
        k(   67) = (   0.1250000  -0.1250000   0.2500000), wk =   0.0156250
        k(   68) = (   0.1250000  -0.1250000   0.3750000), wk =   0.0156250
        k(   69) = (   0.1250000  -0.1250000  -0.5000000), wk =   0.0156250
        k(   70) = (   0.1250000  -0.1250000  -0.3750000), wk =   0.0156250
        k(   71) = (   0.1250000  -0.1250000  -0.2500000), wk =   0.0156250
        k(   72) = (   0.1250000  -0.1250000  -0.1250000), wk =   0.0078125
        k(   73) = (   0.2500000   0.2500000   0.2500000), wk =   0.0078125
        k(   74) = (   0.2500000   0.2500000  -0.2500000), wk =   0.0078125
        k(   75) = (   0.2500000   0.3750000  -0.3750000), wk =   0.0156250
        k(   76) = (   0.2500000   0.3750000  -0.2500000), wk =   0.0156250
        k(   77) = (   0.2500000  -0.5000000  -0.5000000), wk =   0.0156250
        k(   78) = (   0.2500000  -0.5000000  -0.3750000), wk =   0.0312500
        k(   79) = (   0.2500000  -0.5000000  -0.2500000), wk =   0.0156250
        k(   80) = (   0.2500000  -0.3750000   0.3750000), wk =   0.0156250
        k(   81) = (   0.2500000  -0.3750000  -0.5000000), wk =   0.0312500
        k(   82) = (   0.2500000  -0.3750000  -0.3750000), wk =   0.0312500
        k(   83) = (   0.2500000  -0.3750000  -0.2500000), wk =   0.0156250
        k(   84) = (   0.2500000  -0.2500000   0.2500000), wk =   0.0078125
        k(   85) = (   0.2500000  -0.2500000   0.3750000), wk =   0.0156250
        k(   86) = (   0.2500000  -0.2500000  -0.5000000), wk =   0.0156250
        k(   87) = (   0.2500000  -0.2500000  -0.3750000), wk =   0.0156250
        k(   88) = (   0.2500000  -0.2500000  -0.2500000), wk =   0.0078125
        k(   89) = (   0.3750000   0.3750000  -0.3750000), wk =   0.0078125
        k(   90) = (   0.3750000  -0.5000000  -0.5000000), wk =   0.0156250
        k(   91) = (   0.3750000  -0.5000000  -0.3750000), wk =   0.0156250
        k(   92) = (   0.3750000  -0.3750000   0.3750000), wk =   0.0078125
        k(   93) = (   0.3750000  -0.3750000  -0.5000000), wk =   0.0156250
        k(   94) = (   0.3750000  -0.3750000  -0.3750000), wk =   0.0078125
        k(   95) = (  -0.5000000  -0.5000000  -0.5000000), wk =   0.0039062

     Dense  grid:   384583 G-vectors     FFT dimensions: ( 144, 144, 144)

     Smooth grid:    97215 G-vectors     FFT dimensions: (  90,  90,  90)

     Dynamical RAM for                 wfc:       0.08 MB

     Dynamical RAM for     wfc (w. buffer):       7.78 MB

     Dynamical RAM for           str. fact:       0.37 MB

     Dynamical RAM for           local pot:       0.00 MB

     Dynamical RAM for          nlocal pot:       0.16 MB

     Dynamical RAM for                qrad:       8.33 MB

     Dynamical RAM for          rho,v,vnew:       1.79 MB

     Dynamical RAM for               rhoin:       0.60 MB

     Dynamical RAM for            rho*nmix:       1.96 MB

     Dynamical RAM for           G-vectors:       0.47 MB

     Dynamical RAM for          h,s,v(r/c):       0.08 MB

     Dynamical RAM for          <psi|beta>:       0.01 MB

     Dynamical RAM for                 psi:       0.16 MB

     Dynamical RAM for                hpsi:       0.16 MB

     Dynamical RAM for                spsi:       0.16 MB

     Dynamical RAM for      wfcinit/wfcrot:       0.21 MB

     Dynamical RAM for           addusdens:      22.98 MB

     Dynamical RAM for          addusforce:      23.30 MB

     Dynamical RAM for         addusstress:      24.57 MB

     Estimated static dynamical RAM per process >      24.33 MB

     Estimated max dynamical RAM per process >      48.90 MB

     Estimated total dynamical RAM >       2.29 GB

     Initial potential from superposition of free atoms

     starting charge   32.99867, renormalised to   33.00000
     Starting wfcs are   25 randomized atomic wfcs
     Checking if some PAW data can be deallocated... 
       PAW data deallocated on   36 nodes for type:  1
       PAW data deallocated on   24 nodes for type:  2
       PAW data deallocated on   36 nodes for type:  3

     total cpu time spent up to now is        3.4 secs

     Self-consistent Calculation

     iteration #  1     ecut=   120.00 Ry     beta= 0.70
     Davidson diagonalization with overlap
     ethr =  1.00E-02,  avg # of iterations =  2.3

     total cpu time spent up to now is        8.2 secs

     total energy              =    -534.52433817 Ry
     estimated scf accuracy    <       0.76446050 Ry

     iteration #  2     ecut=   120.00 Ry     beta= 0.70
     Davidson diagonalization with overlap
     ethr =  2.32E-03,  avg # of iterations =  3.5

     total cpu time spent up to now is       13.9 secs

     total energy              =    -533.66801817 Ry
     estimated scf accuracy    <       8.17957534 Ry

     iteration #  3     ecut=   120.00 Ry     beta= 0.70
     Davidson diagonalization with overlap
     ethr =  2.32E-03,  avg # of iterations =  3.5

     total cpu time spent up to now is       19.2 secs

     total energy              =    -534.97339320 Ry
     estimated scf accuracy    <       0.12029315 Ry

     iteration #  4     ecut=   120.00 Ry     beta= 0.70
     Davidson diagonalization with overlap
     ethr =  3.65E-04,  avg # of iterations =  1.4

     total cpu time spent up to now is       23.5 secs

     total energy              =    -534.96771613 Ry
     estimated scf accuracy    <       0.05805880 Ry

     iteration #  5     ecut=   120.00 Ry     beta= 0.70
     Davidson diagonalization with overlap
     ethr =  1.76E-04,  avg # of iterations =  1.5

     total cpu time spent up to now is       27.8 secs

     total energy              =    -534.96363837 Ry
     estimated scf accuracy    <       0.02397349 Ry

     iteration #  6     ecut=   120.00 Ry     beta= 0.70
     Davidson diagonalization with overlap
     ethr =  7.26E-05,  avg # of iterations =  2.0

     total cpu time spent up to now is       32.3 secs

     total energy              =    -534.96626174 Ry
     estimated scf accuracy    <       0.00067281 Ry

     iteration #  7     ecut=   120.00 Ry     beta= 0.70
     Davidson diagonalization with overlap
     ethr =  2.04E-06,  avg # of iterations =  3.6

     total cpu time spent up to now is       38.0 secs

     total energy              =    -534.96646557 Ry
     estimated scf accuracy    <       0.00019408 Ry

     iteration #  8     ecut=   120.00 Ry     beta= 0.70
     Davidson diagonalization with overlap
     ethr =  5.88E-07,  avg # of iterations =  1.9

     total cpu time spent up to now is       42.4 secs

     total energy              =    -534.96647912 Ry
     estimated scf accuracy    <       0.00001536 Ry

     iteration #  9     ecut=   120.00 Ry     beta= 0.70
     Davidson diagonalization with overlap
     ethr =  4.66E-08,  avg # of iterations =  2.9

     total cpu time spent up to now is       47.3 secs

     total energy              =    -534.96648311 Ry
     estimated scf accuracy    <       0.00000031 Ry

     iteration # 10     ecut=   120.00 Ry     beta= 0.70
     Davidson diagonalization with overlap
     ethr =  9.28E-10,  avg # of iterations =  4.5

     total cpu time spent up to now is       53.7 secs

     total energy              =    -534.96648330 Ry
     estimated scf accuracy    <       0.00000002 Ry

     iteration # 11     ecut=   120.00 Ry     beta= 0.70
     Davidson diagonalization with overlap
     ethr =  6.69E-11,  avg # of iterations =  3.3

     total cpu time spent up to now is       59.3 secs

     total energy              =    -534.96648331 Ry
     estimated scf accuracy    <       0.00000001 Ry

     iteration # 12     ecut=   120.00 Ry     beta= 0.70
     Davidson diagonalization with overlap
     ethr =  3.47E-11,  avg # of iterations =  2.0

     total cpu time spent up to now is       63.8 secs

     End of self-consistent calculation

          k = 0.0000 0.0000 0.0000 ( 12131 PWs)   bands (ev):

   -49.8390 -26.0471 -25.7910 -25.7215 -12.3732  -9.5210  -8.8317   0.6117
     2.4624   2.7393   2.8730   3.0102   3.4625   3.9432   4.2035   4.2829
     5.5005   7.2170   7.3600   8.6420   9.3911

     occupation numbers 
     1.0000   1.0000   1.0000   1.0000   1.0000   1.0000   1.0000   1.0000
     1.0000   1.0000   1.0000   1.0000   1.0000   1.0000   1.0000   1.0000
     1.0000  -0.0000  -0.0000  -0.0000  -0.0000

          k = 0.2496 0.2147 0.0000 ( 12121 PWs)   bands (ev):

   -49.8364 -26.0721 -25.7844 -25.7526 -12.1780  -9.4125  -8.8394   0.8235
     2.1244   2.2523   2.4510   2.9964   3.2899   3.5035   3.8857   4.0364
     5.9341   7.5268   7.6051   8.7463  10.0941

     occupation numbers 
     1.0000   1.0000   1.0000   1.0000   1.0000   1.0000   1.0000   1.0000
     1.0000   1.0000   1.0000   1.0000   1.0000   1.0000   1.0000   1.0000
     1.0000  -0.0000  -0.0000  -0.0000  -0.0000

          k = 0.4991 0.4293 0.0000 ( 12152 PWs)   bands (ev):

   -49.8300 -26.1309 -25.8266 -25.7685 -11.6790  -9.1351  -8.8616   1.1178
     1.3986   1.7357   1.8942   2.0093   2.1846   2.9200   3.8474   4.0141
     6.8049   8.1651   8.2792   9.1557  11.1522

     occupation numbers 
     1.0000   1.0000   1.0000   1.0000   1.0000   1.0000   1.0000   1.0000
     1.0000   1.0000   1.0000   1.0000   1.0000   1.0000   1.0000   1.0000
     0.5971  -0.0000  -0.0000  -0.0000  -0.0000

          k = 0.7487 0.6440 0.0000 ( 12176 PWs)   bands (ev):

   -49.8237 -26.1873 -25.8991 -25.7526 -11.1294  -8.8889  -8.8306  -0.0625
     0.9808   1.2623   1.6631   1.7815   2.1819   2.3079   3.5233   3.9760
     7.8625   8.8533   9.0650   9.5721  11.3816

     occupation numbers 
     1.0000   1.0000   1.0000   1.0000   1.0000   1.0000   1.0000   1.0000
     1.0000   1.0000   1.0000   1.0000   1.0000   1.0000   1.0000   1.0000
    -0.0000  -0.0000  -0.0000  -0.0000  -0.0000

          k =-0.9983-0.8586 0.0000 ( 12140 PWs)   bands (ev):

   -49.8210 -26.2100 -25.9287 -25.7460 -10.8822  -8.9016  -8.6941  -0.5513
     0.6076   0.9543   1.7484   1.8274   1.9872   2.5679   3.2681   3.8804
     8.4624   9.1843   9.3796   9.7643  11.4054

     occupation numbers 
     1.0000   1.0000   1.0000   1.0000   1.0000   1.0000   1.0000   1.0000
     1.0000   1.0000   1.0000   1.0000   1.0000   1.0000   1.0000   1.0000
    -0.0000  -0.0000  -0.0000  -0.0000  -0.0000

          k = 0.2496 0.0000 0.0677 ( 12148 PWs)   bands (ev):

   -49.8369 -26.0445 -25.7854 -25.7535 -12.3559  -9.4318  -8.8447   0.8016
     2.2464   2.6641   2.9522   3.0633   3.1023   3.8040   3.9348   4.1227
     5.9185   7.1264   7.2998   8.7264   9.7703

     occupation numbers 
     1.0000   1.0000   1.0000   1.0000   1.0000   1.0000   1.0000   1.0000
     1.0000   1.0000   1.0000   1.0000   1.0000   1.0000   1.0000   1.0000
     1.0000  -0.0000  -0.0000  -0.0000  -0.0000

          k = 0.4991 0.2147 0.0677 ( 12153 PWs)   bands (ev):

   -49.8312 -26.0659 -25.8289 -25.7709 -12.1369  -9.1922  -8.8633   1.2316
     1.9010   2.0807   2.2405   2.4907   2.8965   3.0636   3.8724   4.0714
     6.7538   7.3224   7.4444   9.1583  10.5556

     occupation numbers 
     1.0000   1.0000   1.0000   1.0000   1.0000   1.0000   1.0000   1.0000
     1.0000   1.0000   1.0000   1.0000   1.0000   1.0000   1.0000   1.0000
     1.0329  -0.0000  -0.0000  -0.0000  -0.0000

          k = 0.7487 0.4293 0.0677 ( 12179 PWs)   bands (ev):

   -49.8249 -26.1242 -25.9017 -25.7549 -11.6396  -8.9138  -8.8670   1.0956
     1.2413   1.4456   1.6803   1.9096   2.2582   2.5442   3.7136   4.1147
     7.7161   8.0636   8.1766   9.6495  11.1277

     occupation numbers 
     1.0000   1.0000   1.0000   1.0000   1.0000   1.0000   1.0000   1.0000
     1.0000   1.0000   1.0000   1.0000   1.0000   1.0000   1.0000   1.0000
    -0.0000  -0.0000  -0.0000  -0.0000  -0.0000

          k = 0.9983 0.6440 0.0677 ( 12173 PWs)   bands (ev):

   -49.8215 -26.1843 -25.9298 -25.7470 -11.1139  -8.9136  -8.7074  -0.0497
     0.7516   0.9301   1.5570   1.9384   2.2158   2.5983   3.3430   3.9456
     8.4504   8.7802   9.0238   9.7481  11.2806

     occupation numbers 
     1.0000   1.0000   1.0000   1.0000   1.0000   1.0000   1.0000   1.0000
     1.0000   1.0000   1.0000   1.0000   1.0000   1.0000   1.0000   1.0000
    -0.0000  -0.0000  -0.0000  -0.0000  -0.0000

          k =-0.7487-0.8586 0.0677 ( 12172 PWs)   bands (ev):

   -49.8232 -26.2131 -25.8980 -25.7516 -10.8969  -8.9075  -8.7849  -0.5620
     0.7941   1.2431   1.4361   1.8085   2.3258   2.3987   3.4322   3.8233
     7.9140   9.2352   9.4271   9.4848  11.3409

     occupation numbers 
     1.0000   1.0000   1.0000   1.0000   1.0000   1.0000   1.0000   1.0000
     1.0000   1.0000   1.0000   1.0000   1.0000   1.0000   1.0000   1.0000
    -0.0000  -0.0000  -0.0000  -0.0000  -0.0000

          k =-0.4991-0.6440 0.0677 ( 12166 PWs)   bands (ev):

   -49.8288 -26.1945 -25.8242 -25.7662 -11.1663  -9.0593  -8.8800  -0.0918
     1.3268   1.4641   1.5670   1.8764   2.1336   2.9278   3.7160   3.8072
     6.8815   8.9648   9.0537   9.2231  11.4250

     occupation numbers 
     1.0000   1.0000   1.0000   1.0000   1.0000   1.0000   1.0000   1.0000
     1.0000   1.0000   1.0000   1.0000   1.0000   1.0000   1.0000   1.0000
    -0.0160  -0.0000  -0.0000  -0.0000  -0.0000

          k =-0.2496-0.4293 0.0677 ( 12135 PWs)   bands (ev):

   -49.8352 -26.1376 -25.7820 -25.7504 -11.7183  -9.3442  -8.8531   0.9136
     1.1395   1.4978   2.2494   2.5238   3.1807   3.4056   3.7287   3.9179
     5.9987   8.3773   8.4056   8.7820  10.6505

     occupation numbers 
     1.0000   1.0000   1.0000   1.0000   1.0000   1.0000   1.0000   1.0000
     1.0000   1.0000   1.0000   1.0000   1.0000   1.0000   1.0000   1.0000
     1.0000  -0.0000  -0.0000  -0.0000  -0.0000

          k = 0.0000-0.2147 0.0677 ( 12112 PWs)   bands (ev):

   -49.8385 -26.0747 -25.7900 -25.7207 -12.1949  -9.4907  -8.8405   0.6643
     2.0650   2.4395   2.4849   3.2984   3.3549   3.7554   3.9573   4.1586
     5.5293   7.6423   7.6701   8.6715   9.7265

     occupation numbers 
     1.0000   1.0000   1.0000   1.0000   1.0000   1.0000   1.0000   1.0000
     1.0000   1.0000   1.0000   1.0000   1.0000   1.0000   1.0000   1.0000
     1.0000  -0.0000  -0.0000  -0.0000  -0.0000

          k = 0.4991 0.0000 0.1354 ( 12156 PWs)   bands (ev):

   -49.8317 -26.0385 -25.8299 -25.7718 -12.3142  -9.2090  -8.8710   1.1795
     1.9231   2.0212   2.4791   3.0540   3.3271   3.4674   3.7889   3.9115
     6.7828   6.9388   7.1004   9.0997  10.1181

     occupation numbers 
     1.0000   1.0000   1.0000   1.0000   1.0000   1.0000   1.0000   1.0000
     1.0000   1.0000   1.0000   1.0000   1.0000   1.0000   1.0000   1.0000
     0.9446  -0.0000  -0.0000  -0.0000  -0.0000

          k = 0.7487 0.2147 0.1354 ( 12169 PWs)   bands (ev):

   -49.8260 -26.0596 -25.9042 -25.7572 -12.0959  -8.9741  -8.8660   1.0765
     1.4564   1.8248   2.0136   2.6223   2.7686   3.1424   3.8345   4.0171
     7.0932   7.2333   7.8469   9.6394  10.4544

     occupation numbers 
     1.0000   1.0000   1.0000   1.0000   1.0000   1.0000   1.0000   1.0000
     1.0000   1.0000   1.0000   1.0000   1.0000   1.0000   1.0000   1.0000
    -0.0000  -0.0000  -0.0000  -0.0000  -0.0000

          k = 0.9983 0.4293 0.1354 ( 12163 PWs)   bands (ev):

   -49.8227 -26.1214 -25.9325 -25.7493 -11.6231  -8.9424  -8.7392   0.7660
     1.2193   1.2486   1.4267   1.9480   2.6347   2.8140   3.5526   4.0454
     7.8527   8.1253   8.4527   9.7315  10.9013

     occupation numbers 
     1.0000   1.0000   1.0000   1.0000   1.0000   1.0000   1.0000   1.0000
     1.0000   1.0000   1.0000   1.0000   1.0000   1.0000   1.0000   1.0000
    -0.0000  -0.0000  -0.0000  -0.0000  -0.0000

          k = 1.2479 0.6440 0.1354 ( 12184 PWs)   bands (ev):

   -49.8237 -26.1873 -25.8991 -25.7526 -11.1292  -8.9447  -8.7707  -0.0628
     0.9243   1.1549   1.3336   1.9115   2.5082   2.5768   3.5035   3.8066
     7.9307   8.8372   9.0702   9.4095  11.1841

     occupation numbers 
     1.0000   1.0000   1.0000   1.0000   1.0000   1.0000   1.0000   1.0000
     1.0000   1.0000   1.0000   1.0000   1.0000   1.0000   1.0000   1.0000
    -0.0000  -0.0000  -0.0000  -0.0000  -0.0000

          k =-0.4991-0.8586 0.1354 ( 12184 PWs)   bands (ev):

   -49.8284 -26.2204 -25.8232 -25.7652 -10.9320  -8.9937  -8.9230  -0.5878
     1.1783   1.2237   1.7207   1.7991   2.1788   2.9595   3.5793   3.7478
     6.9355   8.9560   9.4213   9.5233  11.4693

     occupation numbers 
     1.0000   1.0000   1.0000   1.0000   1.0000   1.0000   1.0000   1.0000
     1.0000   1.0000   1.0000   1.0000   1.0000   1.0000   1.0000   1.0000
    -0.0001  -0.0000  -0.0000  -0.0000  -0.0000

          k =-0.2496-0.6440 0.1354 ( 12161 PWs)   bands (ev):

   -49.8340 -26.2016 -25.7797 -25.7482 -11.2026  -9.2545  -8.8927  -0.1200
     0.9536   1.2470   2.0123   2.2581   2.9720   3.3168   3.5268   3.9378
     6.0674   8.7611   9.2256   9.2560  11.0510

     occupation numbers 
     1.0000   1.0000   1.0000   1.0000   1.0000   1.0000   1.0000   1.0000
     1.0000   1.0000   1.0000   1.0000   1.0000   1.0000   1.0000   1.0000
     1.0000  -0.0000  -0.0000  -0.0000  -0.0000

          k = 0.0000-0.4293 0.1354 ( 12137 PWs)   bands (ev):

   -49.8373 -26.1404 -25.7876 -25.7186 -11.7344  -9.4111  -8.8693   0.7767
     1.1169   1.4418   2.5414   2.9092   3.0124   3.5487   3.9543   4.0077
     5.5845   8.4293   8.5370   8.7435  10.3255

     occupation numbers 
     1.0000   1.0000   1.0000   1.0000   1.0000   1.0000   1.0000   1.0000
     1.0000   1.0000   1.0000   1.0000   1.0000   1.0000   1.0000   1.0000
     1.0000  -0.0000  -0.0000  -0.0000  -0.0000

          k = 0.2496-0.2147 0.1354 ( 12130 PWs)   bands (ev):

   -49.8364 -26.0721 -25.7844 -25.7526 -12.1777  -9.3934  -8.8625   0.8796
     2.1395   2.2480   2.4615   2.9589   3.2040   3.4976   3.8624   4.0677
     5.9577   7.5207   7.6227   8.7285  10.1593

     occupation numbers 
     1.0000   1.0000   1.0000   1.0000   1.0000   1.0000   1.0000   1.0000
     1.0000   1.0000   1.0000   1.0000   1.0000   1.0000   1.0000   1.0000
     1.0000  -0.0000  -0.0000  -0.0000  -0.0000

          k = 0.7487 0.0000 0.2031 ( 12173 PWs)   bands (ev):

   -49.8265 -26.0324 -25.9053 -25.7582 -12.2727  -9.0121  -8.8506   1.0071
     1.3314   1.9946   2.0933   3.1731   3.4437   3.5830   3.7346   3.7601
     6.7841   6.7983   7.8344   9.5428   9.9832

     occupation numbers 
     1.0000   1.0000   1.0000   1.0000   1.0000   1.0000   1.0000   1.0000
     1.0000   1.0000   1.0000   1.0000   1.0000   1.0000   1.0000   1.0000
     0.9315   0.7258  -0.0000  -0.0000  -0.0000

          k = 0.9983 0.2147 0.2031 ( 12179 PWs)   bands (ev):

   -49.8239 -26.0570 -25.9351 -25.7516 -12.0789  -8.9707  -8.7703   0.6948
     1.3322   1.7689   1.9260   2.6955   2.9032   3.4064   3.8030   3.9316
     7.0327   7.1256   8.4292   9.6714  10.3136

     occupation numbers 
     1.0000   1.0000   1.0000   1.0000   1.0000   1.0000   1.0000   1.0000
     1.0000   1.0000   1.0000   1.0000   1.0000   1.0000   1.0000   1.0000
    -0.0000  -0.0000  -0.0000  -0.0000  -0.0000

          k = 1.2479 0.4293 0.2031 ( 12170 PWs)   bands (ev):

   -49.8249 -26.1242 -25.9017 -25.7549 -11.6393  -8.9870  -8.7882   1.0047
     1.1857   1.2974   1.3981   2.0984   2.6475   2.8082   3.6924   3.9537
     7.8564   7.9894   8.1811   9.4014  10.8627

     occupation numbers 
     1.0000   1.0000   1.0000   1.0000   1.0000   1.0000   1.0000   1.0000
     1.0000   1.0000   1.0000   1.0000   1.0000   1.0000   1.0000   1.0000
    -0.0000  -0.0000  -0.0000  -0.0000  -0.0000

          k = 1.4974 0.6440 0.2031 ( 12175 PWs)   bands (ev):

   -49.8288 -26.1945 -25.8242 -25.7662 -11.1658  -9.0244  -8.9157  -0.0930
     1.2557   1.3223   1.6937   1.8453   2.2839   3.0074   3.5558   3.8709
     6.9400   8.8533   9.1194   9.1592  11.3595

     occupation numbers 
     1.0000   1.0000   1.0000   1.0000   1.0000   1.0000   1.0000   1.0000
     1.0000   1.0000   1.0000   1.0000   1.0000   1.0000   1.0000   1.0000
    -0.0000  -0.0000  -0.0000  -0.0000  -0.0000

          k =-0.2496-0.8586 0.2031 ( 12167 PWs)   bands (ev):

   -49.8335 -26.2277 -25.7787 -25.7473 -10.9663  -9.1902  -8.9401  -0.6134
     0.8404   1.4179   1.7749   2.1695   2.8858   3.2222   3.4782   3.9651
     6.1044   8.7757   9.5754   9.6022  11.2117

     occupation numbers 
     1.0000   1.0000   1.0000   1.0000   1.0000   1.0000   1.0000   1.0000
     1.0000   1.0000   1.0000   1.0000   1.0000   1.0000   1.0000   1.0000
     1.0000  -0.0000  -0.0000  -0.0000  -0.0000

          k = 0.0000-0.6440 0.2031 ( 12156 PWs)   bands (ev):

   -49.8361 -26.2046 -25.7852 -25.7164 -11.2173  -9.3165  -8.9168  -0.1321
     0.7851   1.2386   2.4049   2.5648   2.6048   3.4559   3.9216   3.9870
     5.6384   8.8144   9.2286   9.3628  10.7882

     occupation numbers 
     1.0000   1.0000   1.0000   1.0000   1.0000   1.0000   1.0000   1.0000
     1.0000   1.0000   1.0000   1.0000   1.0000   1.0000   1.0000   1.0000
     1.0000  -0.0000  -0.0000  -0.0000  -0.0000

          k = 0.2496-0.4293 0.2031 ( 12155 PWs)   bands (ev):

   -49.8352 -26.1376 -25.7821 -25.7504 -11.7178  -9.3098  -8.8934   0.9612
     1.1622   1.5928   2.1746   2.5443   2.9582   3.4617   3.5785   4.0762
     6.0283   8.3977   8.4035   8.7570  10.7508

     occupation numbers 
     1.0000   1.0000   1.0000   1.0000   1.0000   1.0000   1.0000   1.0000
     1.0000   1.0000   1.0000   1.0000   1.0000   1.0000   1.0000   1.0000
     1.0000  -0.0000  -0.0000  -0.0000  -0.0000

          k = 0.4991-0.2147 0.2031 ( 12152 PWs)   bands (ev):

   -49.8312 -26.0659 -25.8289 -25.7709 -12.1366  -9.1780  -8.8779   1.2048
     1.8848   1.9426   2.3093   2.5238   2.9364   3.1613   3.8442   4.0836
     6.8092   7.2882   7.4587   9.0274  10.4984

     occupation numbers 
     1.0000   1.0000   1.0000   1.0000   1.0000   1.0000   1.0000   1.0000
     1.0000   1.0000   1.0000   1.0000   1.0000   1.0000   1.0000   1.0000
     0.5095  -0.0000  -0.0000  -0.0000  -0.0000

          k =-0.9983 0.0000-0.2708 ( 12202 PWs)   bands (ev):

   -49.8244 -26.0299 -25.9362 -25.7525 -12.2556  -8.9824  -8.7831   0.6609
     1.3121   1.8862   2.0434   3.3069   3.4171   3.5037   3.7865   3.9209
     6.6089   6.7462   8.4166   9.5359  10.0283

     occupation numbers 
     1.0000   1.0000   1.0000   1.0000   1.0000   1.0000   1.0000   1.0000
     1.0000   1.0000   1.0000   1.0000   1.0000   1.0000   1.0000   1.0000
     1.0000   1.0251  -0.0000  -0.0000  -0.0000

          k =-0.7487 0.2147-0.2708 ( 12174 PWs)   bands (ev):

   -49.8260 -26.0596 -25.9042 -25.7572 -12.0957  -9.0149  -8.8212   0.9949
     1.2671   1.8242   2.1562   2.6429   2.8945   3.2531   3.8092   4.0110
     7.0823   7.2273   7.8770   9.4583  10.3213

     occupation numbers 
     1.0000   1.0000   1.0000   1.0000   1.0000   1.0000   1.0000   1.0000
     1.0000   1.0000   1.0000   1.0000   1.0000   1.0000   1.0000   1.0000
    -0.0000  -0.0000  -0.0000  -0.0000  -0.0000

          k =-0.4991 0.4293-0.2708 ( 12174 PWs)   bands (ev):

   -49.8300 -26.1309 -25.8266 -25.7685 -11.6785  -9.1084  -8.8892   1.0990
     1.3073   1.6906   1.8869   1.9363   2.4010   3.0790   3.6944   4.0591
     6.8884   8.1357   8.3031   8.9834  11.0566

     occupation numbers 
     1.0000   1.0000   1.0000   1.0000   1.0000   1.0000   1.0000   1.0000
     1.0000   1.0000   1.0000   1.0000   1.0000   1.0000   1.0000   1.0000
    -0.0100  -0.0000  -0.0000  -0.0000  -0.0000

          k =-0.2496 0.6440-0.2708 ( 12165 PWs)   bands (ev):

   -49.8340 -26.2016 -25.7797 -25.7482 -11.2022  -9.2179  -8.9338  -0.1212
     0.9465   1.4630   1.8435   2.2688   2.8811   3.2730   3.4989   4.0212
     6.0894   8.7664   9.2147   9.2580  11.1188

     occupation numbers 
     1.0000   1.0000   1.0000   1.0000   1.0000   1.0000   1.0000   1.0000
     1.0000   1.0000   1.0000   1.0000   1.0000   1.0000   1.0000   1.0000
     1.0000  -0.0000  -0.0000  -0.0000  -0.0000

          k =-1.9966-0.8586-0.2708 ( 12134 PWs)   bands (ev):

   -49.8356 -26.2307 -25.7843 -25.7156 -10.9804  -9.2685  -8.9476  -0.6240
     0.6869   1.3300   2.1179   2.4392   2.6289   3.4145   3.8917   3.9836
     5.6608   8.8445   9.5792   9.7005  10.9584

     occupation numbers 
     1.0000   1.0000   1.0000   1.0000   1.0000   1.0000   1.0000   1.0000
     1.0000   1.0000   1.0000   1.0000   1.0000   1.0000   1.0000   1.0000
     1.0000  -0.0000  -0.0000  -0.0000  -0.0000

          k = 0.4991 0.4293 0.1354 ( 12160 PWs)   bands (ev):

   -49.8300 -26.1309 -25.8266 -25.7685 -11.6789  -9.1279  -8.8691   1.1118
     1.3637   1.7510   1.8374   2.0640   2.1915   2.9815   3.7958   4.0345
     6.8285   8.1516   8.2896   9.1058  11.1285

     occupation numbers 
     1.0000   1.0000   1.0000   1.0000   1.0000   1.0000   1.0000   1.0000
     1.0000   1.0000   1.0000   1.0000   1.0000   1.0000   1.0000   1.0000
     0.1520  -0.0000  -0.0000  -0.0000  -0.0000

          k = 0.7487 0.6440 0.1354 ( 12164 PWs)   bands (ev):

   -49.8237 -26.1873 -25.8991 -25.7526 -11.1294  -8.9041  -8.8147  -0.0626
     0.9738   1.2277   1.6409   1.7393   2.2793   2.3564   3.5173   3.9488
     7.8748   8.8412   9.0651   9.5534  11.3629

     occupation numbers 
     1.0000   1.0000   1.0000   1.0000   1.0000   1.0000   1.0000   1.0000
     1.0000   1.0000   1.0000   1.0000   1.0000   1.0000   1.0000   1.0000
    -0.0000  -0.0000  -0.0000  -0.0000  -0.0000

          k = 0.9983 0.8586 0.1354 ( 12170 PWs)   bands (ev):

   -49.8211 -26.2100 -25.9287 -25.7460 -10.8822  -8.9016  -8.6941  -0.5513
     0.6221   0.9242   1.7710   1.8594   1.9534   2.5798   3.2244   3.9086
     8.4641   9.1861   9.3895   9.7353  11.3864

     occupation numbers 
     1.0000   1.0000   1.0000   1.0000   1.0000   1.0000   1.0000   1.0000
     1.0000   1.0000   1.0000   1.0000   1.0000   1.0000   1.0000   1.0000
    -0.0000  -0.0000  -0.0000  -0.0000  -0.0000

          k = 0.0000 0.0000 0.1354 ( 12125 PWs)   bands (ev):

   -49.8390 -26.0471 -25.7911 -25.7215 -12.3729  -9.4983  -8.8608   0.6900
     2.4865   2.7077   2.8473   3.0637   3.4488   3.8242   4.1570   4.2477
     5.5184   7.2171   7.3901   8.6937   9.4833

     occupation numbers 
     1.0000   1.0000   1.0000   1.0000   1.0000   1.0000   1.0000   1.0000
     1.0000   1.0000   1.0000   1.0000   1.0000   1.0000   1.0000   1.0000
     1.0000  -0.0000  -0.0000  -0.0000  -0.0000

          k = 0.7487 0.4293 0.2031 ( 12170 PWs)   bands (ev):

   -49.8249 -26.1242 -25.9017 -25.7549 -11.6395  -8.9556  -8.8229   1.0555
     1.2127   1.4165   1.4947   1.9875   2.4656   2.6478   3.7012   4.0558
     7.7696   8.0323   8.1780   9.5493  11.0212

     occupation numbers 
     1.0000   1.0000   1.0000   1.0000   1.0000   1.0000   1.0000   1.0000
     1.0000   1.0000   1.0000   1.0000   1.0000   1.0000   1.0000   1.0000
    -0.0000  -0.0000  -0.0000  -0.0000  -0.0000

          k = 0.9983 0.6440 0.2031 ( 12179 PWs)   bands (ev):

   -49.8215 -26.1843 -25.9298 -25.7470 -11.1139  -8.9136  -8.7074  -0.0497
     0.7849   0.8768   1.6392   1.8494   2.2290   2.6374   3.2895   3.9753
     8.4586   8.7761   9.0306   9.7162  11.2712

     occupation numbers 
     1.0000   1.0000   1.0000   1.0000   1.0000   1.0000   1.0000   1.0000
     1.0000   1.0000   1.0000   1.0000   1.0000   1.0000   1.0000   1.0000
    -0.0000  -0.0000  -0.0000  -0.0000  -0.0000

          k = 1.2479 0.8586 0.2031 ( 12154 PWs)   bands (ev):

   -49.8232 -26.2131 -25.8980 -25.7516 -10.8969  -8.9075  -8.7849  -0.5620
     0.7976   1.2100   1.5365   1.7018   2.3609   2.4079   3.4285   3.8177
     7.9149   9.1968   9.4340   9.5154  11.3798

     occupation numbers 
     1.0000   1.0000   1.0000   1.0000   1.0000   1.0000   1.0000   1.0000
     1.0000   1.0000   1.0000   1.0000   1.0000   1.0000   1.0000   1.0000
    -0.0000  -0.0000  -0.0000  -0.0000  -0.0000

          k =-0.4991-0.6440 0.2031 ( 12177 PWs)   bands (ev):

   -49.8288 -26.1945 -25.8242 -25.7662 -11.1661  -9.0468  -8.8928  -0.0923
     1.2935   1.3916   1.6096   1.9228   2.1563   2.9694   3.6281   3.8545
     6.9049   8.8916   9.1167   9.1886  11.4068

     occupation numbers 
     1.0000   1.0000   1.0000   1.0000   1.0000   1.0000   1.0000   1.0000
     1.0000   1.0000   1.0000   1.0000   1.0000   1.0000   1.0000   1.0000
    -0.0023  -0.0000  -0.0000  -0.0000  -0.0000

          k = 0.0000-0.2147 0.2031 ( 12117 PWs)   bands (ev):

   -49.8385 -26.0747 -25.7901 -25.7207 -12.1943  -9.4469  -8.8952   0.8083
     2.1051   2.4371   2.5285   3.1486   3.2840   3.5652   4.0601   4.0884
     5.5457   7.6419   7.6931   8.7599   9.9095

     occupation numbers 
     1.0000   1.0000   1.0000   1.0000   1.0000   1.0000   1.0000   1.0000
     1.0000   1.0000   1.0000   1.0000   1.0000   1.0000   1.0000   1.0000
     1.0000  -0.0000  -0.0000  -0.0000  -0.0000

          k = 0.2496 0.0000 0.2031 ( 12145 PWs)   bands (ev):

   -49.8369 -26.0445 -25.7855 -25.7535 -12.3553  -9.3936  -8.8908   0.9201
     2.2511   2.5879   2.8887   3.0465   3.1787   3.7029   3.9616   4.0512
     5.9715   7.1064   7.3465   8.6988   9.8675

     occupation numbers 
     1.0000   1.0000   1.0000   1.0000   1.0000   1.0000   1.0000   1.0000
     1.0000   1.0000   1.0000   1.0000   1.0000   1.0000   1.0000   1.0000
     1.0000  -0.0000  -0.0000  -0.0000  -0.0000

          k = 0.9983 0.4293 0.2708 ( 12166 PWs)   bands (ev):

   -49.8227 -26.1214 -25.9325 -25.7493 -11.6231  -8.9424  -8.7392   0.7529
     1.2189   1.2472   1.5052   1.8567   2.6233   2.8718   3.5258   4.0537
     7.8616   8.1270   8.4461   9.7087  10.9203

     occupation numbers 
     1.0000   1.0000   1.0000   1.0000   1.0000   1.0000   1.0000   1.0000
     1.0000   1.0000   1.0000   1.0000   1.0000   1.0000   1.0000   1.0000
    -0.0000  -0.0000  -0.0000  -0.0000  -0.0000

          k = 1.2479 0.6440 0.2708 ( 12163 PWs)   bands (ev):

   -49.8237 -26.1873 -25.8991 -25.7526 -11.1293  -8.9277  -8.7894  -0.0627
     0.9535   1.1703   1.4815   1.8174   2.4207   2.4708   3.5063   3.8805
     7.9036   8.8261   9.0670   9.4934  11.2902

     occupation numbers 
     1.0000   1.0000   1.0000   1.0000   1.0000   1.0000   1.0000   1.0000
     1.0000   1.0000   1.0000   1.0000   1.0000   1.0000   1.0000   1.0000
    -0.0000  -0.0000  -0.0000  -0.0000  -0.0000

          k = 1.4974 0.8586 0.2708 ( 12186 PWs)   bands (ev):

   -49.8284 -26.2204 -25.8232 -25.7652 -10.9320  -8.9937  -8.9230  -0.5878
     1.1945   1.2070   1.7074   1.8069   2.1937   2.9475   3.5710   3.7595
     6.9351   8.9464   9.4411   9.5146  11.4814

     occupation numbers 
     1.0000   1.0000   1.0000   1.0000   1.0000   1.0000   1.0000   1.0000
     1.0000   1.0000   1.0000   1.0000   1.0000   1.0000   1.0000   1.0000
    -0.0001  -0.0000  -0.0000  -0.0000  -0.0000

          k = 0.0000-0.4293 0.2708 ( 12158 PWs)   bands (ev):

   -49.8373 -26.1404 -25.7877 -25.7186 -11.7336  -9.3530  -8.9387   0.8924
     1.1480   1.5777   2.5890   2.6208   2.9050   3.3848   3.9245   4.1565
     5.5966   8.4202   8.5358   8.8323  10.5427

     occupation numbers 
     1.0000   1.0000   1.0000   1.0000   1.0000   1.0000   1.0000   1.0000
     1.0000   1.0000   1.0000   1.0000   1.0000   1.0000   1.0000   1.0000
     1.0000  -0.0000  -0.0000  -0.0000  -0.0000

          k = 0.2496-0.2147 0.2708 ( 12146 PWs)   bands (ev):

   -49.8364 -26.0721 -25.7845 -25.7526 -12.1771  -9.3390  -8.9267   1.0408
     2.1067   2.2765   2.4761   2.8366   3.1162   3.4564   3.7869   4.1165
     6.0128   7.5125   7.6531   8.7192  10.2817

     occupation numbers 
     1.0000   1.0000   1.0000   1.0000   1.0000   1.0000   1.0000   1.0000
     1.0000   1.0000   1.0000   1.0000   1.0000   1.0000   1.0000   1.0000
     1.0000  -0.0000  -0.0000  -0.0000  -0.0000

          k = 0.4991 0.0000 0.2708 ( 12154 PWs)   bands (ev):

   -49.8317 -26.0385 -25.8299 -25.7719 -12.3138  -9.1895  -8.8911   1.1624
     1.7822   2.0214   2.5643   2.9884   3.4484   3.5471   3.8518   3.8686
     6.8505   6.8886   7.1144   8.9178  10.0385

     occupation numbers 
     1.0000   1.0000   1.0000   1.0000   1.0000   1.0000   1.0000   1.0000
     1.0000   1.0000   1.0000   1.0000   1.0000   1.0000   1.0000   1.0000
    -0.0253  -0.0098  -0.0000  -0.0000  -0.0000

          k =-1.9966-0.6440-0.2031 ( 12169 PWs)   bands (ev):

   -49.8361 -26.2046 -25.7853 -25.7164 -11.2168  -9.2661  -8.9742  -0.1336
     0.8482   1.3884   2.1980   2.5645   2.6344   3.2615   3.8694   4.1473
     5.6447   8.8664   9.2197   9.3621  10.9069

     occupation numbers 
     1.0000   1.0000   1.0000   1.0000   1.0000   1.0000   1.0000   1.0000
     1.0000   1.0000   1.0000   1.0000   1.0000   1.0000   1.0000   1.0000
     1.0000  -0.0000  -0.0000  -0.0000  -0.0000

          k =-1.7470-0.4293-0.2031 ( 12164 PWs)   bands (ev):

   -49.8352 -26.1376 -25.7821 -25.7504 -11.7172  -9.2453  -8.9665   1.0153
     1.2520   1.7374   1.9960   2.5360   2.8772   3.3804   3.4250   4.2220
     6.0706   8.3831   8.4116   8.7743  10.8703

     occupation numbers 
     1.0000   1.0000   1.0000   1.0000   1.0000   1.0000   1.0000   1.0000
     1.0000   1.0000   1.0000   1.0000   1.0000   1.0000   1.0000   1.0000
     1.0000  -0.0000  -0.0000  -0.0000  -0.0000

          k =-1.4974-0.2147-0.2031 ( 12140 PWs)   bands (ev):

   -49.8312 -26.0659 -25.8289 -25.7709 -12.1362  -9.1552  -8.9014   1.1941
     1.6756   1.9701   2.3830   2.5458   3.0364   3.2490   3.7871   4.1079
     6.8972   7.2548   7.4658   8.8524  10.3982

     occupation numbers 
     1.0000   1.0000   1.0000   1.0000   1.0000   1.0000   1.0000   1.0000
     1.0000   1.0000   1.0000   1.0000   1.0000   1.0000   1.0000   1.0000
    -0.0049  -0.0000  -0.0000  -0.0000  -0.0000

          k =-1.2479 0.0000-0.2031 ( 12202 PWs)   bands (ev):

   -49.8265 -26.0324 -25.9053 -25.7582 -12.2725  -9.0475  -8.8106   0.9310
     1.1505   2.0132   2.2737   3.1300   3.5591   3.5721   3.7955   3.8476
     6.7416   6.7763   7.8837   9.3388   9.8468

     occupation numbers 
     1.0000   1.0000   1.0000   1.0000   1.0000   1.0000   1.0000   1.0000
     1.0000   1.0000   1.0000   1.0000   1.0000   1.0000   1.0000   1.0000
     1.0200   0.9942  -0.0000  -0.0000  -0.0000

          k = 0.0000 0.8586-0.1354 ( 12137 PWs)   bands (ev):

   -49.8356 -26.2307 -25.7843 -25.7156 -10.9804  -9.2685  -8.9476  -0.6240
     0.7416   1.1800   2.3357   2.4393   2.6288   3.1826   3.8918   4.0990
     5.6564   8.8445   9.5890   9.7004  10.9162

     occupation numbers 
     1.0000   1.0000   1.0000   1.0000   1.0000   1.0000   1.0000   1.0000
     1.0000   1.0000   1.0000   1.0000   1.0000   1.0000   1.0000   1.0000
     1.0000  -0.0000  -0.0000  -0.0000  -0.0000

          k =-1.7470-0.6440-0.1354 ( 12171 PWs)   bands (ev):

   -49.8340 -26.2016 -25.7797 -25.7482 -11.2017  -9.1656  -8.9906  -0.1224
     1.0348   1.4543   1.8635   2.2208   2.9258   3.1777   3.3416   4.1508
     6.1078   8.7594   9.2319   9.2572  11.1737

     occupation numbers 
     1.0000   1.0000   1.0000   1.0000   1.0000   1.0000   1.0000   1.0000
     1.0000   1.0000   1.0000   1.0000   1.0000   1.0000   1.0000   1.0000
     1.0000  -0.0000  -0.0000  -0.0000  -0.0000

          k =-1.4974-0.4293-0.1354 ( 12163 PWs)   bands (ev):

   -49.8300 -26.1309 -25.8266 -25.7686 -11.6781  -9.0844  -8.9139   1.0906
     1.2724   1.6247   1.7932   1.9920   2.6078   3.1199   3.6031   4.0716
     6.9529   8.1441   8.3005   8.8568  10.9657

     occupation numbers 
     1.0000   1.0000   1.0000   1.0000   1.0000   1.0000   1.0000   1.0000
     1.0000   1.0000   1.0000   1.0000   1.0000   1.0000   1.0000   1.0000
    -0.0000  -0.0000  -0.0000  -0.0000  -0.0000

          k =-1.2479-0.2147-0.1354 ( 12175 PWs)   bands (ev):

   -49.8260 -26.0596 -25.9042 -25.7573 -12.0956  -9.0420  -8.7901   0.9392
     1.1153   1.7942   2.2951   2.6434   3.0106   3.3694   3.8085   3.9756
     7.0693   7.2226   7.9207   9.2830  10.1742

     occupation numbers 
     1.0000   1.0000   1.0000   1.0000   1.0000   1.0000   1.0000   1.0000
     1.0000   1.0000   1.0000   1.0000   1.0000   1.0000   1.0000   1.0000
    -0.0000  -0.0000  -0.0000  -0.0000  -0.0000

          k =-0.9983 0.0000-0.1354 ( 12175 PWs)   bands (ev):

   -49.8244 -26.0299 -25.9362 -25.7525 -12.2556  -8.9824  -8.7831   0.6789
     1.2580   1.9074   2.0689   3.3067   3.4175   3.5175   3.7580   3.9206
     6.6157   6.7393   8.4200   9.6037   9.9520

     occupation numbers 
     1.0000   1.0000   1.0000   1.0000   1.0000   1.0000   1.0000   1.0000
     1.0000   1.0000   1.0000   1.0000   1.0000   1.0000   1.0000   1.0000
     1.0000   1.0175  -0.0000  -0.0000  -0.0000

          k = 0.0000 0.6440-0.0677 ( 12143 PWs)   bands (ev):

   -49.8361 -26.2046 -25.7852 -25.7164 -11.2177  -9.3446  -8.8837  -0.1310
     0.8310   1.0150   2.5670   2.5829   2.8019   3.2211   3.9577   4.0288
     5.6291   8.7778   9.2496   9.3630  10.6656

     occupation numbers 
     1.0000   1.0000   1.0000   1.0000   1.0000   1.0000   1.0000   1.0000
     1.0000   1.0000   1.0000   1.0000   1.0000   1.0000   1.0000   1.0000
     1.0000  -0.0000  -0.0000  -0.0000  -0.0000

          k = 0.2496 0.8586-0.0677 ( 12173 PWs)   bands (ev):

   -49.8335 -26.2277 -25.7787 -25.7473 -10.9663  -9.1901  -8.9401  -0.6134
     0.9136   1.2184   1.9483   2.1439   2.9878   3.1507   3.3554   4.0382
     6.1005   8.7746   9.5884   9.5988  11.2022

     occupation numbers 
     1.0000   1.0000   1.0000   1.0000   1.0000   1.0000   1.0000   1.0000
     1.0000   1.0000   1.0000   1.0000   1.0000   1.0000   1.0000   1.0000
     1.0000  -0.0000  -0.0000  -0.0000  -0.0000

          k =-1.4974-0.6440-0.0677 ( 12172 PWs)   bands (ev):

   -49.8288 -26.1945 -25.8242 -25.7662 -11.1656  -8.9992  -8.9412  -0.0935
     1.2278   1.2962   1.7548   1.7783   2.3688   3.0300   3.5147   3.8706
     6.9662   8.8546   9.0531   9.1777  11.3107

     occupation numbers 
     1.0000   1.0000   1.0000   1.0000   1.0000   1.0000   1.0000   1.0000
     1.0000   1.0000   1.0000   1.0000   1.0000   1.0000   1.0000   1.0000
    -0.0000  -0.0000  -0.0000  -0.0000  -0.0000

          k =-1.2479-0.4293-0.0677 ( 12169 PWs)   bands (ev):

   -49.8249 -26.1242 -25.9016 -25.7549 -11.6392  -9.0037  -8.7691   0.9814
     1.1501   1.1987   1.3873   2.1674   2.7618   2.9148   3.7141   3.8458
     7.9282   7.9602   8.1843   9.2902  10.7441

     occupation numbers 
     1.0000   1.0000   1.0000   1.0000   1.0000   1.0000   1.0000   1.0000
     1.0000   1.0000   1.0000   1.0000   1.0000   1.0000   1.0000   1.0000
    -0.0000  -0.0000  -0.0000  -0.0000  -0.0000

          k =-0.9983-0.2147-0.0677 ( 12179 PWs)   bands (ev):

   -49.8239 -26.0570 -25.9351 -25.7516 -12.0789  -8.9707  -8.7703   0.7210
     1.2618   1.7166   2.0568   2.6919   2.8933   3.3677   3.8209   3.9304
     7.0289   7.1231   8.4349   9.7416  10.2328

     occupation numbers 
     1.0000   1.0000   1.0000   1.0000   1.0000   1.0000   1.0000   1.0000
     1.0000   1.0000   1.0000   1.0000   1.0000   1.0000   1.0000   1.0000
    -0.0000  -0.0000  -0.0000  -0.0000  -0.0000

          k =-0.7487 0.0000-0.0677 ( 12188 PWs)   bands (ev):

   -49.8265 -26.0324 -25.9053 -25.7582 -12.2728  -8.9681  -8.8979   1.0784
     1.5382   1.8230   2.0332   3.2098   3.3588   3.6116   3.6720   3.6908
     6.8025   6.8248   7.8060   9.7082  10.0539

     occupation numbers 
     1.0000   1.0000   1.0000   1.0000   1.0000   1.0000   1.0000   1.0000
     1.0000   1.0000   1.0000   1.0000   1.0000   1.0000   1.0000   1.0000
     0.6446   0.2091  -0.0000  -0.0000  -0.0000

          k = 0.0000 0.4293 0.0000 ( 12139 PWs)   bands (ev):

   -49.8373 -26.1404 -25.7876 -25.7186 -11.7347  -9.4312  -8.8445   0.7304
     1.1128   1.3886   2.5232   2.9105   3.3685   3.3949   3.8853   4.0414
     5.5791   8.4390   8.5380   8.7061  10.2298

     occupation numbers 
     1.0000   1.0000   1.0000   1.0000   1.0000   1.0000   1.0000   1.0000
     1.0000   1.0000   1.0000   1.0000   1.0000   1.0000   1.0000   1.0000
     1.0000  -0.0000  -0.0000  -0.0000  -0.0000

          k = 0.2496 0.6440 0.0000 ( 12153 PWs)   bands (ev):

   -49.8340 -26.2016 -25.7797 -25.7482 -11.2027  -9.2674  -8.8780  -0.1195
     1.0565   1.0617   2.0996   2.2278   3.1493   3.2012   3.5027   3.9378
     6.0572   8.7552   9.2438   9.2494  11.0186

     occupation numbers 
     1.0000   1.0000   1.0000   1.0000   1.0000   1.0000   1.0000   1.0000
     1.0000   1.0000   1.0000   1.0000   1.0000   1.0000   1.0000   1.0000
     1.0000  -0.0000  -0.0000  -0.0000  -0.0000

          k = 0.4991 0.8586 0.0000 ( 12181 PWs)   bands (ev):

   -49.8284 -26.2204 -25.8232 -25.7652 -10.9320  -8.9937  -8.9230  -0.5878
     1.1702   1.2322   1.7442   1.7809   2.1648   2.9710   3.5896   3.7343
     6.9359   8.9663   9.4033   9.5298  11.4574

     occupation numbers 
     1.0000   1.0000   1.0000   1.0000   1.0000   1.0000   1.0000   1.0000
     1.0000   1.0000   1.0000   1.0000   1.0000   1.0000   1.0000   1.0000
    -0.0001  -0.0000  -0.0000  -0.0000  -0.0000

          k =-1.2479-0.6440 0.0000 ( 12181 PWs)   bands (ev):

   -49.8237 -26.1873 -25.8991 -25.7526 -11.1291  -8.9508  -8.7639  -0.0629
     0.9093   1.1748   1.2583   1.9522   2.5433   2.6093   3.5071   3.7729
     7.9412   8.8532   9.0704   9.3662  11.1311

     occupation numbers 
     1.0000   1.0000   1.0000   1.0000   1.0000   1.0000   1.0000   1.0000
     1.0000   1.0000   1.0000   1.0000   1.0000   1.0000   1.0000   1.0000
    -0.0000  -0.0000  -0.0000  -0.0000  -0.0000

          k =-0.9983-0.4293 0.0000 ( 12173 PWs)   bands (ev):

   -49.8227 -26.1214 -25.9325 -25.7493 -11.6231  -8.9424  -8.7392   0.7803
     1.2200   1.2510   1.3637   2.0245   2.6665   2.7343   3.5783   4.0365
     7.8440   8.1238   8.4591   9.7554  10.8809

     occupation numbers 
     1.0000   1.0000   1.0000   1.0000   1.0000   1.0000   1.0000   1.0000
     1.0000   1.0000   1.0000   1.0000   1.0000   1.0000   1.0000   1.0000
    -0.0000  -0.0000  -0.0000  -0.0000  -0.0000

          k =-0.7487-0.2147 0.0000 ( 12171 PWs)   bands (ev):

   -49.8260 -26.0596 -25.9042 -25.7572 -12.0960  -8.9367  -8.9050   1.1182
     1.6342   1.6835   2.0068   2.5842   2.7262   3.1004   3.8501   4.0127
     7.0972   7.2362   7.8376   9.7178  10.5046

     occupation numbers 
     1.0000   1.0000   1.0000   1.0000   1.0000   1.0000   1.0000   1.0000
     1.0000   1.0000   1.0000   1.0000   1.0000   1.0000   1.0000   1.0000
    -0.0000  -0.0000  -0.0000  -0.0000  -0.0000

          k =-0.4991 0.0000 0.0000 ( 12159 PWs)   bands (ev):

   -49.8317 -26.0385 -25.8299 -25.7718 -12.3143  -9.2165  -8.8633   1.1939
     1.8895   2.1490   2.4034   3.1022   3.2593   3.4345   3.7592   3.9257
     6.7579   6.9643   7.0899   9.1813  10.1446

     occupation numbers 
     1.0000   1.0000   1.0000   1.0000   1.0000   1.0000   1.0000   1.0000
     1.0000   1.0000   1.0000   1.0000   1.0000   1.0000   1.0000   1.0000
     1.0352  -0.0000  -0.0000  -0.0000  -0.0000

          k = 0.9983 0.8586 0.2708 ( 12188 PWs)   bands (ev):

   -49.8211 -26.2100 -25.9287 -25.7460 -10.8822  -8.9016  -8.6941  -0.5513
     0.6394   0.8923   1.8056   1.8913   1.9083   2.5911   3.1827   3.9339
     8.4657   9.1878   9.4009   9.7054  11.3676

     occupation numbers 
     1.0000   1.0000   1.0000   1.0000   1.0000   1.0000   1.0000   1.0000
     1.0000   1.0000   1.0000   1.0000   1.0000   1.0000   1.0000   1.0000
    -0.0000  -0.0000  -0.0000  -0.0000  -0.0000

          k = 0.0000 0.0000 0.2708 ( 12121 PWs)   bands (ev):

   -49.8390 -26.0471 -25.7911 -25.7215 -12.3721  -9.4326  -8.9414   0.9121
     2.5514   2.5794   2.8128   3.1770   3.4076   3.5804   4.0345   4.1664
     5.5436   7.2175   7.4615   8.8181   9.6908

     occupation numbers 
     1.0000   1.0000   1.0000   1.0000   1.0000   1.0000   1.0000   1.0000
     1.0000   1.0000   1.0000   1.0000   1.0000   1.0000   1.0000   1.0000
     1.0000  -0.0000  -0.0000  -0.0000  -0.0000

          k = 0.0000-0.2147 0.3385 ( 12164 PWs)   bands (ev):

   -49.8385 -26.0747 -25.7901 -25.7207 -12.1935  -9.3644  -8.9929   1.0670
     2.1597   2.4323   2.5997   2.7735   3.2553   3.4552   3.9902   4.0877
     5.5629   7.6415   7.7353   8.8842  10.1519

     occupation numbers 
     1.0000   1.0000   1.0000   1.0000   1.0000   1.0000   1.0000   1.0000
     1.0000   1.0000   1.0000   1.0000   1.0000   1.0000   1.0000   1.0000
     1.0000  -0.0000  -0.0000  -0.0000  -0.0000

          k = 0.2496 0.0000 0.3385 ( 12138 PWs)   bands (ev):

   -49.8369 -26.0445 -25.7855 -25.7535 -12.3546  -9.3235  -8.9721   1.1427
     2.1078   2.5779   2.8457   2.9612   3.3166   3.6558   3.9116   3.9292
     6.0340   7.0890   7.4011   8.7101   9.9480

     occupation numbers 
     1.0000   1.0000   1.0000   1.0000   1.0000   1.0000   1.0000   1.0000
     1.0000   1.0000   1.0000   1.0000   1.0000   1.0000   1.0000   1.0000
     1.0000  -0.0000  -0.0000  -0.0000  -0.0000

          k =-1.9966-0.4293-0.1354 ( 12189 PWs)   bands (ev):

   -49.8373 -26.1404 -25.7877 -25.7186 -11.7329  -9.2638  -9.0392   0.9852
     1.2743   1.6931   2.3266   2.6442   2.8979   3.1202   3.8380   4.3116
     5.6076   8.4279   8.5354   8.9200  10.7413

     occupation numbers 
     1.0000   1.0000   1.0000   1.0000   1.0000   1.0000   1.0000   1.0000
     1.0000   1.0000   1.0000   1.0000   1.0000   1.0000   1.0000   1.0000
     1.0000  -0.0000  -0.0000  -0.0000  -0.0000

          k =-1.7470-0.2147-0.1354 ( 12147 PWs)   bands (ev):

   -49.8364 -26.0721 -25.7845 -25.7526 -12.1764  -9.2587  -9.0166   1.2837
     1.9214   2.3536   2.4557   2.7759   3.0844   3.3920   3.6995   4.1405
     6.0643   7.5072   7.6735   8.7487  10.3623

     occupation numbers 
     1.0000   1.0000   1.0000   1.0000   1.0000   1.0000   1.0000   1.0000
     1.0000   1.0000   1.0000   1.0000   1.0000   1.0000   1.0000   1.0000
     1.0000  -0.0000  -0.0000  -0.0000  -0.0000

          k =-1.4974 0.0000-0.1354 ( 12156 PWs)   bands (ev):

   -49.8317 -26.0385 -25.8299 -25.7719 -12.3134  -9.1669  -8.9144   1.1755
     1.5852   2.0908   2.6143   2.9448   3.5768   3.6352   3.7969   3.8961
     6.8460   6.9315   7.1209   8.7494   9.9417

     occupation numbers 
     1.0000   1.0000   1.0000   1.0000   1.0000   1.0000   1.0000   1.0000
     1.0000   1.0000   1.0000   1.0000   1.0000   1.0000   1.0000   1.0000
    -0.0098  -0.0001  -0.0000  -0.0000  -0.0000

          k = 0.0000 1.0733-0.0677 ( 12170 PWs)   bands (ev):

   -49.8361 -26.2046 -25.7853 -25.7164 -11.2164  -9.2130  -9.0322  -0.1347
     1.0100   1.2543   2.3723   2.5647   2.6562   2.8975   3.8314   4.2952
     5.6448   8.9034   9.2260   9.3613  10.9454

     occupation numbers 
     1.0000   1.0000   1.0000   1.0000   1.0000   1.0000   1.0000   1.0000
     1.0000   1.0000   1.0000   1.0000   1.0000   1.0000   1.0000   1.0000
     1.0000  -0.0000  -0.0000  -0.0000  -0.0000

          k =-1.7470-0.4293-0.0677 ( 12175 PWs)   bands (ev):

   -49.8352 -26.1376 -25.7821 -25.7504 -11.7167  -9.1597  -9.0580   1.0369
     1.4380   1.6990   1.9087   2.4803   2.9669   3.2239   3.3348   4.3036
     6.1007   8.3610   8.4124   8.8153  10.9406

     occupation numbers 
     1.0000   1.0000   1.0000   1.0000   1.0000   1.0000   1.0000   1.0000
     1.0000   1.0000   1.0000   1.0000   1.0000   1.0000   1.0000   1.0000
     1.0000  -0.0000  -0.0000  -0.0000  -0.0000

          k =-1.4974-0.2147-0.0677 ( 12154 PWs)   bands (ev):

   -49.8312 -26.0659 -25.8289 -25.7709 -12.1359  -9.1361  -8.9210   1.2142
     1.5261   1.9761   2.4461   2.5481   3.1174   3.3091   3.7216   4.1304
     6.9652   7.2435   7.4626   8.7325  10.3159

     occupation numbers 
     1.0000   1.0000   1.0000   1.0000   1.0000   1.0000   1.0000   1.0000
     1.0000   1.0000   1.0000   1.0000   1.0000   1.0000   1.0000   1.0000
    -0.0000  -0.0000  -0.0000  -0.0000  -0.0000

          k =-1.2479 0.0000-0.0677 ( 12165 PWs)   bands (ev):

   -49.8265 -26.0324 -25.9053 -25.7582 -12.2724  -9.0666  -8.7883   0.8965
     1.0357   2.0151   2.3836   3.1036   3.5686   3.6472   3.8305   3.9018
     6.7082   6.7635   7.9276   9.2048   9.7332

     occupation numbers 
     1.0000   1.0000   1.0000   1.0000   1.0000   1.0000   1.0000   1.0000
     1.0000   1.0000   1.0000   1.0000   1.0000   1.0000   1.0000   1.0000
     1.0012   1.0339  -0.0000  -0.0000  -0.0000

          k = 0.0000 0.8586 0.0000 ( 12151 PWs)   bands (ev):

   -49.8356 -26.2307 -25.7843 -25.7156 -10.9804  -9.2684  -8.9476  -0.6240
     0.8461   1.0050   2.4394   2.6286   2.7269   2.7858   3.8918   4.1810
     5.6518   8.8445   9.5992   9.7003  10.8754

     occupation numbers 
     1.0000   1.0000   1.0000   1.0000   1.0000   1.0000   1.0000   1.0000
     1.0000   1.0000   1.0000   1.0000   1.0000   1.0000   1.0000   1.0000
     1.0000  -0.0000  -0.0000  -0.0000  -0.0000

          k = 0.2496 1.0733 0.0000 ( 12164 PWs)   bands (ev):

   -49.8340 -26.2016 -25.7797 -25.7482 -11.2016  -9.1287  -9.0293  -0.1229
     1.1506   1.3029   2.0003   2.1460   3.0130   3.1081   3.2329   4.2049
     6.1145   8.7536   9.2479   9.2545  11.1931

     occupation numbers 
     1.0000   1.0000   1.0000   1.0000   1.0000   1.0000   1.0000   1.0000
     1.0000   1.0000   1.0000   1.0000   1.0000   1.0000   1.0000   1.0000
     1.0000  -0.0000  -0.0000  -0.0000  -0.0000

          k =-1.4974-0.4293 0.0000 ( 12157 PWs)   bands (ev):

   -49.8300 -26.1309 -25.8266 -25.7686 -11.6780  -9.0720  -8.9265   1.0891
     1.2623   1.5914   1.7563   2.0248   2.7029   3.1156   3.5664   4.0754
     6.9810   8.1602   8.2894   8.8031  10.9231

     occupation numbers 
     1.0000   1.0000   1.0000   1.0000   1.0000   1.0000   1.0000   1.0000
     1.0000   1.0000   1.0000   1.0000   1.0000   1.0000   1.0000   1.0000
    -0.0000  -0.0000  -0.0000  -0.0000  -0.0000

          k =-1.2479-0.2147 0.0000 ( 12169 PWs)   bands (ev):

   -49.8260 -26.0596 -25.9042 -25.7573 -12.0955  -9.0514  -8.7790   0.9269
     1.0510   1.7836   2.3463   2.6422   3.0573   3.4156   3.8276   3.9416
     7.0632   7.2211   7.9442   9.2103  10.1095

     occupation numbers 
     1.0000   1.0000   1.0000   1.0000   1.0000   1.0000   1.0000   1.0000
     1.0000   1.0000   1.0000   1.0000   1.0000   1.0000   1.0000   1.0000
    -0.0000  -0.0000  -0.0000  -0.0000  -0.0000

          k =-0.9983 0.0000 0.0000 ( 12191 PWs)   bands (ev):

   -49.8244 -26.0299 -25.9362 -25.7525 -12.2556  -8.9823  -8.7831   0.6993
     1.2064   1.9209   2.0977   3.3064   3.4180   3.5360   3.7247   3.9202
     6.6234   6.7315   8.4233   9.7607   9.7865

     occupation numbers 
     1.0000   1.0000   1.0000   1.0000   1.0000   1.0000   1.0000   1.0000
     1.0000   1.0000   1.0000   1.0000   1.0000   1.0000   1.0000   1.0000
     1.0000   1.0104  -0.0000  -0.0000  -0.0000

          k = 0.0000 0.0000 0.4061 ( 12117 PWs)   bands (ev):

   -49.8390 -26.0471 -25.7911 -25.7215 -12.3713  -9.3336  -9.0553   1.2299
     2.3099   2.6297   2.7914   3.3081   3.3493   3.4060   3.8833   4.0913
     5.5525   7.2179   7.5315   8.9421   9.8720

     occupation numbers 
     1.0000   1.0000   1.0000   1.0000   1.0000   1.0000   1.0000   1.0000
     1.0000   1.0000   1.0000   1.0000   1.0000   1.0000   1.0000   1.0000
     1.0000  -0.0000  -0.0000  -0.0000  -0.0000

          k =-1.9966-0.2147-0.0677 ( 12164 PWs)   bands (ev):

   -49.8385 -26.0747 -25.7902 -25.7207 -12.1929  -9.2568  -9.1111   1.3434
     2.1525   2.4121   2.4900   2.6604   3.2250   3.3878   3.9219   4.0901
     5.5711   7.6413   7.7705   8.9721  10.3097

     occupation numbers 
     1.0000   1.0000   1.0000   1.0000   1.0000   1.0000   1.0000   1.0000
     1.0000   1.0000   1.0000   1.0000   1.0000   1.0000   1.0000   1.0000
     1.0000  -0.0000  -0.0000  -0.0000  -0.0000

          k =-1.7470 0.0000-0.0677 ( 12142 PWs)   bands (ev):

   -49.8369 -26.0445 -25.7855 -25.7535 -12.3541  -9.2419  -9.0615   1.4378
     1.8049   2.6753   2.8246   2.8625   3.4424   3.6551   3.8057   3.8450
     6.0697   7.0804   7.4356   8.7471   9.9733

     occupation numbers 
     1.0000   1.0000   1.0000   1.0000   1.0000   1.0000   1.0000   1.0000
     1.0000   1.0000   1.0000   1.0000   1.0000   1.0000   1.0000   1.0000
     1.0000  -0.0000  -0.0000  -0.0000  -0.0000

          k = 0.0000 1.2879 0.0000 ( 12185 PWs)   bands (ev):

   -49.8373 -26.1404 -25.7877 -25.7186 -11.7326  -9.1638  -9.1438   1.0069
     1.4251   1.6469   2.2625   2.6703   2.8934   2.9754   3.8008   4.3657
     5.6119   8.4353   8.5354   8.9563  10.8179

     occupation numbers 
     1.0000   1.0000   1.0000   1.0000   1.0000   1.0000   1.0000   1.0000
     1.0000   1.0000   1.0000   1.0000   1.0000   1.0000   1.0000   1.0000
     1.0000  -0.0000  -0.0000  -0.0000  -0.0000

          k =-1.7470-0.2147 0.0000 ( 12152 PWs)   bands (ev):

   -49.8364 -26.0721 -25.7845 -25.7526 -12.1761  -9.1958  -9.0835   1.5004
     1.7110   2.4045   2.4265   2.7832   3.0742   3.3563   3.6607   4.1462
     6.0842   7.5054   7.6801   8.7707  10.3848

     occupation numbers 
     1.0000   1.0000   1.0000   1.0000   1.0000   1.0000   1.0000   1.0000
     1.0000   1.0000   1.0000   1.0000   1.0000   1.0000   1.0000   1.0000
     1.0000  -0.0000  -0.0000  -0.0000  -0.0000

          k =-1.4974 0.0000 0.0000 ( 12179 PWs)   bands (ev):

   -49.8317 -26.0385 -25.8299 -25.7719 -12.3132  -9.1562  -8.9254   1.1976
     1.4955   2.1170   2.6310   2.9299   3.6776   3.6840   3.7101   3.9060
     6.8296   6.9698   7.1223   8.6818   9.8972

     occupation numbers 
     1.0000   1.0000   1.0000   1.0000   1.0000   1.0000   1.0000   1.0000
     1.0000   1.0000   1.0000   1.0000   1.0000   1.0000   1.0000   1.0000
     0.1359  -0.0000  -0.0000  -0.0000  -0.0000

          k =-1.9966-1.7173-0.5415 ( 12132 PWs)   bands (ev):

   -49.8390 -26.0471 -25.7912 -25.7215 -12.3710  -9.2476  -9.1474   1.4512
     2.0928   2.6683   2.7844   3.3176   3.3549   3.3826   3.7990   4.0624
     5.5529   7.2180   7.5602   8.9935   9.9379

     occupation numbers 
     1.0000   1.0000   1.0000   1.0000   1.0000   1.0000   1.0000   1.0000
     1.0000   1.0000   1.0000   1.0000   1.0000   1.0000   1.0000   1.0000
     1.0000  -0.0000  -0.0000  -0.0000  -0.0000

     the Fermi energy is     6.8096 ev

!    total energy              =    -534.96648331 Ry

     total all-electron energy =     -9636.856726 Ry
     estimated scf accuracy    <          5.0E-11 Ry
     smearing contrib. (-TS)   =      -0.00001547 Ry
     internal energy E=F+TS    =    -534.96646784 Ry

     The total energy is F=E-TS. E is the sum of the following terms:
     one-electron contribution =     -93.95768192 Ry
     hartree contribution      =      61.22520436 Ry
     xc contribution           =     -39.53456286 Ry
     ewald contribution        =    -135.48921389 Ry
     one-center paw contrib.   =    -327.21021353 Ry
      -> PAW hartree energy AE =      29.07259155 Ry
      -> PAW hartree energy PS =     -29.04253306 Ry
      -> PAW xc energy AE      =     -17.03513940 Ry
      -> PAW xc energy PS      =       7.41100349 Ry
      -> total E_H with PAW    =      61.25526285 Ry
      -> total E_XC with PAW   =     -49.15869876 Ry

     convergence has been achieved in  12 iterations

     Forces acting on atoms (cartesian axes, Ry/au):

     atom    1 type  1   force =     0.00000000    0.00000000    0.00000000
     atom    2 type  2   force =     0.00000000    0.00000000    0.03680665
     atom    3 type  2   force =     0.00000000    0.00000000   -0.03680665
     atom    4 type  3   force =     0.00000000    0.00000000    0.00000000
     The non-local contrib.  to forces
     atom    1 type  1   force =     0.00000000    0.00000000    0.00000000
     atom    2 type  2   force =     0.00000000    0.00000000    0.06278453
     atom    3 type  2   force =     0.00000000    0.00000000   -0.06278453
     atom    4 type  3   force =     0.00000000    0.00000000    0.00000000
     The ionic contribution  to forces
     atom    1 type  1   force =    -0.00000000   -0.00000000    0.00000000
     atom    2 type  2   force =     0.00000001    0.00000000  -10.07462875
     atom    3 type  2   force =    -0.00000001   -0.00000000   10.07462875
     atom    4 type  3   force =    -0.00000000   -0.00000000    0.00000000
     The local contribution  to forces
     atom    1 type  1   force =     0.00000000    0.00000000    0.00000000
     atom    2 type  2   force =     0.00000002   -0.00000003   10.04708794
     atom    3 type  2   force =    -0.00000002    0.00000003  -10.04708794
     atom    4 type  3   force =     0.00000000    0.00000000    0.00000000
     The core correction contribution to forces
     atom    1 type  1   force =     0.00000000    0.00000000    0.00000000
     atom    2 type  2   force =    -0.00000000    0.00000000    0.00155530
     atom    3 type  2   force =     0.00000000   -0.00000000   -0.00155530
     atom    4 type  3   force =     0.00000000    0.00000000    0.00000000
     The Hubbard contrib.    to forces
     atom    1 type  1   force =     0.00000000    0.00000000    0.00000000
     atom    2 type  2   force =     0.00000000    0.00000000    0.00000000
     atom    3 type  2   force =     0.00000000    0.00000000    0.00000000
     atom    4 type  3   force =     0.00000000    0.00000000    0.00000000
     The SCF correction term to forces
     atom    1 type  1   force =    -0.00000000   -0.00000000   -0.00000000
     atom    2 type  2   force =     0.00000000   -0.00000000    0.00000762
     atom    3 type  2   force =    -0.00000000    0.00000000   -0.00000762
     atom    4 type  3   force =     0.00000000    0.00000000   -0.00000000

     Total force =     0.052052     Total SCF correction =     0.000011


     Computing stress (Cartesian axis) and pressure

          total   stress  (Ry/bohr**3)                   (kbar)     P=      -39.35
  -0.00026376   0.00000000   0.00000000          -38.80        0.00        0.00
   0.00000000  -0.00026265  -0.00000000            0.00      -38.64       -0.00
   0.00000000  -0.00000000  -0.00027603            0.00       -0.00      -40.61

     kinetic stress (kbar)  14737.93     -0.00      0.00
                               -0.00  14853.87      0.00
                                0.00     -0.00  14758.62

     local   stress (kbar) -18870.16      0.00      0.00
                                0.00 -24260.27      0.00
                                0.00      0.00   4123.13

     nonloc. stress (kbar)   8011.48     -0.00     -0.00
                                0.00   7930.66      0.00
                                0.00     -0.00   8005.10

     hartree stress (kbar)   8367.45     -0.00     -0.00
                               -0.00  10129.01      0.00
                               -0.00      0.00  -2059.10

     exc-cor stress (kbar)  -1131.12     -0.00     -0.00
                               -0.00  -1121.05     -0.00
                               -0.00     -0.00  -1130.52

     corecor stress (kbar)  -2029.25     -0.00      0.00
                               -0.00  -2029.41      0.00
                                0.00      0.00  -2029.14

     ewald   stress (kbar)  -9125.13      0.00     -0.00
                                0.00  -5541.44     -0.00
                               -0.00     -0.00 -21708.70

     hubbard stress (kbar)      0.00      0.00      0.00
                                0.00      0.00      0.00
                                0.00      0.00      0.00

     DFT-D   stress (kbar)      0.00      0.00      0.00
                                0.00      0.00      0.00
                                0.00      0.00      0.00

     XDM     stress (kbar)      0.00      0.00      0.00
                                0.00      0.00      0.00
                                0.00      0.00      0.00

     dft-nl  stress (kbar)      0.00      0.00      0.00
                                0.00      0.00      0.00
                                0.00      0.00      0.00

     TS-vdW  stress (kbar)      0.00      0.00      0.00
                                0.00      0.00      0.00
                                0.00      0.00      0.00



     Writing output data file /zfs_data/gutierre/Scratch/Cl2NbO/smearing/8x8x8/0.003/tmp/Cl2NbO.save/
 
     init_run     :      3.01s CPU      3.12s WALL (       1 calls)
     electrons    :     58.85s CPU     60.40s WALL (       1 calls)
     forces       :      0.79s CPU      0.80s WALL (       1 calls)
     stress       :      1.78s CPU      1.78s WALL (       1 calls)

     Called by init_run:
     wfcinit      :      1.79s CPU      1.85s WALL (       1 calls)
     wfcinit:atom :      0.01s CPU      0.01s WALL (      95 calls)
     wfcinit:wfcr :      1.73s CPU      1.78s WALL (      95 calls)
     potinit      :      0.37s CPU      0.39s WALL (       1 calls)
     hinit0       :      0.49s CPU      0.49s WALL (       1 calls)

     Called by electrons:
     c_bands      :     45.34s CPU     46.54s WALL (      12 calls)
     sum_band     :     10.53s CPU     10.81s WALL (      12 calls)
     v_of_rho     :      1.18s CPU      1.21s WALL (      13 calls)
     v_h          :      0.10s CPU      0.10s WALL (      13 calls)
     v_xc         :      1.25s CPU      1.28s WALL (      15 calls)
     newd         :      1.02s CPU      1.03s WALL (      13 calls)
     PAW_pot      :      0.68s CPU      0.70s WALL (      13 calls)
     mix_rho      :      0.17s CPU      0.17s WALL (      12 calls)

     Called by c_bands:
     init_us_2    :      0.63s CPU      0.66s WALL (    2565 calls)
     cegterg      :     44.01s CPU     45.14s WALL (    1140 calls)

     Called by sum_band:
     sum_band:wei :      0.03s CPU      0.03s WALL (      12 calls)
     sum_band:loo :      9.34s CPU      9.57s WALL (      12 calls)
     sum_band:buf :      0.09s CPU      0.09s WALL (    1140 calls)
     sum_band:ini :      0.30s CPU      0.30s WALL (    1140 calls)
     sum_band:cal :      0.33s CPU      0.34s WALL (    1140 calls)
     sum_band:bec :      0.03s CPU      0.04s WALL (    1140 calls)
     addusdens    :      0.99s CPU      1.03s WALL (      12 calls)
     addusd:skk   :      0.01s CPU      0.01s WALL (      36 calls)
     addusd:dgemm :      0.28s CPU      0.31s WALL (      36 calls)
     addusd:qvan2 :      0.66s CPU      0.66s WALL (      36 calls)

     Called by *egterg:
     cdiaghg      :      2.40s CPU      2.57s WALL (    4204 calls)
     cegterg:over :      0.87s CPU      0.89s WALL (    3064 calls)
     cegterg:upda :      0.26s CPU      0.27s WALL (    3064 calls)
     cegterg:last :      0.42s CPU      0.43s WALL (    2244 calls)
     h_psi        :     40.59s CPU     41.55s WALL (    4299 calls)
     s_psi        :      0.29s CPU      0.29s WALL (    4299 calls)
     g_psi        :      0.05s CPU      0.05s WALL (    3064 calls)

     Called by h_psi:
     h_psi:calbec :      1.06s CPU      1.08s WALL (    4299 calls)
     vloc_psi     :     38.94s CPU     39.86s WALL (    4299 calls)
     add_vuspsi   :      0.45s CPU      0.46s WALL (    4299 calls)

     General routines
     calbec       :      1.43s CPU      1.46s WALL (    5914 calls)
     fft          :      1.03s CPU      1.05s WALL (     192 calls)
     ffts         :      0.02s CPU      0.02s WALL (      25 calls)
     fftw         :     42.63s CPU     43.71s WALL (  144292 calls)
     interpolate  :      0.09s CPU      0.09s WALL (      13 calls)
 
     Parallel routines
     fft_scatt_xy :      5.70s CPU      5.80s WALL (  144509 calls)
     fft_scatt_yz :     19.04s CPU     19.53s WALL (  144509 calls)

     PAW routines
     PAW_pot      :      0.68s CPU      0.70s WALL (      13 calls)
     PAW_symme    :      0.02s CPU      0.03s WALL (      25 calls)
 
     PWSCF        :   1m 5.33s CPU   1m 7.88s WALL

 
   This run was terminated on:  17:51:12  18May2022            

=------------------------------------------------------------------------------=
   JOB DONE.
=------------------------------------------------------------------------------=
