
     Program PWSCF v.6.7MaX starts on 18May2022 at 15:54: 5 

     This program is part of the open-source Quantum ESPRESSO suite
     for quantum simulation of materials; please cite
         "P. Giannozzi et al., J. Phys.:Condens. Matter 21 395502 (2009);
         "P. Giannozzi et al., J. Phys.:Condens. Matter 29 465901 (2017);
          URL http://www.quantum-espresso.org", 
     in publications or presentations arising from this work. More details at
     http://www.quantum-espresso.org/quote

     Parallel version (MPI), running on    48 processors

     MPI processes distributed on     1 nodes
     R & G space division:  proc/nbgrp/npool/nimage =      48
     Waiting for input...
     Reading input from standard input

     Current dimensions of program PWSCF are:
     Max number of different atomic species (ntypx) = 10
     Max number of k-points (npk) =  40000
     Max angular momentum in pseudopotentials (lmaxx) =  3
     file O.pbe-nl-kjpaw_psl.1.0.0.UPF: wavefunction(s)  2S 2P renormalized
     file Cl.pbe-nl-kjpaw_psl.1.0.0.UPF: wavefunction(s)  3S renormalized
     file Nb.pbe-spn-kjpaw_psl.1.0.0.UPF: wavefunction(s)  4S 4P 4D renormalized

     Subspace diagonalization in iterative solution of the eigenvalue problem:
     a serial algorithm will be used

     Message from routine setup:
     using ibrav=0 with symmetry is DISCOURAGED, use correct ibrav instead
 
     Parallelization info
     --------------------
     sticks:   dense  smooth     PW     G-vecs:    dense   smooth      PW
     Min         188      75     24                 6088     1541     280
     Max         189      76     25                 6091     1544     282
     Sum        9049    3617   1155               292287    74033   13473
 


     bravais-lattice index     =            0
     lattice parameter (alat)  =      12.6717  a.u.
     unit-cell volume          =     547.9313 (a.u.)^3
     number of atoms/cell      =            4
     number of atomic types    =            3
     number of electrons       =        33.00
     number of Kohn-Sham states=           21
     kinetic-energy cutoff     =     100.0000  Ry
     charge density cutoff     =    1000.0000  Ry
     scf convergence threshold =      1.0E-10
     mixing beta               =       0.7000
     number of iterations used =            8  plain     mixing
     Exchange-correlation= SLA  PW   PBX  PBC
                           (   1   4   3   4   0   0   0)

     celldm(1)=  12.671676  celldm(2)=   0.000000  celldm(3)=   0.000000
     celldm(4)=   0.000000  celldm(5)=   0.000000  celldm(6)=   0.000000

     crystal axes: (cart. coord. in units of alat)
               a(1) = (  -0.250426   0.291161   0.923316 )  
               a(2) = (   0.250426  -0.291161   0.923316 )  
               a(3) = (   0.250426   0.291161  -0.923316 )  

     reciprocal axes: (cart. coord. in units 2 pi/alat)
               b(1) = (  0.000000  1.717261  0.541527 )  
               b(2) = (  1.996594  0.000000  0.541527 )  
               b(3) = (  1.996594  1.717261  0.000000 )  


     PseudoPot. # 1 for O  read from file:
     /zfs_data/gutierre/Scratch/Cl2NbO/convergence/cutoff/10x10x10/100/pseudo/O.pbe-nl-kjpaw_psl.1.0.0.UPF
     MD5 check sum: df3ddea38124b4e5de5e1084591730e4
     Pseudo is Projector augmented-wave + core cor, Zval =  6.0
     Generated using 'atomic' code by A. Dal Corso  v.6.7MaX
     Shape of augmentation charge: PSQ
     Using radial grid of 1095 points,  4 beta functions with: 
                l(1) =   0
                l(2) =   0
                l(3) =   1
                l(4) =   1
     Q(r) pseudized with 0 coefficients 


     PseudoPot. # 2 for Cl read from file:
     /zfs_data/gutierre/Scratch/Cl2NbO/convergence/cutoff/10x10x10/100/pseudo/Cl.pbe-nl-kjpaw_psl.1.0.0.UPF
     MD5 check sum: 8cf6bde52c08f6236e0f72a8870677af
     Pseudo is Projector augmented-wave + core cor, Zval =  7.0
     Generated using 'atomic' code by A. Dal Corso  v.6.7MaX
     Shape of augmentation charge: PSQ
     Using radial grid of 1157 points,  4 beta functions with: 
                l(1) =   0
                l(2) =   0
                l(3) =   1
                l(4) =   1
     Q(r) pseudized with 0 coefficients 


     PseudoPot. # 3 for Nb read from file:
     /zfs_data/gutierre/Scratch/Cl2NbO/convergence/cutoff/10x10x10/100/pseudo/Nb.pbe-spn-kjpaw_psl.1.0.0.UPF
     MD5 check sum: 1ec1a3aa7bf3cbf7f7e0d720422bce7a
     Pseudo is Projector augmented-wave + core cor, Zval = 13.0
     Generated using 'atomic' code by A. Dal Corso  v.6.7MaX
     Shape of augmentation charge: PSQ
     Using radial grid of 1227 points,  6 beta functions with: 
                l(1) =   0
                l(2) =   0
                l(3) =   1
                l(4) =   1
                l(5) =   2
                l(6) =   2
     Q(r) pseudized with 0 coefficients 


     atomic species   valence    mass     pseudopotential
        O              6.00    15.99940     O ( 1.00)
        Cl             7.00    35.45150     Cl( 1.00)
        Nb            13.00    92.90637     Nb( 1.00)

      8 Sym. Ops., with inversion, found


                                    s                        frac. trans.

      isym =  1     identity                                     

 cryst.   s( 1) = (     1          0          0      )
                  (     0          1          0      )
                  (     0          0          1      )

 cart.    s( 1) = (  1.0000000  0.0000000  0.0000000 )
                  (  0.0000000  1.0000000  0.0000000 )
                  (  0.0000000  0.0000000  1.0000000 )


      isym =  2     180 deg rotation - cart. axis [0,0,1]        

 cryst.   s( 2) = (     0          1          0      )
                  (     1          0          0      )
                  (    -1         -1         -1      )

 cart.    s( 2) = ( -1.0000000  0.0000000  0.0000000 )
                  (  0.0000000 -1.0000000  0.0000000 )
                  (  0.0000000  0.0000000  1.0000000 )


      isym =  3     180 deg rotation - cart. axis [0,1,0]        

 cryst.   s( 3) = (     0          0          1      )
                  (    -1         -1         -1      )
                  (     1          0          0      )

 cart.    s( 3) = ( -1.0000000  0.0000000  0.0000000 )
                  (  0.0000000  1.0000000  0.0000000 )
                  (  0.0000000  0.0000000 -1.0000000 )


      isym =  4     180 deg rotation - cart. axis [1,0,0]        

 cryst.   s( 4) = (    -1         -1         -1      )
                  (     0          0          1      )
                  (     0          1          0      )

 cart.    s( 4) = (  1.0000000  0.0000000  0.0000000 )
                  (  0.0000000 -1.0000000  0.0000000 )
                  (  0.0000000  0.0000000 -1.0000000 )


      isym =  5     inversion                                    

 cryst.   s( 5) = (    -1          0          0      )
                  (     0         -1          0      )
                  (     0          0         -1      )

 cart.    s( 5) = ( -1.0000000  0.0000000  0.0000000 )
                  (  0.0000000 -1.0000000  0.0000000 )
                  (  0.0000000  0.0000000 -1.0000000 )


      isym =  6     inv. 180 deg rotation - cart. axis [0,0,1]   

 cryst.   s( 6) = (     0         -1          0      )
                  (    -1          0          0      )
                  (     1          1          1      )

 cart.    s( 6) = (  1.0000000  0.0000000  0.0000000 )
                  (  0.0000000  1.0000000  0.0000000 )
                  (  0.0000000  0.0000000 -1.0000000 )


      isym =  7     inv. 180 deg rotation - cart. axis [0,1,0]   

 cryst.   s( 7) = (     0          0         -1      )
                  (     1          1          1      )
                  (    -1          0          0      )

 cart.    s( 7) = (  1.0000000  0.0000000  0.0000000 )
                  (  0.0000000 -1.0000000  0.0000000 )
                  (  0.0000000  0.0000000  1.0000000 )


      isym =  8     inv. 180 deg rotation - cart. axis [1,0,0]   

 cryst.   s( 8) = (     1          1          1      )
                  (     0          0         -1      )
                  (     0         -1          0      )

 cart.    s( 8) = ( -1.0000000  0.0000000  0.0000000 )
                  (  0.0000000  1.0000000  0.0000000 )
                  (  0.0000000  0.0000000  1.0000000 )


   Cartesian axes

     site n.     atom                  positions (alat units)
         1           O   tau(   1) = (   0.0000000   0.2911613   0.0000000  )
         2           Cl  tau(   2) = (  -0.0000000   0.2911613   0.6365338  )
         3           Cl  tau(   3) = (   0.2504264  -0.0000000   0.2867819  )
         4           Nb  tau(   4) = (   0.0000000   0.0000000   0.0000000  )

   Crystallographic axes

     site n.     atom                  positions (cryst. coord.)
         1           O   tau(   1) = (  0.5000000  0.0000000  0.5000000  )
         2           Cl  tau(   2) = (  0.8447000  0.3447000  0.5000000  )
         3           Cl  tau(   3) = (  0.1553000  0.6553000  0.5000000  )
         4           Nb  tau(   4) = (  0.0000000  0.0000000  0.0000000  )

     number of k points=   171  Methfessel-Paxton smearing, width (Ry)=  0.0120
                       cart. coord. in units 2pi/alat
        k(    1) = (   0.0000000   0.0000000   0.0000000), wk =   0.0020000
        k(    2) = (   0.1996594   0.1717261   0.0000000), wk =   0.0080000
        k(    3) = (   0.3993189   0.3434523   0.0000000), wk =   0.0080000
        k(    4) = (   0.5989783   0.5151784   0.0000000), wk =   0.0080000
        k(    5) = (   0.7986377   0.6869045   0.0000000), wk =   0.0080000
        k(    6) = (  -0.9982971  -0.8586307   0.0000000), wk =   0.0040000
        k(    7) = (   0.1996594   0.0000000   0.0541527), wk =   0.0080000
        k(    8) = (   0.3993189   0.1717261   0.0541527), wk =   0.0160000
        k(    9) = (   0.5989783   0.3434523   0.0541527), wk =   0.0160000
        k(   10) = (   0.7986377   0.5151784   0.0541527), wk =   0.0160000
        k(   11) = (   0.9982971   0.6869045   0.0541527), wk =   0.0160000
        k(   12) = (  -0.7986377  -0.8586307   0.0541527), wk =   0.0160000
        k(   13) = (  -0.5989783  -0.6869045   0.0541527), wk =   0.0160000
        k(   14) = (  -0.3993189  -0.5151784   0.0541527), wk =   0.0160000
        k(   15) = (  -0.1996594  -0.3434523   0.0541527), wk =   0.0160000
        k(   16) = (   0.0000000  -0.1717261   0.0541527), wk =   0.0080000
        k(   17) = (   0.3993189   0.0000000   0.1083053), wk =   0.0080000
        k(   18) = (   0.5989783   0.1717261   0.1083053), wk =   0.0160000
        k(   19) = (   0.7986377   0.3434523   0.1083053), wk =   0.0160000
        k(   20) = (   0.9982971   0.5151784   0.1083053), wk =   0.0160000
        k(   21) = (   1.1979566   0.6869045   0.1083053), wk =   0.0160000
        k(   22) = (  -0.5989783  -0.8586307   0.1083053), wk =   0.0160000
        k(   23) = (  -0.3993189  -0.6869045   0.1083053), wk =   0.0160000
        k(   24) = (  -0.1996594  -0.5151784   0.1083053), wk =   0.0160000
        k(   25) = (   0.0000000  -0.3434523   0.1083053), wk =   0.0080000
        k(   26) = (   0.1996594  -0.1717261   0.1083053), wk =   0.0160000
        k(   27) = (   0.5989783   0.0000000   0.1624580), wk =   0.0080000
        k(   28) = (   0.7986377   0.1717261   0.1624580), wk =   0.0160000
        k(   29) = (   0.9982971   0.3434523   0.1624580), wk =   0.0160000
        k(   30) = (   1.1979566   0.5151784   0.1624580), wk =   0.0160000
        k(   31) = (   1.3976160   0.6869045   0.1624580), wk =   0.0160000
        k(   32) = (  -0.3993189  -0.8586307   0.1624580), wk =   0.0160000
        k(   33) = (  -0.1996594  -0.6869045   0.1624580), wk =   0.0160000
        k(   34) = (  -0.0000000  -0.5151784   0.1624580), wk =   0.0080000
        k(   35) = (   0.1996594  -0.3434523   0.1624580), wk =   0.0160000
        k(   36) = (   0.3993189  -0.1717261   0.1624580), wk =   0.0160000
        k(   37) = (   0.7986377   0.0000000   0.2166107), wk =   0.0080000
        k(   38) = (   0.9982971   0.1717261   0.2166107), wk =   0.0160000
        k(   39) = (   1.1979566   0.3434523   0.2166107), wk =   0.0160000
        k(   40) = (   1.3976160   0.5151784   0.2166107), wk =   0.0160000
        k(   41) = (   1.5972754   0.6869045   0.2166107), wk =   0.0160000
        k(   42) = (  -0.1996594  -0.8586307   0.2166107), wk =   0.0160000
        k(   43) = (   0.0000000  -0.6869045   0.2166107), wk =   0.0080000
        k(   44) = (   0.1996594  -0.5151784   0.2166107), wk =   0.0160000
        k(   45) = (   0.3993189  -0.3434523   0.2166107), wk =   0.0160000
        k(   46) = (   0.5989783  -0.1717261   0.2166107), wk =   0.0160000
        k(   47) = (  -0.9982971   0.0000000  -0.2707633), wk =   0.0040000
        k(   48) = (  -0.7986377   0.1717261  -0.2707633), wk =   0.0160000
        k(   49) = (  -0.5989783   0.3434523  -0.2707633), wk =   0.0160000
        k(   50) = (  -0.3993189   0.5151784  -0.2707633), wk =   0.0160000
        k(   51) = (  -0.1996594   0.6869045  -0.2707633), wk =   0.0160000
        k(   52) = (  -1.9965943  -0.8586307  -0.2707633), wk =   0.0040000
        k(   53) = (   0.3993189   0.3434523   0.1083053), wk =   0.0160000
        k(   54) = (   0.5989783   0.5151784   0.1083053), wk =   0.0160000
        k(   55) = (   0.7986377   0.6869045   0.1083053), wk =   0.0160000
        k(   56) = (   0.9982971   0.8586307   0.1083053), wk =   0.0080000
        k(   57) = (   0.0000000   0.0000000   0.1083053), wk =   0.0040000
        k(   58) = (   0.5989783   0.3434523   0.1624580), wk =   0.0160000
        k(   59) = (   0.7986377   0.5151784   0.1624580), wk =   0.0160000
        k(   60) = (   0.9982971   0.6869045   0.1624580), wk =   0.0160000
        k(   61) = (   1.1979566   0.8586307   0.1624580), wk =   0.0160000
        k(   62) = (  -0.5989783  -0.6869045   0.1624580), wk =   0.0160000
        k(   63) = (  -0.3993189  -0.5151784   0.1624580), wk =   0.0160000
        k(   64) = (   0.0000000  -0.1717261   0.1624580), wk =   0.0080000
        k(   65) = (   0.1996594   0.0000000   0.1624580), wk =   0.0080000
        k(   66) = (   0.7986377   0.3434523   0.2166107), wk =   0.0160000
        k(   67) = (   0.9982971   0.5151784   0.2166107), wk =   0.0160000
        k(   68) = (   1.1979566   0.6869045   0.2166107), wk =   0.0160000
        k(   69) = (   1.3976160   0.8586307   0.2166107), wk =   0.0160000
        k(   70) = (  -0.3993189  -0.6869045   0.2166107), wk =   0.0160000
        k(   71) = (  -0.0000000  -0.3434523   0.2166107), wk =   0.0080000
        k(   72) = (   0.1996594  -0.1717261   0.2166107), wk =   0.0160000
        k(   73) = (   0.3993189   0.0000000   0.2166107), wk =   0.0080000
        k(   74) = (   0.9982971   0.3434523   0.2707633), wk =   0.0080000
        k(   75) = (   1.1979566   0.5151784   0.2707633), wk =   0.0160000
        k(   76) = (   1.3976160   0.6869045   0.2707633), wk =   0.0160000
        k(   77) = (   1.5972754   0.8586307   0.2707633), wk =   0.0080000
        k(   78) = (   0.0000000  -0.5151784   0.2707633), wk =   0.0080000
        k(   79) = (   0.1996594  -0.3434523   0.2707633), wk =   0.0160000
        k(   80) = (   0.3993189  -0.1717261   0.2707633), wk =   0.0160000
        k(   81) = (   0.5989783   0.0000000   0.2707633), wk =   0.0080000
        k(   82) = (  -0.5989783   0.5151784  -0.2166107), wk =   0.0160000
        k(   83) = (  -1.9965943  -0.6869045  -0.2166107), wk =   0.0080000
        k(   84) = (  -1.7969349  -0.5151784  -0.2166107), wk =   0.0160000
        k(   85) = (  -1.5972754  -0.3434523  -0.2166107), wk =   0.0160000
        k(   86) = (  -1.3976160  -0.1717261  -0.2166107), wk =   0.0160000
        k(   87) = (  -1.1979566   0.0000000  -0.2166107), wk =   0.0080000
        k(   88) = (   0.0000000   0.8586307  -0.1624580), wk =   0.0080000
        k(   89) = (  -1.7969349  -0.6869045  -0.1624580), wk =   0.0160000
        k(   90) = (  -1.5972754  -0.5151784  -0.1624580), wk =   0.0160000
        k(   91) = (  -1.3976160  -0.3434523  -0.1624580), wk =   0.0160000
        k(   92) = (  -1.1979566  -0.1717261  -0.1624580), wk =   0.0160000
        k(   93) = (  -0.9982971   0.0000000  -0.1624580), wk =   0.0080000
        k(   94) = (  -0.0000000   0.6869045  -0.1083053), wk =   0.0080000
        k(   95) = (   0.1996594   0.8586307  -0.1083053), wk =   0.0160000
        k(   96) = (  -1.5972754  -0.6869045  -0.1083053), wk =   0.0160000
        k(   97) = (  -1.3976160  -0.5151784  -0.1083053), wk =   0.0160000
        k(   98) = (  -1.1979566  -0.3434523  -0.1083053), wk =   0.0160000
        k(   99) = (  -0.9982971  -0.1717261  -0.1083053), wk =   0.0160000
        k(  100) = (  -0.7986377   0.0000000  -0.1083053), wk =   0.0080000
        k(  101) = (   0.0000000   0.5151784  -0.0541527), wk =   0.0080000
        k(  102) = (   0.1996594   0.6869045  -0.0541527), wk =   0.0160000
        k(  103) = (   0.3993189   0.8586307  -0.0541527), wk =   0.0160000
        k(  104) = (  -1.3976160  -0.6869045  -0.0541527), wk =   0.0160000
        k(  105) = (  -1.1979566  -0.5151784  -0.0541527), wk =   0.0160000
        k(  106) = (  -0.9982971  -0.3434523  -0.0541527), wk =   0.0160000
        k(  107) = (  -0.7986377  -0.1717261  -0.0541527), wk =   0.0160000
        k(  108) = (  -0.5989783   0.0000000  -0.0541527), wk =   0.0080000
        k(  109) = (   0.0000000   0.3434523   0.0000000), wk =   0.0040000
        k(  110) = (   0.1996594   0.5151784   0.0000000), wk =   0.0080000
        k(  111) = (   0.3993189   0.6869045   0.0000000), wk =   0.0080000
        k(  112) = (   0.5989783   0.8586307   0.0000000), wk =   0.0080000
        k(  113) = (  -1.1979566  -0.6869045   0.0000000), wk =   0.0080000
        k(  114) = (  -0.9982971  -0.5151784   0.0000000), wk =   0.0080000
        k(  115) = (  -0.7986377  -0.3434523   0.0000000), wk =   0.0080000
        k(  116) = (  -0.5989783  -0.1717261   0.0000000), wk =   0.0080000
        k(  117) = (  -0.3993189   0.0000000   0.0000000), wk =   0.0040000
        k(  118) = (   0.7986377   0.6869045   0.2166107), wk =   0.0160000
        k(  119) = (   0.9982971   0.8586307   0.2166107), wk =   0.0080000
        k(  120) = (   0.0000000   0.0000000   0.2166107), wk =   0.0040000
        k(  121) = (   0.9982971   0.6869045   0.2707633), wk =   0.0080000
        k(  122) = (   1.1979566   0.8586307   0.2707633), wk =   0.0080000
        k(  123) = (  -0.0000000  -0.1717261   0.2707633), wk =   0.0080000
        k(  124) = (   0.1996594   0.0000000   0.2707633), wk =   0.0080000
        k(  125) = (   0.0000000  -0.3434523   0.3249160), wk =   0.0080000
        k(  126) = (   0.1996594  -0.1717261   0.3249160), wk =   0.0160000
        k(  127) = (   0.3993189   0.0000000   0.3249160), wk =   0.0080000
        k(  128) = (  -1.9965943  -0.5151784  -0.1624580), wk =   0.0080000
        k(  129) = (  -1.7969349  -0.3434523  -0.1624580), wk =   0.0160000
        k(  130) = (  -1.5972754  -0.1717261  -0.1624580), wk =   0.0160000
        k(  131) = (  -1.3976160   0.0000000  -0.1624580), wk =   0.0080000
        k(  132) = (   0.0000000   1.0303568  -0.1083053), wk =   0.0080000
        k(  133) = (  -1.7969349  -0.5151784  -0.1083053), wk =   0.0160000
        k(  134) = (  -1.5972754  -0.3434523  -0.1083053), wk =   0.0160000
        k(  135) = (  -1.3976160  -0.1717261  -0.1083053), wk =   0.0160000
        k(  136) = (  -1.1979566   0.0000000  -0.1083053), wk =   0.0080000
        k(  137) = (  -0.0000000   0.8586307  -0.0541527), wk =   0.0080000
        k(  138) = (   0.1996594   1.0303568  -0.0541527), wk =   0.0160000
        k(  139) = (  -1.5972754  -0.5151784  -0.0541527), wk =   0.0160000
        k(  140) = (  -1.3976160  -0.3434523  -0.0541527), wk =   0.0160000
        k(  141) = (  -1.1979566  -0.1717261  -0.0541527), wk =   0.0160000
        k(  142) = (  -0.9982971   0.0000000  -0.0541527), wk =   0.0080000
        k(  143) = (   0.0000000   0.6869045   0.0000000), wk =   0.0040000
        k(  144) = (   0.1996594   0.8586307   0.0000000), wk =   0.0080000
        k(  145) = (   0.3993189   1.0303568   0.0000000), wk =   0.0080000
        k(  146) = (  -1.3976160  -0.5151784   0.0000000), wk =   0.0080000
        k(  147) = (  -1.1979566  -0.3434523   0.0000000), wk =   0.0080000
        k(  148) = (  -0.9982971  -0.1717261   0.0000000), wk =   0.0080000
        k(  149) = (  -0.7986377   0.0000000   0.0000000), wk =   0.0040000
        k(  150) = (  -0.0000000   0.0000000   0.3249160), wk =   0.0040000
        k(  151) = (   0.0000000  -0.1717261   0.3790686), wk =   0.0080000
        k(  152) = (   0.1996594   0.0000000   0.3790686), wk =   0.0080000
        k(  153) = (  -1.9965943  -0.3434523  -0.1083053), wk =   0.0080000
        k(  154) = (  -1.7969349  -0.1717261  -0.1083053), wk =   0.0160000
        k(  155) = (  -1.5972754   0.0000000  -0.1083053), wk =   0.0080000
        k(  156) = (   0.0000000   1.2020829  -0.0541527), wk =   0.0080000
        k(  157) = (  -1.7969349  -0.3434523  -0.0541527), wk =   0.0160000
        k(  158) = (  -1.5972754  -0.1717261  -0.0541527), wk =   0.0160000
        k(  159) = (  -1.3976160   0.0000000  -0.0541527), wk =   0.0080000
        k(  160) = (  -0.0000000   1.0303568  -0.0000000), wk =   0.0040000
        k(  161) = (   0.1996594   1.2020829  -0.0000000), wk =   0.0080000
        k(  162) = (  -1.5972754  -0.3434523  -0.0000000), wk =   0.0080000
        k(  163) = (  -1.3976160  -0.1717261  -0.0000000), wk =   0.0080000
        k(  164) = (  -1.1979566   0.0000000  -0.0000000), wk =   0.0040000
        k(  165) = (   0.0000000   0.0000000   0.4332213), wk =   0.0040000
        k(  166) = (  -1.9965943  -0.1717261  -0.0541527), wk =   0.0080000
        k(  167) = (  -1.7969349   0.0000000  -0.0541527), wk =   0.0080000
        k(  168) = (   0.0000000   1.3738091   0.0000000), wk =   0.0040000
        k(  169) = (  -1.7969349  -0.1717261   0.0000000), wk =   0.0080000
        k(  170) = (  -1.5972754   0.0000000   0.0000000), wk =   0.0040000
        k(  171) = (  -1.9965943  -1.7172613  -0.5415266), wk =   0.0020000

                       cryst. coord.
        k(    1) = (   0.0000000   0.0000000   0.0000000), wk =   0.0020000
        k(    2) = (  -0.0000000   0.0000000   0.1000000), wk =   0.0080000
        k(    3) = (  -0.0000000   0.0000000   0.2000000), wk =   0.0080000
        k(    4) = (   0.0000000   0.0000000   0.3000000), wk =   0.0080000
        k(    5) = (  -0.0000000   0.0000000   0.4000000), wk =   0.0080000
        k(    6) = (   0.0000000   0.0000000  -0.5000000), wk =   0.0040000
        k(    7) = (  -0.0000000   0.1000000   0.0000000), wk =   0.0080000
        k(    8) = (  -0.0000000   0.1000000   0.1000000), wk =   0.0160000
        k(    9) = (  -0.0000000   0.1000000   0.2000000), wk =   0.0160000
        k(   10) = (  -0.0000000   0.1000000   0.3000000), wk =   0.0160000
        k(   11) = (  -0.0000000   0.1000000   0.4000000), wk =   0.0160000
        k(   12) = (   0.0000000   0.1000000  -0.5000000), wk =   0.0160000
        k(   13) = (   0.0000000   0.1000000  -0.4000000), wk =   0.0160000
        k(   14) = (   0.0000000   0.1000000  -0.3000000), wk =   0.0160000
        k(   15) = (   0.0000000   0.1000000  -0.2000000), wk =   0.0160000
        k(   16) = (   0.0000000   0.1000000  -0.1000000), wk =   0.0080000
        k(   17) = (  -0.0000000   0.2000000   0.0000000), wk =   0.0080000
        k(   18) = (  -0.0000000   0.2000000   0.1000000), wk =   0.0160000
        k(   19) = (  -0.0000000   0.2000000   0.2000000), wk =   0.0160000
        k(   20) = (   0.0000000   0.2000000   0.3000000), wk =   0.0160000
        k(   21) = (  -0.0000000   0.2000000   0.4000000), wk =   0.0160000
        k(   22) = (   0.0000000   0.2000000  -0.5000000), wk =   0.0160000
        k(   23) = (   0.0000000   0.2000000  -0.4000000), wk =   0.0160000
        k(   24) = (   0.0000000   0.2000000  -0.3000000), wk =   0.0160000
        k(   25) = (   0.0000000   0.2000000  -0.2000000), wk =   0.0080000
        k(   26) = (   0.0000000   0.2000000  -0.1000000), wk =   0.0160000
        k(   27) = (   0.0000000   0.3000000   0.0000000), wk =   0.0080000
        k(   28) = (  -0.0000000   0.3000000   0.1000000), wk =   0.0160000
        k(   29) = (   0.0000000   0.3000000   0.2000000), wk =   0.0160000
        k(   30) = (   0.0000000   0.3000000   0.3000000), wk =   0.0160000
        k(   31) = (  -0.0000000   0.3000000   0.4000000), wk =   0.0160000
        k(   32) = (   0.0000000   0.3000000  -0.5000000), wk =   0.0160000
        k(   33) = (   0.0000000   0.3000000  -0.4000000), wk =   0.0160000
        k(   34) = (   0.0000000   0.3000000  -0.3000000), wk =   0.0080000
        k(   35) = (   0.0000000   0.3000000  -0.2000000), wk =   0.0160000
        k(   36) = (   0.0000000   0.3000000  -0.1000000), wk =   0.0160000
        k(   37) = (  -0.0000000   0.4000000   0.0000000), wk =   0.0080000
        k(   38) = (  -0.0000000   0.4000000   0.1000000), wk =   0.0160000
        k(   39) = (  -0.0000000   0.4000000   0.2000000), wk =   0.0160000
        k(   40) = (  -0.0000000   0.4000000   0.3000000), wk =   0.0160000
        k(   41) = (  -0.0000000   0.4000000   0.4000000), wk =   0.0160000
        k(   42) = (   0.0000000   0.4000000  -0.5000000), wk =   0.0160000
        k(   43) = (   0.0000000   0.4000000  -0.4000000), wk =   0.0080000
        k(   44) = (   0.0000000   0.4000000  -0.3000000), wk =   0.0160000
        k(   45) = (   0.0000000   0.4000000  -0.2000000), wk =   0.0160000
        k(   46) = (  -0.0000000   0.4000000  -0.1000000), wk =   0.0160000
        k(   47) = (   0.0000000  -0.5000000   0.0000000), wk =   0.0040000
        k(   48) = (   0.0000000  -0.5000000   0.1000000), wk =   0.0160000
        k(   49) = (   0.0000000  -0.5000000   0.2000000), wk =   0.0160000
        k(   50) = (   0.0000000  -0.5000000   0.3000000), wk =   0.0160000
        k(   51) = (   0.0000000  -0.5000000   0.4000000), wk =   0.0160000
        k(   52) = (   0.0000000  -0.5000000  -0.5000000), wk =   0.0040000
        k(   53) = (   0.1000000   0.1000000   0.1000000), wk =   0.0160000
        k(   54) = (   0.1000000   0.1000000   0.2000000), wk =   0.0160000
        k(   55) = (   0.1000000   0.1000000   0.3000000), wk =   0.0160000
        k(   56) = (   0.1000000   0.1000000   0.4000000), wk =   0.0080000
        k(   57) = (   0.1000000   0.1000000  -0.1000000), wk =   0.0040000
        k(   58) = (   0.1000000   0.2000000   0.1000000), wk =   0.0160000
        k(   59) = (   0.1000000   0.2000000   0.2000000), wk =   0.0160000
        k(   60) = (   0.1000000   0.2000000   0.3000000), wk =   0.0160000
        k(   61) = (   0.1000000   0.2000000   0.4000000), wk =   0.0160000
        k(   62) = (   0.1000000   0.2000000  -0.5000000), wk =   0.0160000
        k(   63) = (   0.1000000   0.2000000  -0.4000000), wk =   0.0160000
        k(   64) = (   0.1000000   0.2000000  -0.2000000), wk =   0.0080000
        k(   65) = (   0.1000000   0.2000000  -0.1000000), wk =   0.0080000
        k(   66) = (   0.1000000   0.3000000   0.1000000), wk =   0.0160000
        k(   67) = (   0.1000000   0.3000000   0.2000000), wk =   0.0160000
        k(   68) = (   0.1000000   0.3000000   0.3000000), wk =   0.0160000
        k(   69) = (   0.1000000   0.3000000   0.4000000), wk =   0.0160000
        k(   70) = (   0.1000000   0.3000000  -0.5000000), wk =   0.0160000
        k(   71) = (   0.1000000   0.3000000  -0.3000000), wk =   0.0080000
        k(   72) = (   0.1000000   0.3000000  -0.2000000), wk =   0.0160000
        k(   73) = (   0.1000000   0.3000000  -0.1000000), wk =   0.0080000
        k(   74) = (   0.1000000   0.4000000   0.1000000), wk =   0.0080000
        k(   75) = (   0.1000000   0.4000000   0.2000000), wk =   0.0160000
        k(   76) = (   0.1000000   0.4000000   0.3000000), wk =   0.0160000
        k(   77) = (   0.1000000   0.4000000   0.4000000), wk =   0.0080000
        k(   78) = (   0.1000000   0.4000000  -0.4000000), wk =   0.0080000
        k(   79) = (   0.1000000   0.4000000  -0.3000000), wk =   0.0160000
        k(   80) = (   0.1000000   0.4000000  -0.2000000), wk =   0.0160000
        k(   81) = (   0.1000000   0.4000000  -0.1000000), wk =   0.0080000
        k(   82) = (   0.1000000  -0.5000000   0.2000000), wk =   0.0160000
        k(   83) = (   0.1000000  -0.5000000  -0.5000000), wk =   0.0080000
        k(   84) = (   0.1000000  -0.5000000  -0.4000000), wk =   0.0160000
        k(   85) = (   0.1000000  -0.5000000  -0.3000000), wk =   0.0160000
        k(   86) = (   0.1000000  -0.5000000  -0.2000000), wk =   0.0160000
        k(   87) = (   0.1000000  -0.5000000  -0.1000000), wk =   0.0080000
        k(   88) = (   0.1000000  -0.4000000   0.4000000), wk =   0.0080000
        k(   89) = (   0.1000000  -0.4000000  -0.5000000), wk =   0.0160000
        k(   90) = (   0.1000000  -0.4000000  -0.4000000), wk =   0.0160000
        k(   91) = (   0.1000000  -0.4000000  -0.3000000), wk =   0.0160000
        k(   92) = (   0.1000000  -0.4000000  -0.2000000), wk =   0.0160000
        k(   93) = (   0.1000000  -0.4000000  -0.1000000), wk =   0.0080000
        k(   94) = (   0.1000000  -0.3000000   0.3000000), wk =   0.0080000
        k(   95) = (   0.1000000  -0.3000000   0.4000000), wk =   0.0160000
        k(   96) = (   0.1000000  -0.3000000  -0.5000000), wk =   0.0160000
        k(   97) = (   0.1000000  -0.3000000  -0.4000000), wk =   0.0160000
        k(   98) = (   0.1000000  -0.3000000  -0.3000000), wk =   0.0160000
        k(   99) = (   0.1000000  -0.3000000  -0.2000000), wk =   0.0160000
        k(  100) = (   0.1000000  -0.3000000  -0.1000000), wk =   0.0080000
        k(  101) = (   0.1000000  -0.2000000   0.2000000), wk =   0.0080000
        k(  102) = (   0.1000000  -0.2000000   0.3000000), wk =   0.0160000
        k(  103) = (   0.1000000  -0.2000000   0.4000000), wk =   0.0160000
        k(  104) = (   0.1000000  -0.2000000  -0.5000000), wk =   0.0160000
        k(  105) = (   0.1000000  -0.2000000  -0.4000000), wk =   0.0160000
        k(  106) = (   0.1000000  -0.2000000  -0.3000000), wk =   0.0160000
        k(  107) = (   0.1000000  -0.2000000  -0.2000000), wk =   0.0160000
        k(  108) = (   0.1000000  -0.2000000  -0.1000000), wk =   0.0080000
        k(  109) = (   0.1000000  -0.1000000   0.1000000), wk =   0.0040000
        k(  110) = (   0.1000000  -0.1000000   0.2000000), wk =   0.0080000
        k(  111) = (   0.1000000  -0.1000000   0.3000000), wk =   0.0080000
        k(  112) = (   0.1000000  -0.1000000   0.4000000), wk =   0.0080000
        k(  113) = (   0.1000000  -0.1000000  -0.5000000), wk =   0.0080000
        k(  114) = (   0.1000000  -0.1000000  -0.4000000), wk =   0.0080000
        k(  115) = (   0.1000000  -0.1000000  -0.3000000), wk =   0.0080000
        k(  116) = (   0.1000000  -0.1000000  -0.2000000), wk =   0.0080000
        k(  117) = (   0.1000000  -0.1000000  -0.1000000), wk =   0.0040000
        k(  118) = (   0.2000000   0.2000000   0.2000000), wk =   0.0160000
        k(  119) = (   0.2000000   0.2000000   0.3000000), wk =   0.0080000
        k(  120) = (   0.2000000   0.2000000  -0.2000000), wk =   0.0040000
        k(  121) = (   0.2000000   0.3000000   0.2000000), wk =   0.0080000
        k(  122) = (   0.2000000   0.3000000   0.3000000), wk =   0.0080000
        k(  123) = (   0.2000000   0.3000000  -0.3000000), wk =   0.0080000
        k(  124) = (   0.2000000   0.3000000  -0.2000000), wk =   0.0080000
        k(  125) = (   0.2000000   0.4000000  -0.4000000), wk =   0.0080000
        k(  126) = (   0.2000000   0.4000000  -0.3000000), wk =   0.0160000
        k(  127) = (   0.2000000   0.4000000  -0.2000000), wk =   0.0080000
        k(  128) = (   0.2000000  -0.5000000  -0.5000000), wk =   0.0080000
        k(  129) = (   0.2000000  -0.5000000  -0.4000000), wk =   0.0160000
        k(  130) = (   0.2000000  -0.5000000  -0.3000000), wk =   0.0160000
        k(  131) = (   0.2000000  -0.5000000  -0.2000000), wk =   0.0080000
        k(  132) = (   0.2000000  -0.4000000   0.4000000), wk =   0.0080000
        k(  133) = (   0.2000000  -0.4000000  -0.5000000), wk =   0.0160000
        k(  134) = (   0.2000000  -0.4000000  -0.4000000), wk =   0.0160000
        k(  135) = (   0.2000000  -0.4000000  -0.3000000), wk =   0.0160000
        k(  136) = (   0.2000000  -0.4000000  -0.2000000), wk =   0.0080000
        k(  137) = (   0.2000000  -0.3000000   0.3000000), wk =   0.0080000
        k(  138) = (   0.2000000  -0.3000000   0.4000000), wk =   0.0160000
        k(  139) = (   0.2000000  -0.3000000  -0.5000000), wk =   0.0160000
        k(  140) = (   0.2000000  -0.3000000  -0.4000000), wk =   0.0160000
        k(  141) = (   0.2000000  -0.3000000  -0.3000000), wk =   0.0160000
        k(  142) = (   0.2000000  -0.3000000  -0.2000000), wk =   0.0080000
        k(  143) = (   0.2000000  -0.2000000   0.2000000), wk =   0.0040000
        k(  144) = (   0.2000000  -0.2000000   0.3000000), wk =   0.0080000
        k(  145) = (   0.2000000  -0.2000000   0.4000000), wk =   0.0080000
        k(  146) = (   0.2000000  -0.2000000  -0.5000000), wk =   0.0080000
        k(  147) = (   0.2000000  -0.2000000  -0.4000000), wk =   0.0080000
        k(  148) = (   0.2000000  -0.2000000  -0.3000000), wk =   0.0080000
        k(  149) = (   0.2000000  -0.2000000  -0.2000000), wk =   0.0040000
        k(  150) = (   0.3000000   0.3000000  -0.3000000), wk =   0.0040000
        k(  151) = (   0.3000000   0.4000000  -0.4000000), wk =   0.0080000
        k(  152) = (   0.3000000   0.4000000  -0.3000000), wk =   0.0080000
        k(  153) = (   0.3000000  -0.5000000  -0.5000000), wk =   0.0080000
        k(  154) = (   0.3000000  -0.5000000  -0.4000000), wk =   0.0160000
        k(  155) = (   0.3000000  -0.5000000  -0.3000000), wk =   0.0080000
        k(  156) = (   0.3000000  -0.4000000   0.4000000), wk =   0.0080000
        k(  157) = (   0.3000000  -0.4000000  -0.5000000), wk =   0.0160000
        k(  158) = (   0.3000000  -0.4000000  -0.4000000), wk =   0.0160000
        k(  159) = (   0.3000000  -0.4000000  -0.3000000), wk =   0.0080000
        k(  160) = (   0.3000000  -0.3000000   0.3000000), wk =   0.0040000
        k(  161) = (   0.3000000  -0.3000000   0.4000000), wk =   0.0080000
        k(  162) = (   0.3000000  -0.3000000  -0.5000000), wk =   0.0080000
        k(  163) = (   0.3000000  -0.3000000  -0.4000000), wk =   0.0080000
        k(  164) = (   0.3000000  -0.3000000  -0.3000000), wk =   0.0040000
        k(  165) = (   0.4000000   0.4000000  -0.4000000), wk =   0.0040000
        k(  166) = (   0.4000000  -0.5000000  -0.5000000), wk =   0.0080000
        k(  167) = (   0.4000000  -0.5000000  -0.4000000), wk =   0.0080000
        k(  168) = (   0.4000000  -0.4000000   0.4000000), wk =   0.0040000
        k(  169) = (   0.4000000  -0.4000000  -0.5000000), wk =   0.0080000
        k(  170) = (   0.4000000  -0.4000000  -0.4000000), wk =   0.0040000
        k(  171) = (  -0.5000000  -0.5000000  -0.5000000), wk =   0.0020000

     Dense  grid:   292287 G-vectors     FFT dimensions: ( 128, 128, 128)

     Smooth grid:    74033 G-vectors     FFT dimensions: (  81,  81,  81)

     Dynamical RAM for                 wfc:       0.06 MB

     Dynamical RAM for     wfc (w. buffer):      10.58 MB

     Dynamical RAM for           str. fact:       0.28 MB

     Dynamical RAM for           local pot:       0.00 MB

     Dynamical RAM for          nlocal pot:       0.12 MB

     Dynamical RAM for                qrad:       7.61 MB

     Dynamical RAM for          rho,v,vnew:       1.40 MB

     Dynamical RAM for               rhoin:       0.47 MB

     Dynamical RAM for            rho*nmix:       1.49 MB

     Dynamical RAM for           G-vectors:       0.36 MB

     Dynamical RAM for          h,s,v(r/c):       0.08 MB

     Dynamical RAM for          <psi|beta>:       0.01 MB

     Dynamical RAM for                 psi:       0.12 MB

     Dynamical RAM for                hpsi:       0.12 MB

     Dynamical RAM for                spsi:       0.12 MB

     Dynamical RAM for      wfcinit/wfcrot:       0.16 MB

     Dynamical RAM for           addusdens:      17.47 MB

     Dynamical RAM for          addusforce:      17.71 MB

     Dynamical RAM for         addusstress:      18.68 MB

     Estimated static dynamical RAM per process >      24.56 MB

     Estimated max dynamical RAM per process >      43.23 MB

     Estimated total dynamical RAM >       2.03 GB

     Initial potential from superposition of free atoms

     starting charge   32.99867, renormalised to   33.00000
     Starting wfcs are   25 randomized atomic wfcs
     Checking if some PAW data can be deallocated... 
       PAW data deallocated on   36 nodes for type:  1
       PAW data deallocated on   24 nodes for type:  2
       PAW data deallocated on   36 nodes for type:  3

     total cpu time spent up to now is        4.5 secs

     Self-consistent Calculation

     iteration #  1     ecut=   100.00 Ry     beta= 0.70
     Davidson diagonalization with overlap
     ethr =  1.00E-02,  avg # of iterations =  2.2

     total cpu time spent up to now is       12.2 secs

     total energy              =    -534.52943860 Ry
     estimated scf accuracy    <       0.76038080 Ry

     iteration #  2     ecut=   100.00 Ry     beta= 0.70
     Davidson diagonalization with overlap
     ethr =  2.30E-03,  avg # of iterations =  3.7

     total cpu time spent up to now is       21.3 secs

     total energy              =    -533.59112255 Ry
     estimated scf accuracy    <       8.55101242 Ry

     iteration #  3     ecut=   100.00 Ry     beta= 0.70
     Davidson diagonalization with overlap
     ethr =  2.30E-03,  avg # of iterations =  3.5

     total cpu time spent up to now is       29.8 secs

     total energy              =    -534.97512161 Ry
     estimated scf accuracy    <       0.12720893 Ry

     iteration #  4     ecut=   100.00 Ry     beta= 0.70
     Davidson diagonalization with overlap
     ethr =  3.85E-04,  avg # of iterations =  1.3

     total cpu time spent up to now is       36.7 secs

     total energy              =    -534.96744782 Ry
     estimated scf accuracy    <       0.06129767 Ry

     iteration #  5     ecut=   100.00 Ry     beta= 0.70
     Davidson diagonalization with overlap
     ethr =  1.86E-04,  avg # of iterations =  1.5

     total cpu time spent up to now is       43.5 secs

     total energy              =    -534.96437932 Ry
     estimated scf accuracy    <       0.02302335 Ry

     iteration #  6     ecut=   100.00 Ry     beta= 0.70
     Davidson diagonalization with overlap
     ethr =  6.98E-05,  avg # of iterations =  1.9

     total cpu time spent up to now is       50.5 secs

     total energy              =    -534.96672212 Ry
     estimated scf accuracy    <       0.00081934 Ry

     iteration #  7     ecut=   100.00 Ry     beta= 0.70
     Davidson diagonalization with overlap
     ethr =  2.48E-06,  avg # of iterations =  3.3

     total cpu time spent up to now is       59.5 secs

     total energy              =    -534.96696580 Ry
     estimated scf accuracy    <       0.00014454 Ry

     iteration #  8     ecut=   100.00 Ry     beta= 0.70
     Davidson diagonalization with overlap
     ethr =  4.38E-07,  avg # of iterations =  1.7

     total cpu time spent up to now is       66.4 secs

     total energy              =    -534.96696113 Ry
     estimated scf accuracy    <       0.00003751 Ry

     iteration #  9     ecut=   100.00 Ry     beta= 0.70
     Davidson diagonalization with overlap
     ethr =  1.14E-07,  avg # of iterations =  2.0

     total cpu time spent up to now is       73.9 secs

     total energy              =    -534.96696948 Ry
     estimated scf accuracy    <       0.00000096 Ry

     iteration # 10     ecut=   100.00 Ry     beta= 0.70
     Davidson diagonalization with overlap
     ethr =  2.92E-09,  avg # of iterations =  3.7

     total cpu time spent up to now is       82.8 secs

     total energy              =    -534.96696984 Ry
     estimated scf accuracy    <       0.00000002 Ry

     iteration # 11     ecut=   100.00 Ry     beta= 0.70
     Davidson diagonalization with overlap
     ethr =  5.01E-11,  avg # of iterations =  4.5

     total cpu time spent up to now is       93.5 secs

     total energy              =    -534.96696985 Ry
     estimated scf accuracy    <       0.00000002 Ry

     iteration # 12     ecut=   100.00 Ry     beta= 0.70
     Davidson diagonalization with overlap
     ethr =  5.01E-11,  avg # of iterations =  2.4

     total cpu time spent up to now is      101.1 secs

     total energy              =    -534.96696986 Ry
     estimated scf accuracy    <          7.4E-10 Ry

     iteration # 13     ecut=   100.00 Ry     beta= 0.70
     Davidson diagonalization with overlap
     ethr =  2.26E-12,  avg # of iterations =  2.2

     total cpu time spent up to now is      108.6 secs

     End of self-consistent calculation

          k = 0.0000 0.0000 0.0000 (  9217 PWs)   bands (ev):

   -49.8727 -26.1490 -25.7927 -25.7122 -12.4407  -9.4962  -8.8061   0.6414
     2.4918   2.7189   2.8782   2.9562   3.4300   3.9407   4.1890   4.2876
     5.5257   7.1785   7.3224   8.6680   9.3616

     occupation numbers 
     1.0000   1.0000   1.0000   1.0000   1.0000   1.0000   1.0000   1.0000
     1.0000   1.0000   1.0000   1.0000   1.0000   1.0000   1.0000   1.0000
     1.0000  -0.0000  -0.0000  -0.0000  -0.0000

          k = 0.1997 0.1717 0.0000 (  9242 PWs)   bands (ev):

   -49.8710 -26.1654 -25.7884 -25.7324 -12.3143  -9.4256  -8.8109   0.7779
     2.2257   2.3507   2.5846   3.1333   3.2694   3.7438   3.8828   4.0605
     5.8249   7.3894   7.4791   8.7275   9.8412

     occupation numbers 
     1.0000   1.0000   1.0000   1.0000   1.0000   1.0000   1.0000   1.0000
     1.0000   1.0000   1.0000   1.0000   1.0000   1.0000   1.0000   1.0000
     1.0000  -0.0000  -0.0000  -0.0000  -0.0000

          k = 0.3993 0.3435 0.0000 (  9256 PWs)   bands (ev):

   -49.8666 -26.2073 -25.7848 -25.7772 -11.9703  -9.2339  -8.8253   1.1441
     1.6403   1.8229   2.0558   2.3857   2.7100   3.1667   3.8717   4.0000
     6.4479   7.8519   7.9267   8.9904  10.7705

     occupation numbers 
     1.0000   1.0000   1.0000   1.0000   1.0000   1.0000   1.0000   1.0000
     1.0000   1.0000   1.0000   1.0000   1.0000   1.0000   1.0000   1.0000
     1.0336  -0.0000  -0.0000  -0.0000  -0.0000

          k = 0.5990 0.5152 0.0000 (  9247 PWs)   bands (ev):

   -49.8611 -26.2575 -25.8485 -25.7633 -11.5143  -8.9802  -8.8465   0.5262
     1.4152   1.6634   1.7289   1.8196   1.8794   2.6933   3.7390   4.0086
     7.2477   8.4183   8.5695   9.3656  11.3233

     occupation numbers 
     1.0000   1.0000   1.0000   1.0000   1.0000   1.0000   1.0000   1.0000
     1.0000   1.0000   1.0000   1.0000   1.0000   1.0000   1.0000   1.0000
    -0.0000  -0.0000  -0.0000  -0.0000  -0.0000

          k = 0.7986 0.6869 0.0000 (  9269 PWs)   bands (ev):

   -49.8566 -26.2968 -25.8993 -25.7521 -11.1131  -8.8665  -8.7579  -0.3134
     0.8192   1.1723   1.6806   1.7851   2.2218   2.3352   3.4484   3.9490
     8.0777   8.9285   9.1346   9.6565  11.3630

     occupation numbers 
     1.0000   1.0000   1.0000   1.0000   1.0000   1.0000   1.0000   1.0000
     1.0000   1.0000   1.0000   1.0000   1.0000   1.0000   1.0000   1.0000
    -0.0000  -0.0000  -0.0000  -0.0000  -0.0000

          k =-0.9983-0.8586 0.0000 (  9280 PWs)   bands (ev):

   -49.8549 -26.3116 -25.9185 -25.7479 -10.9503  -8.8748  -8.6679  -0.6325
     0.5799   0.9706   1.7531   1.8545   1.9615   2.6013   3.2784   3.8758
     8.4846   9.1483   9.3382   9.7834  11.3924

     occupation numbers 
     1.0000   1.0000   1.0000   1.0000   1.0000   1.0000   1.0000   1.0000
     1.0000   1.0000   1.0000   1.0000   1.0000   1.0000   1.0000   1.0000
    -0.0000  -0.0000  -0.0000  -0.0000  -0.0000

          k = 0.1997 0.0000 0.0542 (  9242 PWs)   bands (ev):

   -49.8714 -26.1474 -25.7891 -25.7330 -12.4295  -9.4381  -8.8146   0.7654
     2.3424   2.6808   2.9196   3.0008   3.2276   3.8731   3.9719   4.1352
     5.8131   7.1204   7.2840   8.7165   9.6238

     occupation numbers 
     1.0000   1.0000   1.0000   1.0000   1.0000   1.0000   1.0000   1.0000
     1.0000   1.0000   1.0000   1.0000   1.0000   1.0000   1.0000   1.0000
     1.0000  -0.0003  -0.0000  -0.0000  -0.0000

          k = 0.3993 0.1717 0.0542 (  9244 PWs)   bands (ev):

   -49.8674 -26.1610 -25.7864 -25.7789 -12.2853  -9.2736  -8.8269   1.0785
     2.0481   2.2933   2.5385   2.6167   3.1361   3.2163   3.8520   4.0525
     6.4156   7.2370   7.3642   8.9764  10.2771

     occupation numbers 
     1.0000   1.0000   1.0000   1.0000   1.0000   1.0000   1.0000   1.0000
     1.0000   1.0000   1.0000   1.0000   1.0000   1.0000   1.0000   1.0000
     1.0257  -0.0000  -0.0000  -0.0000  -0.0000

          k = 0.5990 0.3435 0.0542 (  9248 PWs)   bands (ev):

   -49.8621 -26.2017 -25.8507 -25.7654 -11.9355  -9.0332  -8.8459   1.4007
     1.5908   1.7922   1.9289   2.0007   2.2203   2.8032   3.8402   4.1035
     7.1746   7.7043   7.8165   9.4057  10.9589

     occupation numbers 
     1.0000   1.0000   1.0000   1.0000   1.0000   1.0000   1.0000   1.0000
     1.0000   1.0000   1.0000   1.0000   1.0000   1.0000   1.0000   1.0000
    -0.0001  -0.0000  -0.0000  -0.0000  -0.0000

          k = 0.7986 0.5152 0.0542 (  9265 PWs)   bands (ev):

   -49.8574 -26.2526 -25.9012 -25.7538 -11.4872  -8.8732  -8.7954   0.5475
     1.1224   1.1348   1.7021   1.8738   2.3334   2.3614   3.5919   4.0705
     7.9832   8.3403   8.5071   9.7194  11.2303

     occupation numbers 
     1.0000   1.0000   1.0000   1.0000   1.0000   1.0000   1.0000   1.0000
     1.0000   1.0000   1.0000   1.0000   1.0000   1.0000   1.0000   1.0000
    -0.0000  -0.0000  -0.0000  -0.0000  -0.0000

          k = 0.9983 0.6869 0.0542 (  9274 PWs)   bands (ev):

   -49.8552 -26.2949 -25.9192 -25.7485 -11.1031  -8.8827  -8.6767  -0.3056
     0.6791   0.9482   1.6074   1.9515   2.1070   2.6188   3.3261   3.9195
     8.4771   8.8824   9.1055   9.7735  11.3108

     occupation numbers 
     1.0000   1.0000   1.0000   1.0000   1.0000   1.0000   1.0000   1.0000
     1.0000   1.0000   1.0000   1.0000   1.0000   1.0000   1.0000   1.0000
    -0.0000  -0.0000  -0.0000  -0.0000  -0.0000

          k =-0.7986-0.8586 0.0542 (  9278 PWs)   bands (ev):

   -49.8563 -26.3135 -25.8986 -25.7515 -10.9599  -8.8787  -8.7274  -0.6395
     0.6994   1.1610   1.4947   1.8289   2.2983   2.4366   3.3825   3.8446
     8.1142   9.1842   9.3712   9.5895  11.3232

     occupation numbers 
     1.0000   1.0000   1.0000   1.0000   1.0000   1.0000   1.0000   1.0000
     1.0000   1.0000   1.0000   1.0000   1.0000   1.0000   1.0000   1.0000
    -0.0000  -0.0000  -0.0000  -0.0000  -0.0000

          k =-0.5990-0.6869 0.0542 (  9260 PWs)   bands (ev):

   -49.8602 -26.3019 -25.8468 -25.7617 -11.1388  -8.9253  -8.8588  -0.3333
     1.1473   1.4038   1.7368   1.7606   1.9255   2.7251   3.6346   3.8389
     7.3078   9.0308   9.1603   9.3176  11.4367

     occupation numbers 
     1.0000   1.0000   1.0000   1.0000   1.0000   1.0000   1.0000   1.0000
     1.0000   1.0000   1.0000   1.0000   1.0000   1.0000   1.0000   1.0000
    -0.0000  -0.0000  -0.0000  -0.0000  -0.0000

          k =-0.3993-0.5152 0.0542 (  9248 PWs)   bands (ev):

   -49.8655 -26.2635 -25.7828 -25.7751 -11.5476  -9.1730  -8.8365   0.4982
     1.2755   1.4212   1.9099   2.0534   2.6101   3.1586   3.7658   3.8728
     6.5081   8.5872   8.6220   8.9996  11.1458

     occupation numbers 
     1.0000   1.0000   1.0000   1.0000   1.0000   1.0000   1.0000   1.0000
     1.0000   1.0000   1.0000   1.0000   1.0000   1.0000   1.0000   1.0000
     1.0226  -0.0000  -0.0000  -0.0000  -0.0000

          k =-0.1997-0.3435 0.0542 (  9244 PWs)   bands (ev):

   -49.8702 -26.2119 -25.7867 -25.7309 -11.9984  -9.3787  -8.8189   0.8492
     1.6095   1.6798   2.3602   2.7933   3.3756   3.5436   3.8023   3.9116
     5.8700   8.0184   8.0340   8.7531  10.2967

     occupation numbers 
     1.0000   1.0000   1.0000   1.0000   1.0000   1.0000   1.0000   1.0000
     1.0000   1.0000   1.0000   1.0000   1.0000   1.0000   1.0000   1.0000
     1.0000  -0.0000  -0.0000  -0.0000  -0.0000

          k = 0.0000-0.1717 0.0542 (  9247 PWs)   bands (ev):

   -49.8724 -26.1670 -25.7921 -25.7117 -12.3253  -9.4765  -8.8116   0.6756
     2.1939   2.5065   2.5755   3.2933   3.3167   3.8282   3.9971   4.2074
     5.5453   7.4607   7.5234   8.6872   9.5939

     occupation numbers 
     1.0000   1.0000   1.0000   1.0000   1.0000   1.0000   1.0000   1.0000
     1.0000   1.0000   1.0000   1.0000   1.0000   1.0000   1.0000   1.0000
     1.0000  -0.0000  -0.0000  -0.0000  -0.0000

          k = 0.3993 0.0000 0.1083 (  9241 PWs)   bands (ev):

   -49.8677 -26.1432 -25.7871 -25.7795 -12.4003  -9.2821  -8.8350   1.0642
     2.0621   2.4189   2.6475   2.9786   3.1877   3.5180   3.8266   3.9872
     6.4256   6.9824   7.1607   8.9396  10.0071

     occupation numbers 
     1.0000   1.0000   1.0000   1.0000   1.0000   1.0000   1.0000   1.0000
     1.0000   1.0000   1.0000   1.0000   1.0000   1.0000   1.0000   1.0000
     1.0284  -0.0100  -0.0001  -0.0000  -0.0000

          k = 0.5990 0.1717 0.1083 (  9249 PWs)   bands (ev):

   -49.8629 -26.1557 -25.8524 -25.7671 -12.2496  -9.0720  -8.8490   1.3255
     1.6853   1.8959   2.2334   2.6539   2.9535   3.1335   3.8205   3.9993
     7.0128   7.1835   7.2759   9.3893  10.3852

     occupation numbers 
     1.0000   1.0000   1.0000   1.0000   1.0000   1.0000   1.0000   1.0000
     1.0000   1.0000   1.0000   1.0000   1.0000   1.0000   1.0000   1.0000
    -0.0054  -0.0000  -0.0000  -0.0000  -0.0000

          k = 0.7986 0.3435 0.1083 (  9258 PWs)   bands (ev):

   -49.8585 -26.1971 -25.9034 -25.7558 -11.9073  -8.9046  -8.8169   1.0298
     1.4274   1.6270   1.7869   1.9604   2.4977   2.7788   3.7560   4.0989
     7.4690   7.7098   8.0852   9.7395  10.8135

     occupation numbers 
     1.0000   1.0000   1.0000   1.0000   1.0000   1.0000   1.0000   1.0000
     1.0000   1.0000   1.0000   1.0000   1.0000   1.0000   1.0000   1.0000
    -0.0000  -0.0000  -0.0000  -0.0000  -0.0000

          k = 0.9983 0.5152 0.1083 (  9272 PWs)   bands (ev):

   -49.8561 -26.2508 -25.9211 -25.7501 -11.4768  -8.9032  -8.6994   0.5499
     0.8674   1.0058   1.4827   1.9722   2.4597   2.7008   3.4657   4.0096
     8.1980   8.4788   8.4907   9.7619  11.0652

     occupation numbers 
     1.0000   1.0000   1.0000   1.0000   1.0000   1.0000   1.0000   1.0000
     1.0000   1.0000   1.0000   1.0000   1.0000   1.0000   1.0000   1.0000
    -0.0000  -0.0000  -0.0000  -0.0000  -0.0000

          k = 1.1980 0.6869 0.1083 (  9268 PWs)   bands (ev):

   -49.8566 -26.2968 -25.8993 -25.7522 -11.1129  -8.9039  -8.7171  -0.3135
     0.7842   1.1024   1.3859   1.9050   2.4473   2.5737   3.4197   3.8253
     8.1301   8.9192   9.1369   9.5297  11.2004

     occupation numbers 
     1.0000   1.0000   1.0000   1.0000   1.0000   1.0000   1.0000   1.0000
     1.0000   1.0000   1.0000   1.0000   1.0000   1.0000   1.0000   1.0000
    -0.0000  -0.0000  -0.0000  -0.0000  -0.0000

          k =-0.5990-0.8586 0.1083 (  9271 PWs)   bands (ev):

   -49.8599 -26.3187 -25.8461 -25.7610 -10.9848  -8.8896  -8.8779  -0.6576
     1.0055   1.2856   1.6875   1.7081   2.1120   2.8018   3.6109   3.6935
     7.3498   9.1388   9.3368   9.4437  11.4220

     occupation numbers 
     1.0000   1.0000   1.0000   1.0000   1.0000   1.0000   1.0000   1.0000
     1.0000   1.0000   1.0000   1.0000   1.0000   1.0000   1.0000   1.0000
    -0.0000  -0.0000  -0.0000  -0.0000  -0.0000

          k =-0.3993-0.6869 0.1083 (  9250 PWs)   bands (ev):

   -49.8647 -26.3081 -25.7811 -25.7734 -11.1701  -9.1061  -8.8654  -0.3572
     1.1121   1.4229   1.6204   1.9878   2.5796   3.1216   3.5870   3.8327
     6.5663   8.8749   9.2093   9.2933  11.3510

     occupation numbers 
     1.0000   1.0000   1.0000   1.0000   1.0000   1.0000   1.0000   1.0000
     1.0000   1.0000   1.0000   1.0000   1.0000   1.0000   1.0000   1.0000
     0.9290  -0.0000  -0.0000  -0.0000  -0.0000

          k =-0.1997-0.5152 0.1083 (  9232 PWs)   bands (ev):

   -49.8691 -26.2683 -25.7846 -25.7290 -11.5743  -9.3091  -8.8428   0.4741
     0.9576   1.2748   2.3019   2.4401   3.1108   3.5159   3.6411   3.9277
     5.9252   8.6761   8.7691   8.8255  10.7173

     occupation numbers 
     1.0000   1.0000   1.0000   1.0000   1.0000   1.0000   1.0000   1.0000
     1.0000   1.0000   1.0000   1.0000   1.0000   1.0000   1.0000   1.0000
     1.0000  -0.0000  -0.0000  -0.0000  -0.0000

          k = 0.0000-0.3435 0.1083 (  9231 PWs)   bands (ev):

   -49.8716 -26.2136 -25.7904 -25.7102 -12.0090  -9.4221  -8.8294   0.7634
     1.5914   1.6503   2.5459   3.0250   3.2852   3.5849   3.9162   4.0831
     5.5861   8.0529   8.1204   8.7378  10.0709

     occupation numbers 
     1.0000   1.0000   1.0000   1.0000   1.0000   1.0000   1.0000   1.0000
     1.0000   1.0000   1.0000   1.0000   1.0000   1.0000   1.0000   1.0000
     1.0000  -0.0000  -0.0000  -0.0000  -0.0000

          k = 0.1997-0.1717 0.1083 (  9242 PWs)   bands (ev):

   -49.8710 -26.1654 -25.7884 -25.7324 -12.3141  -9.4125  -8.8271   0.8193
     2.2357   2.3517   2.5869   3.1138   3.2436   3.6640   3.9128   4.0596
     5.8397   7.3857   7.4927   8.7253   9.8930

     occupation numbers 
     1.0000   1.0000   1.0000   1.0000   1.0000   1.0000   1.0000   1.0000
     1.0000   1.0000   1.0000   1.0000   1.0000   1.0000   1.0000   1.0000
     1.0000  -0.0000  -0.0000  -0.0000  -0.0000

          k = 0.5990 0.0000 0.1625 (  9249 PWs)   bands (ev):

   -49.8633 -26.1379 -25.8531 -25.7677 -12.3643  -9.0872  -8.8492   1.2694
     1.6055   1.9594   2.3371   3.0560   3.3854   3.4658   3.7133   3.7908
     6.8424   6.9420   7.2261   9.3268  10.0472

     occupation numbers 
     1.0000   1.0000   1.0000   1.0000   1.0000   1.0000   1.0000   1.0000
     1.0000   1.0000   1.0000   1.0000   1.0000   1.0000   1.0000   1.0000
    -0.0310  -0.0194  -0.0000  -0.0000  -0.0000

          k = 0.7986 0.1717 0.1625 (  9246 PWs)   bands (ev):

   -49.8593 -26.1513 -25.9053 -25.7575 -12.2208  -8.9442  -8.8188   0.9611
     1.4237   1.8721   2.0026   2.7871   2.9262   3.3120   3.8001   3.9432
     6.9420   7.0031   8.0470   9.6924  10.2340

     occupation numbers 
     1.0000   1.0000   1.0000   1.0000   1.0000   1.0000   1.0000   1.0000
     1.0000   1.0000   1.0000   1.0000   1.0000   1.0000   1.0000   1.0000
    -0.0194  -0.0067  -0.0000  -0.0000  -0.0000

          k = 0.9983 0.3435 0.1625 (  9266 PWs)   bands (ev):

   -49.8571 -26.1953 -25.9234 -25.7522 -11.8965  -8.9283  -8.7270   0.7627
     1.3459   1.4698   1.7604   1.9703   2.7346   3.0225   3.6665   4.0341
     7.4544   7.6643   8.4649   9.7397  10.6493

     occupation numbers 
     1.0000   1.0000   1.0000   1.0000   1.0000   1.0000   1.0000   1.0000
     1.0000   1.0000   1.0000   1.0000   1.0000   1.0000   1.0000   1.0000
    -0.0000  -0.0000  -0.0000  -0.0000  -0.0000

          k = 1.1980 0.5152 0.1625 (  9273 PWs)   bands (ev):

   -49.8574 -26.2526 -25.9012 -25.7538 -11.4870  -8.9352  -8.7281   0.5455
     0.9989   1.1063   1.3254   2.0320   2.6050   2.7247   3.5577   3.9048
     8.1164   8.2726   8.5129   9.5021  10.9776

     occupation numbers 
     1.0000   1.0000   1.0000   1.0000   1.0000   1.0000   1.0000   1.0000
     1.0000   1.0000   1.0000   1.0000   1.0000   1.0000   1.0000   1.0000
    -0.0000  -0.0000  -0.0000  -0.0000  -0.0000

          k = 1.3976 0.6869 0.1625 (  9251 PWs)   bands (ev):

   -49.8602 -26.3019 -25.8468 -25.7617 -11.1384  -8.9345  -8.8481  -0.3338
     1.0727   1.2931   1.6175   1.7105   2.2977   2.8702   3.6278   3.7107
     7.3634   8.9651   9.1954   9.2244  11.3280

     occupation numbers 
     1.0000   1.0000   1.0000   1.0000   1.0000   1.0000   1.0000   1.0000
     1.0000   1.0000   1.0000   1.0000   1.0000   1.0000   1.0000   1.0000
    -0.0000  -0.0000  -0.0000  -0.0000  -0.0000

          k =-0.3993-0.8586 0.1625 (  9260 PWs)   bands (ev):

   -49.8644 -26.3250 -25.7805 -25.7728 -11.0150  -9.0547  -8.9040  -0.6799
     1.0214   1.3707   1.6962   1.8854   2.5927   3.0566   3.5010   3.8511
     6.6024   8.8552   9.4537   9.5077  11.4137

     occupation numbers 
     1.0000   1.0000   1.0000   1.0000   1.0000   1.0000   1.0000   1.0000
     1.0000   1.0000   1.0000   1.0000   1.0000   1.0000   1.0000   1.0000
     0.8099  -0.0000  -0.0000  -0.0000  -0.0000

          k =-0.1997-0.6869 0.1625 (  9227 PWs)   bands (ev):

   -49.8683 -26.3131 -25.7829 -25.7274 -11.1950  -9.2367  -8.8817  -0.3763
     0.8563   1.2554   2.0321   2.3342   2.8927   3.4650   3.5379   3.9540
     5.9719   8.7955   9.3068   9.3674  11.0040

     occupation numbers 
     1.0000   1.0000   1.0000   1.0000   1.0000   1.0000   1.0000   1.0000
     1.0000   1.0000   1.0000   1.0000   1.0000   1.0000   1.0000   1.0000
     1.0000  -0.0000  -0.0000  -0.0000  -0.0000

          k =-0.0000-0.5152 0.1625 (  9248 PWs)   bands (ev):

   -49.8705 -26.2701 -25.7882 -25.7083 -11.5843  -9.3468  -8.8610   0.4624
     0.8631   1.2680   2.5962   2.7015   2.7639   3.5326   3.9601   3.9948
     5.6328   8.7286   8.7978   8.8633  10.5278

     occupation numbers 
     1.0000   1.0000   1.0000   1.0000   1.0000   1.0000   1.0000   1.0000
     1.0000   1.0000   1.0000   1.0000   1.0000   1.0000   1.0000   1.0000
     1.0000  -0.0000  -0.0000  -0.0000  -0.0000

          k = 0.1997-0.3435 0.1625 (  9246 PWs)   bands (ev):

   -49.8702 -26.2119 -25.7867 -25.7309 -11.9981  -9.3540  -8.8488   0.9155
     1.6029   1.7341   2.3497   2.7894   3.1598   3.5576   3.7240   4.0410
     5.8888   8.0268   8.0344   8.7545  10.3897

     occupation numbers 
     1.0000   1.0000   1.0000   1.0000   1.0000   1.0000   1.0000   1.0000
     1.0000   1.0000   1.0000   1.0000   1.0000   1.0000   1.0000   1.0000
     1.0000  -0.0000  -0.0000  -0.0000  -0.0000

          k = 0.3993-0.1717 0.1625 (  9257 PWs)   bands (ev):

   -49.8674 -26.1610 -25.7864 -25.7789 -12.2851  -9.2564  -8.8463   1.1074
     2.0630   2.2417   2.4985   2.6207   3.1099   3.2885   3.8514   4.0517
     6.4515   7.2165   7.3832   8.9028  10.2838

     occupation numbers 
     1.0000   1.0000   1.0000   1.0000   1.0000   1.0000   1.0000   1.0000
     1.0000   1.0000   1.0000   1.0000   1.0000   1.0000   1.0000   1.0000
     1.0341  -0.0000  -0.0000  -0.0000  -0.0000

          k = 0.7986 0.0000 0.2166 (  9262 PWs)   bands (ev):

   -49.8596 -26.1337 -25.9060 -25.7581 -12.3353  -8.9710  -8.8065   0.9130
     1.3391   2.0090   2.0545   3.1686   3.4369   3.5104   3.7071   3.8131
     6.6898   6.7514   8.0453   9.5837   9.9399

     occupation numbers 
     1.0000   1.0000   1.0000   1.0000   1.0000   1.0000   1.0000   1.0000
     1.0000   1.0000   1.0000   1.0000   1.0000   1.0000   1.0000   1.0000
     0.3861   0.1228  -0.0000  -0.0000  -0.0000

          k = 0.9983 0.1717 0.2166 (  9263 PWs)   bands (ev):

   -49.8579 -26.1497 -25.9253 -25.7538 -12.2097  -8.9484  -8.7491   0.7073
     1.3402   1.8384   1.9511   2.8559   2.9827   3.4792   3.8518   3.8571
     6.8854   6.9309   8.4475   9.6524  10.1840

     occupation numbers 
     1.0000   1.0000   1.0000   1.0000   1.0000   1.0000   1.0000   1.0000
     1.0000   1.0000   1.0000   1.0000   1.0000   1.0000   1.0000   1.0000
    -0.0339  -0.0225  -0.0000  -0.0000  -0.0000

          k = 1.1980 0.3435 0.2166 (  9256 PWs)   bands (ev):

   -49.8585 -26.1971 -25.9034 -25.7558 -11.9071  -8.9628  -8.7536   0.9292
     1.2796   1.4782   1.7716   2.1210   2.7489   2.9908   3.7353   3.9967
     7.4938   7.7095   8.1080   9.5162  10.6112

     occupation numbers 
     1.0000   1.0000   1.0000   1.0000   1.0000   1.0000   1.0000   1.0000
     1.0000   1.0000   1.0000   1.0000   1.0000   1.0000   1.0000   1.0000
    -0.0000  -0.0000  -0.0000  -0.0000  -0.0000

          k = 1.3976 0.5152 0.2166 (  9261 PWs)   bands (ev):

   -49.8611 -26.2575 -25.8485 -25.7634 -11.5139  -8.9885  -8.8356   0.5222
     1.3093   1.3427   1.5737   1.8557   2.4266   2.9262   3.6732   3.8983
     7.3418   8.3855   8.5865   9.1601  11.1309

     occupation numbers 
     1.0000   1.0000   1.0000   1.0000   1.0000   1.0000   1.0000   1.0000
     1.0000   1.0000   1.0000   1.0000   1.0000   1.0000   1.0000   1.0000
    -0.0000  -0.0000  -0.0000  -0.0000  -0.0000

          k = 1.5973 0.6869 0.2166 (  9264 PWs)   bands (ev):

   -49.8647 -26.3081 -25.7811 -25.7734 -11.1697  -9.0634  -8.9108  -0.3579
     1.0955   1.4540   1.6705   1.9555   2.5827   3.0795   3.4908   3.9304
     6.6040   8.8240   9.2360   9.2673  11.3520

     occupation numbers 
     1.0000   1.0000   1.0000   1.0000   1.0000   1.0000   1.0000   1.0000
     1.0000   1.0000   1.0000   1.0000   1.0000   1.0000   1.0000   1.0000
     0.8036  -0.0000  -0.0000  -0.0000  -0.0000

          k =-0.1997-0.8586 0.2166 (  9235 PWs)   bands (ev):

   -49.8680 -26.3301 -25.7823 -25.7269 -11.0391  -9.1914  -8.9166  -0.6978
     0.7763   1.4000   1.8545   2.2589   2.8215   3.4288   3.5069   3.9718
     5.9943   8.8123   9.5339   9.5931  11.1237

     occupation numbers 
     1.0000   1.0000   1.0000   1.0000   1.0000   1.0000   1.0000   1.0000
     1.0000   1.0000   1.0000   1.0000   1.0000   1.0000   1.0000   1.0000
     1.0000  -0.0000  -0.0000  -0.0000  -0.0000

          k = 0.0000-0.6869 0.2166 (  9236 PWs)   bands (ev):

   -49.8697 -26.3151 -25.7865 -25.7068 -11.2044  -9.2747  -8.9004  -0.3837
     0.7536   1.2602   2.3263   2.4672   2.6418   3.4634   3.9409   3.9734
     5.6709   8.8511   9.3047   9.4387  10.8406

     occupation numbers 
     1.0000   1.0000   1.0000   1.0000   1.0000   1.0000   1.0000   1.0000
     1.0000   1.0000   1.0000   1.0000   1.0000   1.0000   1.0000   1.0000
     1.0000  -0.0000  -0.0000  -0.0000  -0.0000

          k = 0.1997-0.5152 0.2166 (  9224 PWs)   bands (ev):

   -49.8691 -26.2683 -25.7846 -25.7290 -11.5739  -9.2771  -8.8802   0.4703
     0.9946   1.4058   2.1841   2.4759   2.9427   3.5241   3.5688   4.0345
     5.9442   8.7119   8.7538   8.8135  10.8142

     occupation numbers 
     1.0000   1.0000   1.0000   1.0000   1.0000   1.0000   1.0000   1.0000
     1.0000   1.0000   1.0000   1.0000   1.0000   1.0000   1.0000   1.0000
     1.0000  -0.0000  -0.0000  -0.0000  -0.0000

          k = 0.3993-0.3435 0.2166 (  9240 PWs)   bands (ev):

   -49.8666 -26.2073 -25.7848 -25.7772 -11.9699  -9.2011  -8.8618   1.1779
     1.6138   1.9051   2.0246   2.3367   2.6370   3.2665   3.7223   4.1076
     6.5076   7.8346   7.9511   8.8808  10.7837

     occupation numbers 
     1.0000   1.0000   1.0000   1.0000   1.0000   1.0000   1.0000   1.0000
     1.0000   1.0000   1.0000   1.0000   1.0000   1.0000   1.0000   1.0000
     1.0229  -0.0000  -0.0000  -0.0000  -0.0000

          k = 0.5990-0.1717 0.2166 (  9255 PWs)   bands (ev):

   -49.8629 -26.1557 -25.8524 -25.7671 -12.2494  -9.0752  -8.8442   1.2568
     1.5453   1.9267   2.3079   2.6843   3.0210   3.2124   3.8034   4.0159
     7.0148   7.1798   7.2914   9.2505  10.2967

     occupation numbers 
     1.0000   1.0000   1.0000   1.0000   1.0000   1.0000   1.0000   1.0000
     1.0000   1.0000   1.0000   1.0000   1.0000   1.0000   1.0000   1.0000
    -0.0052  -0.0000  -0.0000  -0.0000  -0.0000

          k =-0.9983 0.0000-0.2708 (  9252 PWs)   bands (ev):

   -49.8582 -26.1320 -25.9260 -25.7544 -12.3242  -8.9560  -8.7574   0.6854
     1.3280   1.9176   2.0335   3.3102   3.3383   3.4763   3.7580   3.9316
     6.5684   6.7211   8.4387   9.5262  10.0174

     occupation numbers 
     1.0000   1.0000   1.0000   1.0000   1.0000   1.0000   1.0000   1.0000
     1.0000   1.0000   1.0000   1.0000   1.0000   1.0000   1.0000   1.0000
     0.9233   0.2383  -0.0000  -0.0000  -0.0000

          k =-0.7986 0.1717-0.2708 (  9262 PWs)   bands (ev):

   -49.8593 -26.1513 -25.9053 -25.7575 -12.2207  -8.9770  -8.7829   0.9034
     1.2904   1.8727   2.1106   2.7966   3.0032   3.3958   3.7762   3.9611
     6.9259   6.9962   8.0725   9.5493  10.1477

     occupation numbers 
     1.0000   1.0000   1.0000   1.0000   1.0000   1.0000   1.0000   1.0000
     1.0000   1.0000   1.0000   1.0000   1.0000   1.0000   1.0000   1.0000
    -0.0239  -0.0077  -0.0000  -0.0000  -0.0000

          k =-0.5990 0.3435-0.2708 (  9254 PWs)   bands (ev):

   -49.8621 -26.2017 -25.8507 -25.7654 -11.9352  -9.0394  -8.8372   1.2755
     1.4557   1.6382   1.8468   2.1256   2.5750   3.0013   3.7801   4.0605
     7.2775   7.6519   7.8265   9.1874  10.7793

     occupation numbers 
     1.0000   1.0000   1.0000   1.0000   1.0000   1.0000   1.0000   1.0000
     1.0000   1.0000   1.0000   1.0000   1.0000   1.0000   1.0000   1.0000
    -0.0000  -0.0000  -0.0000  -0.0000  -0.0000

          k =-0.3993 0.5152-0.2708 (  9240 PWs)   bands (ev):

   -49.8655 -26.2635 -25.7828 -25.7751 -11.5470  -9.1287  -8.8848   0.4931
     1.2387   1.6189   1.7364   2.1374   2.5346   3.2057   3.5522   4.0399
     6.5685   8.5590   8.6667   8.8941  11.1546

     occupation numbers 
     1.0000   1.0000   1.0000   1.0000   1.0000   1.0000   1.0000   1.0000
     1.0000   1.0000   1.0000   1.0000   1.0000   1.0000   1.0000   1.0000
     0.9232  -0.0000  -0.0000  -0.0000  -0.0000

          k =-0.1997 0.6869-0.2708 (  9228 PWs)   bands (ev):

   -49.8683 -26.3131 -25.7829 -25.7274 -11.1948  -9.2090  -8.9128  -0.3768
     0.8525   1.4223   1.9057   2.3189   2.8350   3.4404   3.5273   4.0011
     5.9843   8.8077   9.2973   9.3697  11.0639

     occupation numbers 
     1.0000   1.0000   1.0000   1.0000   1.0000   1.0000   1.0000   1.0000
     1.0000   1.0000   1.0000   1.0000   1.0000   1.0000   1.0000   1.0000
     1.0000  -0.0000  -0.0000  -0.0000  -0.0000

          k =-1.9966-0.8586-0.2708 (  9224 PWs)   bands (ev):

   -49.8693 -26.3320 -25.7859 -25.7062 -11.0482  -9.2422  -8.9216  -0.7047
     0.6796   1.3360   2.1354   2.3847   2.6588   3.4367   3.9220   3.9705
     5.6855   8.8707   9.5346   9.6589  10.9514

     occupation numbers 
     1.0000   1.0000   1.0000   1.0000   1.0000   1.0000   1.0000   1.0000
     1.0000   1.0000   1.0000   1.0000   1.0000   1.0000   1.0000   1.0000
     1.0000  -0.0000  -0.0000  -0.0000  -0.0000

          k = 0.3993 0.3435 0.1083 (  9252 PWs)   bands (ev):

   -49.8666 -26.2073 -25.7848 -25.7772 -11.9702  -9.2254  -8.8348   1.1513
     1.6334   1.8474   2.0475   2.3899   2.6563   3.2100   3.8179   4.0424
     6.4639   7.8450   7.9360   8.9578  10.7773

     occupation numbers 
     1.0000   1.0000   1.0000   1.0000   1.0000   1.0000   1.0000   1.0000
     1.0000   1.0000   1.0000   1.0000   1.0000   1.0000   1.0000   1.0000
     1.0354  -0.0000  -0.0000  -0.0000  -0.0000

          k = 0.5990 0.5152 0.1083 (  9254 PWs)   bands (ev):

   -49.8611 -26.2575 -25.8485 -25.7633 -11.5142  -8.9815  -8.8448   0.5256
     1.3964   1.6033   1.6911   1.7675   2.0401   2.7345   3.7299   3.9931
     7.2610   8.4081   8.5731   9.3404  11.3006

     occupation numbers 
     1.0000   1.0000   1.0000   1.0000   1.0000   1.0000   1.0000   1.0000
     1.0000   1.0000   1.0000   1.0000   1.0000   1.0000   1.0000   1.0000
    -0.0000  -0.0000  -0.0000  -0.0000  -0.0000

          k = 0.7986 0.6869 0.1083 (  9260 PWs)   bands (ev):

   -49.8566 -26.2968 -25.8993 -25.7521 -11.1131  -8.8717  -8.7524  -0.3134
     0.8189   1.1518   1.6946   1.7436   2.2486   2.3782   3.4401   3.9391
     8.0840   8.9225   9.1350   9.6449  11.3546

     occupation numbers 
     1.0000   1.0000   1.0000   1.0000   1.0000   1.0000   1.0000   1.0000
     1.0000   1.0000   1.0000   1.0000   1.0000   1.0000   1.0000   1.0000
    -0.0000  -0.0000  -0.0000  -0.0000  -0.0000

          k = 0.9983 0.8586 0.1083 (  9270 PWs)   bands (ev):

   -49.8549 -26.3116 -25.9185 -25.7479 -10.9503  -8.8748  -8.6679  -0.6325
     0.5877   0.9524   1.7699   1.8762   1.9378   2.6086   3.2474   3.8961
     8.4859   9.1493   9.3438   9.7645  11.3796

     occupation numbers 
     1.0000   1.0000   1.0000   1.0000   1.0000   1.0000   1.0000   1.0000
     1.0000   1.0000   1.0000   1.0000   1.0000   1.0000   1.0000   1.0000
    -0.0000  -0.0000  -0.0000  -0.0000  -0.0000

          k = 0.0000 0.0000 0.1083 (  9257 PWs)   bands (ev):

   -49.8728 -26.1490 -25.7927 -25.7122 -12.4405  -9.4815  -8.8248   0.6918
     2.5074   2.7023   2.8451   3.0078   3.4226   3.8589   4.1579   4.2632
     5.5377   7.1786   7.3422   8.7017   9.4214

     occupation numbers 
     1.0000   1.0000   1.0000   1.0000   1.0000   1.0000   1.0000   1.0000
     1.0000   1.0000   1.0000   1.0000   1.0000   1.0000   1.0000   1.0000
     1.0000  -0.0000  -0.0000  -0.0000  -0.0000

          k = 0.5990 0.3435 0.1625 (  9251 PWs)   bands (ev):

   -49.8621 -26.2017 -25.8507 -25.7654 -11.9354  -9.0356  -8.8425   1.3499
     1.5401   1.7100   1.8839   2.0529   2.3820   2.8852   3.8182   4.0881
     7.2119   7.6814   7.8217   9.3242  10.8920

     occupation numbers 
     1.0000   1.0000   1.0000   1.0000   1.0000   1.0000   1.0000   1.0000
     1.0000   1.0000   1.0000   1.0000   1.0000   1.0000   1.0000   1.0000
    -0.0000  -0.0000  -0.0000  -0.0000  -0.0000

          k = 0.7986 0.5152 0.1625 (  9262 PWs)   bands (ev):

   -49.8574 -26.2526 -25.9012 -25.7538 -11.4872  -8.8944  -8.7730   0.5470
     1.0943   1.1154   1.6051   1.8924   2.4092   2.4725   3.5790   4.0376
     8.0141   8.3214   8.5081   9.6675  11.1754

     occupation numbers 
     1.0000   1.0000   1.0000   1.0000   1.0000   1.0000   1.0000   1.0000
     1.0000   1.0000   1.0000   1.0000   1.0000   1.0000   1.0000   1.0000
    -0.0000  -0.0000  -0.0000  -0.0000  -0.0000

          k = 0.9983 0.6869 0.1625 (  9263 PWs)   bands (ev):

   -49.8552 -26.2949 -25.9192 -25.7485 -11.1031  -8.8827  -8.6767  -0.3056
     0.6949   0.9167   1.6596   1.8970   2.1210   2.6427   3.2810   3.9462
     8.4819   8.8810   9.1114   9.7473  11.2994

     occupation numbers 
     1.0000   1.0000   1.0000   1.0000   1.0000   1.0000   1.0000   1.0000
     1.0000   1.0000   1.0000   1.0000   1.0000   1.0000   1.0000   1.0000
    -0.0000  -0.0000  -0.0000  -0.0000  -0.0000

          k = 1.1980 0.8586 0.1625 (  9269 PWs)   bands (ev):

   -49.8563 -26.3135 -25.8986 -25.7515 -10.9599  -8.8787  -8.7275  -0.6395
     0.7051   1.1347   1.5583   1.7666   2.3073   2.4553   3.3688   3.8500
     8.1153   9.1692   9.3753   9.5952  11.3455

     occupation numbers 
     1.0000   1.0000   1.0000   1.0000   1.0000   1.0000   1.0000   1.0000
     1.0000   1.0000   1.0000   1.0000   1.0000   1.0000   1.0000   1.0000
    -0.0000  -0.0000  -0.0000  -0.0000  -0.0000

          k =-0.5990-0.6869 0.1625 (  9261 PWs)   bands (ev):

   -49.8602 -26.3019 -25.8468 -25.7617 -11.1387  -8.9277  -8.8560  -0.3334
     1.1195   1.4290   1.6271   1.7197   2.0800   2.7637   3.6307   3.8090
     7.3206   8.9854   9.1816   9.3151  11.4304

     occupation numbers 
     1.0000   1.0000   1.0000   1.0000   1.0000   1.0000   1.0000   1.0000
     1.0000   1.0000   1.0000   1.0000   1.0000   1.0000   1.0000   1.0000
    -0.0000  -0.0000  -0.0000  -0.0000  -0.0000

          k =-0.3993-0.5152 0.1625 (  9244 PWs)   bands (ev):

   -49.8655 -26.2635 -25.7828 -25.7751 -11.5474  -9.1578  -8.8533   0.4962
     1.2419   1.5124   1.8275   2.1276   2.5418   3.1953   3.6559   3.9641
     6.5306   8.5689   8.6493   8.9549  11.1522

     occupation numbers 
     1.0000   1.0000   1.0000   1.0000   1.0000   1.0000   1.0000   1.0000
     1.0000   1.0000   1.0000   1.0000   1.0000   1.0000   1.0000   1.0000
     0.9994  -0.0000  -0.0000  -0.0000  -0.0000

          k = 0.0000-0.1717 0.1625 (  9254 PWs)   bands (ev):

   -49.8724 -26.1670 -25.7921 -25.7117 -12.3249  -9.4479  -8.8476   0.7713
     2.2135   2.5358   2.5721   3.2177   3.3071   3.6590   4.0435   4.1590
     5.5587   7.4605   7.5449   8.7483   9.7141

     occupation numbers 
     1.0000   1.0000   1.0000   1.0000   1.0000   1.0000   1.0000   1.0000
     1.0000   1.0000   1.0000   1.0000   1.0000   1.0000   1.0000   1.0000
     1.0000  -0.0000  -0.0000  -0.0000  -0.0000

          k = 0.1997 0.0000 0.1625 (  9243 PWs)   bands (ev):

   -49.8714 -26.1474 -25.7891 -25.7330 -12.4292  -9.4118  -8.8470   0.8508
     2.3564   2.6389   2.8623   3.0936   3.1940   3.7447   3.9998   4.0829
     5.8468   7.1099   7.3194   8.7149   9.7116

     occupation numbers 
     1.0000   1.0000   1.0000   1.0000   1.0000   1.0000   1.0000   1.0000
     1.0000   1.0000   1.0000   1.0000   1.0000   1.0000   1.0000   1.0000
     1.0000  -0.0004  -0.0000  -0.0000  -0.0000

          k = 0.7986 0.3435 0.2166 (  9256 PWs)   bands (ev):

   -49.8585 -26.1971 -25.9034 -25.7558 -11.9072  -8.9368  -8.7825   0.9759
     1.3716   1.5560   1.7745   2.0178   2.6301   2.8746   3.7430   4.0589
     7.4821   7.7092   8.0913   9.6359  10.7285

     occupation numbers 
     1.0000   1.0000   1.0000   1.0000   1.0000   1.0000   1.0000   1.0000
     1.0000   1.0000   1.0000   1.0000   1.0000   1.0000   1.0000   1.0000
    -0.0000  -0.0000  -0.0000  -0.0000  -0.0000

          k = 0.9983 0.5152 0.2166 (  9272 PWs)   bands (ev):

   -49.8561 -26.2508 -25.9211 -25.7501 -11.4768  -8.9032  -8.6994   0.5493
     0.8627   0.9968   1.5525   1.8912   2.4466   2.7601   3.4303   4.0248
     8.2131   8.4766   8.4831   9.7380  11.0749

     occupation numbers 
     1.0000   1.0000   1.0000   1.0000   1.0000   1.0000   1.0000   1.0000
     1.0000   1.0000   1.0000   1.0000   1.0000   1.0000   1.0000   1.0000
    -0.0000  -0.0000  -0.0000  -0.0000  -0.0000

          k = 1.1980 0.6869 0.2166 (  9268 PWs)   bands (ev):

   -49.8566 -26.2968 -25.8993 -25.7521 -11.1130  -8.8954  -8.7266  -0.3135
     0.8020   1.0920   1.4885   1.8434   2.3912   2.5366   3.4125   3.8684
     8.1176   8.9095   9.1378   9.5684  11.2639

     occupation numbers 
     1.0000   1.0000   1.0000   1.0000   1.0000   1.0000   1.0000   1.0000
     1.0000   1.0000   1.0000   1.0000   1.0000   1.0000   1.0000   1.0000
    -0.0000  -0.0000  -0.0000  -0.0000  -0.0000

          k = 1.3976 0.8586 0.2166 (  9271 PWs)   bands (ev):

   -49.8599 -26.3187 -25.8461 -25.7610 -10.9848  -8.8895  -8.8780  -0.6576
     0.9963   1.3302   1.6389   1.6848   2.1549   2.7994   3.6302   3.6696
     7.3496   9.0993   9.3868   9.4371  11.4516

     occupation numbers 
     1.0000   1.0000   1.0000   1.0000   1.0000   1.0000   1.0000   1.0000
     1.0000   1.0000   1.0000   1.0000   1.0000   1.0000   1.0000   1.0000
    -0.0000  -0.0000  -0.0000  -0.0000  -0.0000

          k =-0.3993-0.6869 0.2166 (  9263 PWs)   bands (ev):

   -49.8647 -26.3081 -25.7811 -25.7734 -11.1699  -9.0894  -8.8834  -0.3575
     1.0915   1.4813   1.6071   1.9866   2.5660   3.1002   3.5491   3.8804
     6.5831   8.8511   9.2299   9.2727  11.3521

     occupation numbers 
     1.0000   1.0000   1.0000   1.0000   1.0000   1.0000   1.0000   1.0000
     1.0000   1.0000   1.0000   1.0000   1.0000   1.0000   1.0000   1.0000
     0.8796  -0.0000  -0.0000  -0.0000  -0.0000

          k =-0.0000-0.3435 0.2166 (  9243 PWs)   bands (ev):

   -49.8716 -26.2136 -25.7904 -25.7102 -12.0085  -9.3821  -8.8783   0.8786
     1.5915   1.7240   2.5824   2.9724   3.0205   3.4770   4.0183   4.0801
     5.5956   8.0525   8.1196   8.8096  10.2375

     occupation numbers 
     1.0000   1.0000   1.0000   1.0000   1.0000   1.0000   1.0000   1.0000
     1.0000   1.0000   1.0000   1.0000   1.0000   1.0000   1.0000   1.0000
     1.0000  -0.0000  -0.0000  -0.0000  -0.0000

          k = 0.1997-0.1717 0.2166 (  9247 PWs)   bands (ev):

   -49.8711 -26.1654 -25.7885 -25.7324 -12.3136  -9.3742  -8.8735   0.9398
     2.2435   2.3604   2.5896   3.0361   3.1913   3.5694   3.8896   4.0613
     5.8757   7.3793   7.5236   8.7368  10.0100

     occupation numbers 
     1.0000   1.0000   1.0000   1.0000   1.0000   1.0000   1.0000   1.0000
     1.0000   1.0000   1.0000   1.0000   1.0000   1.0000   1.0000   1.0000
     1.0000  -0.0000  -0.0000  -0.0000  -0.0000

          k = 0.3993 0.0000 0.2166 (  9255 PWs)   bands (ev):

   -49.8678 -26.1432 -25.7871 -25.7796 -12.4000  -9.2570  -8.8634   1.1127
     2.0788   2.2638   2.6825   2.9245   3.2866   3.5386   3.8685   3.9405
     6.4763   6.9503   7.1867   8.8390  10.0039

     occupation numbers 
     1.0000   1.0000   1.0000   1.0000   1.0000   1.0000   1.0000   1.0000
     1.0000   1.0000   1.0000   1.0000   1.0000   1.0000   1.0000   1.0000
     1.0350  -0.0172  -0.0000  -0.0000  -0.0000

          k = 0.9983 0.3435 0.2708 (  9264 PWs)   bands (ev):

   -49.8571 -26.1953 -25.9234 -25.7522 -11.8965  -8.9283  -8.7270   0.7520
     1.3486   1.5284   1.7535   1.9090   2.7293   3.0578   3.6516   4.0367
     7.4591   7.6650   8.4614   9.7197  10.6710

     occupation numbers 
     1.0000   1.0000   1.0000   1.0000   1.0000   1.0000   1.0000   1.0000
     1.0000   1.0000   1.0000   1.0000   1.0000   1.0000   1.0000   1.0000
    -0.0000  -0.0000  -0.0000  -0.0000  -0.0000

          k = 1.1980 0.5152 0.2708 (  9266 PWs)   bands (ev):

   -49.8574 -26.2526 -25.9012 -25.7538 -11.4871  -8.9175  -8.7478   0.5461
     1.0410   1.1075   1.4571   1.9616   2.5017   2.6212   3.5621   3.9779
     8.0660   8.2932   8.5104   9.5843  11.0813

     occupation numbers 
     1.0000   1.0000   1.0000   1.0000   1.0000   1.0000   1.0000   1.0000
     1.0000   1.0000   1.0000   1.0000   1.0000   1.0000   1.0000   1.0000
    -0.0000  -0.0000  -0.0000  -0.0000  -0.0000

          k = 1.3976 0.6869 0.2708 (  9267 PWs)   bands (ev):

   -49.8602 -26.3019 -25.8468 -25.7617 -11.1386  -8.9312  -8.8519  -0.3336
     1.0903   1.3773   1.6376   1.6647   2.2124   2.8192   3.6274   3.7601
     7.3417   8.9543   9.1954   9.2857  11.3939

     occupation numbers 
     1.0000   1.0000   1.0000   1.0000   1.0000   1.0000   1.0000   1.0000
     1.0000   1.0000   1.0000   1.0000   1.0000   1.0000   1.0000   1.0000
    -0.0000  -0.0000  -0.0000  -0.0000  -0.0000

          k = 1.5973 0.8586 0.2708 (  9258 PWs)   bands (ev):

   -49.8644 -26.3250 -25.7805 -25.7728 -11.0150  -9.0547  -8.9040  -0.6799
     1.0113   1.3906   1.6965   1.8761   2.5997   3.0303   3.5255   3.8454
     6.6027   8.8538   9.4623   9.4992  11.4131

     occupation numbers 
     1.0000   1.0000   1.0000   1.0000   1.0000   1.0000   1.0000   1.0000
     1.0000   1.0000   1.0000   1.0000   1.0000   1.0000   1.0000   1.0000
     0.8089  -0.0000  -0.0000  -0.0000  -0.0000

          k = 0.0000-0.5152 0.2708 (  9229 PWs)   bands (ev):

   -49.8705 -26.2701 -25.7883 -25.7083 -11.5838  -9.3017  -8.9141   0.4580
     0.9421   1.4150   2.4749   2.6283   2.7017   3.4072   3.9352   4.1099
     5.6413   8.7169   8.8451   8.8765  10.6828

     occupation numbers 
     1.0000   1.0000   1.0000   1.0000   1.0000   1.0000   1.0000   1.0000
     1.0000   1.0000   1.0000   1.0000   1.0000   1.0000   1.0000   1.0000
     1.0000  -0.0000  -0.0000  -0.0000  -0.0000

          k = 0.1997-0.3435 0.2708 (  9233 PWs)   bands (ev):

   -49.8702 -26.2119 -25.7868 -25.7309 -11.9976  -9.3064  -8.9047   1.0391
     1.6050   1.8208   2.2872   2.7806   2.9769   3.4704   3.6488   4.1619
     5.9193   8.0332   8.0356   8.7789  10.5235

     occupation numbers 
     1.0000   1.0000   1.0000   1.0000   1.0000   1.0000   1.0000   1.0000
     1.0000   1.0000   1.0000   1.0000   1.0000   1.0000   1.0000   1.0000
     1.0000  -0.0000  -0.0000  -0.0000  -0.0000

          k = 0.3993-0.1717 0.2708 (  9252 PWs)   bands (ev):

   -49.8674 -26.1610 -25.7864 -25.7789 -12.2847  -9.2246  -8.8818   1.1688
     1.9885   2.2263   2.4595   2.6307   3.1424   3.3295   3.8211   4.0651
     6.5127   7.1936   7.4026   8.8036  10.2718

     occupation numbers 
[...]

   -49.8725 -26.1670 -25.7922 -25.7117 -12.3237  -9.3160  -9.0033   1.1893
     2.2421   2.5472   2.6488   2.7557   3.2600   3.4978   3.9919   4.0045
     5.5850   7.4602   7.6265   8.9450  10.0681

     occupation numbers 
     1.0000   1.0000   1.0000   1.0000   1.0000   1.0000   1.0000   1.0000
     1.0000   1.0000   1.0000   1.0000   1.0000   1.0000   1.0000   1.0000
     1.0000  -0.0000  -0.0000  -0.0000  -0.0000

          k = 0.1997 0.0000 0.3791 (  9272 PWs)   bands (ev):

   -49.8714 -26.1474 -25.7892 -25.7330 -12.4281  -9.2928  -8.9857   1.2388
     2.1396   2.6331   2.7929   3.0645   3.3219   3.5786   3.8712   3.9040
     5.9246   7.0919   7.4159   8.7943   9.8926

     occupation numbers 
     1.0000   1.0000   1.0000   1.0000   1.0000   1.0000   1.0000   1.0000
     1.0000   1.0000   1.0000   1.0000   1.0000   1.0000   1.0000   1.0000
     1.0000  -0.0007  -0.0000  -0.0000  -0.0000

          k =-1.9966-0.3435-0.1083 (  9246 PWs)   bands (ev):

   -49.8716 -26.2136 -25.7904 -25.7102 -12.0074  -9.2367  -9.0436   1.2141
     1.6543   1.9015   2.3618   2.6804   3.0031   3.1685   3.8677   4.2736
     5.6161   8.0788   8.1185   8.9689  10.5864

     occupation numbers 
     1.0000   1.0000   1.0000   1.0000   1.0000   1.0000   1.0000   1.0000
     1.0000   1.0000   1.0000   1.0000   1.0000   1.0000   1.0000   1.0000
     1.0000  -0.0000  -0.0000  -0.0000  -0.0000

          k =-1.7969-0.1717-0.1083 (  9272 PWs)   bands (ev):

   -49.8711 -26.1654 -25.7885 -25.7324 -12.3126  -9.2405  -9.0252   1.3562
     1.9982   2.4554   2.5449   2.9317   3.0944   3.4857   3.7576   4.0290
     5.9413   7.3712   7.5815   8.8286  10.1912

     occupation numbers 
     1.0000   1.0000   1.0000   1.0000   1.0000   1.0000   1.0000   1.0000
     1.0000   1.0000   1.0000   1.0000   1.0000   1.0000   1.0000   1.0000
     1.0000  -0.0000  -0.0000  -0.0000  -0.0000

          k =-1.5973 0.0000-0.1083 (  9261 PWs)   bands (ev):

   -49.8678 -26.1432 -25.7871 -25.7796 -12.3992  -9.1804  -8.9471   1.3108
     1.7473   2.3123   2.6732   2.8570   3.5142   3.6448   3.7761   3.8633
     6.5990   6.8988   7.2247   8.6814   9.9313

     occupation numbers 
     1.0000   1.0000   1.0000   1.0000   1.0000   1.0000   1.0000   1.0000
     1.0000   1.0000   1.0000   1.0000   1.0000   1.0000   1.0000   1.0000
     0.8230  -0.0312  -0.0000  -0.0000  -0.0000

          k = 0.0000 1.2021-0.0542 (  9231 PWs)   bands (ev):

   -49.8705 -26.2701 -25.7883 -25.7083 -11.5829  -9.1692  -9.0594   0.4526
     1.2459   1.4274   2.3353   2.6886   2.6996   2.9335   3.8340   4.3479
     5.6510   8.7229   8.8585   8.9608  10.8856

     occupation numbers 
     1.0000   1.0000   1.0000   1.0000   1.0000   1.0000   1.0000   1.0000
     1.0000   1.0000   1.0000   1.0000   1.0000   1.0000   1.0000   1.0000
     1.0000  -0.0000  -0.0000  -0.0000  -0.0000

          k =-1.7969-0.3435-0.0542 (  9250 PWs)   bands (ev):

   -49.8702 -26.2119 -25.7868 -25.7309 -11.9967  -9.1636  -9.0610   1.3182
     1.7040   1.9017   2.0000   2.7125   2.9583   3.2676   3.5046   4.2878
     5.9676   8.0336   8.0365   8.8611  10.7024

     occupation numbers 
     1.0000   1.0000   1.0000   1.0000   1.0000   1.0000   1.0000   1.0000
     1.0000   1.0000   1.0000   1.0000   1.0000   1.0000   1.0000   1.0000
     1.0000  -0.0000  -0.0000  -0.0000  -0.0000

          k =-1.5973-0.1717-0.0542 (  9252 PWs)   bands (ev):

   -49.8674 -26.1610 -25.7864 -25.7790 -12.2840  -9.1505  -8.9617   1.3805
     1.6436   2.2765   2.4953   2.6130   3.2871   3.3315   3.6960   4.1007
     6.6188   7.1712   7.4148   8.6876  10.2053

     occupation numbers 
     1.0000   1.0000   1.0000   1.0000   1.0000   1.0000   1.0000   1.0000
     1.0000   1.0000   1.0000   1.0000   1.0000   1.0000   1.0000   1.0000
     0.7406  -0.0001  -0.0000  -0.0000  -0.0000

          k =-1.3976 0.0000-0.0542 (  9246 PWs)   bands (ev):

   -49.8633 -26.1379 -25.8531 -25.7678 -12.3637  -9.0963  -8.8348   1.1148
     1.2831   2.0538   2.5473   2.9639   3.6140   3.6336   3.7904   3.8737
     6.7327   6.9316   7.3787   8.8687   9.7851

     occupation numbers 
     1.0000   1.0000   1.0000   1.0000   1.0000   1.0000   1.0000   1.0000
     1.0000   1.0000   1.0000   1.0000   1.0000   1.0000   1.0000   1.0000
     0.1903  -0.0223  -0.0000  -0.0000  -0.0000

          k =-0.0000 1.0304-0.0000 (  9246 PWs)   bands (ev):

   -49.8697 -26.3151 -25.7866 -25.7068 -11.2037  -9.1876  -8.9971  -0.3851
     0.9821   1.1654   2.4660   2.5270   2.6849   2.7889   3.8673   4.2833
     5.6731   8.9231   9.3072   9.4373  10.9379

     occupation numbers 
     1.0000   1.0000   1.0000   1.0000   1.0000   1.0000   1.0000   1.0000
     1.0000   1.0000   1.0000   1.0000   1.0000   1.0000   1.0000   1.0000
     1.0000  -0.0000  -0.0000  -0.0000  -0.0000

          k = 0.1997 1.2021-0.0000 (  9233 PWs)   bands (ev):

   -49.8691 -26.2683 -25.7847 -25.7290 -11.5728  -9.1037  -9.0678   0.4625
     1.3860   1.3989   2.0362   2.4011   2.9637   3.1270   3.4047   4.3104
     5.9891   8.6392   8.7825   8.9201  11.0218

     occupation numbers 
     1.0000   1.0000   1.0000   1.0000   1.0000   1.0000   1.0000   1.0000
     1.0000   1.0000   1.0000   1.0000   1.0000   1.0000   1.0000   1.0000
     1.0000  -0.0000  -0.0000  -0.0000  -0.0000

          k =-1.5973-0.3435-0.0000 (  9254 PWs)   bands (ev):

   -49.8666 -26.2073 -25.7848 -25.7773 -11.9690  -9.1001  -8.9699   1.4127
     1.4333   1.8221   2.1022   2.1551   2.9345   3.1754   3.5214   4.2172
     6.6335   7.8381   7.9387   8.7375  10.7324

     occupation numbers 
     1.0000   1.0000   1.0000   1.0000   1.0000   1.0000   1.0000   1.0000
     1.0000   1.0000   1.0000   1.0000   1.0000   1.0000   1.0000   1.0000
     0.6725  -0.0000  -0.0000  -0.0000  -0.0000

          k =-1.3976-0.1717-0.0000 (  9267 PWs)   bands (ev):

   -49.8630 -26.1557 -25.8524 -25.7671 -12.2489  -9.0830  -8.8322   1.1284
     1.2944   1.9226   2.4728   2.7027   3.1970   3.4612   3.7398   4.0491
     6.9873   7.1857   7.3905   8.8743  10.0542

     occupation numbers 
     1.0000   1.0000   1.0000   1.0000   1.0000   1.0000   1.0000   1.0000
     1.0000   1.0000   1.0000   1.0000   1.0000   1.0000   1.0000   1.0000
    -0.0091  -0.0000  -0.0000  -0.0000  -0.0000

          k =-1.1980 0.0000-0.0000 (  9266 PWs)   bands (ev):

   -49.8596 -26.1337 -25.9060 -25.7581 -12.3351  -9.0249  -8.7452   0.8316
     1.0558   1.9916   2.3458   3.1160   3.4850   3.6392   3.7749   3.9450
     6.6668   6.6745   8.1253   9.3434   9.6606

     occupation numbers 
     1.0000   1.0000   1.0000   1.0000   1.0000   1.0000   1.0000   1.0000
     1.0000   1.0000   1.0000   1.0000   1.0000   1.0000   1.0000   1.0000
     0.5043   0.4642  -0.0000  -0.0000  -0.0000

          k = 0.0000 0.0000 0.4332 (  9276 PWs)   bands (ev):

   -49.8728 -26.1490 -25.7928 -25.7122 -12.4389  -9.2865  -9.0539   1.3243
     2.2661   2.6722   2.7594   3.3232   3.3264   3.3446   3.8259   4.0686
     5.5764   7.1794   7.5055   8.9862   9.8568

     occupation numbers 
     1.0000   1.0000   1.0000   1.0000   1.0000   1.0000   1.0000   1.0000
     1.0000   1.0000   1.0000   1.0000   1.0000   1.0000   1.0000   1.0000
     1.0000  -0.0000  -0.0000  -0.0000  -0.0000

          k =-1.9966-0.1717-0.0542 (  9260 PWs)   bands (ev):

   -49.8724 -26.1670 -25.7922 -25.7117 -12.3233  -9.2291  -9.0975   1.4071
     2.1630   2.5085   2.6315   2.6927   3.2368   3.4785   3.9578   3.9639
     5.5888   7.4602   7.6545   9.0057  10.1645

     occupation numbers 
     1.0000   1.0000   1.0000   1.0000   1.0000   1.0000   1.0000   1.0000
     1.0000   1.0000   1.0000   1.0000   1.0000   1.0000   1.0000   1.0000
     1.0000  -0.0000  -0.0000  -0.0000  -0.0000

          k =-1.7969 0.0000-0.0542 (  9278 PWs)   bands (ev):

   -49.8714 -26.1474 -25.7892 -25.7330 -12.4278  -9.2218  -9.0627   1.4850
     1.8950   2.6910   2.7797   3.0104   3.4217   3.5535   3.7690   3.8596
     5.9406   7.0887   7.4430   8.8389   9.9231

     occupation numbers 
     1.0000   1.0000   1.0000   1.0000   1.0000   1.0000   1.0000   1.0000
     1.0000   1.0000   1.0000   1.0000   1.0000   1.0000   1.0000   1.0000
     1.0000  -0.0008  -0.0000  -0.0000  -0.0000

          k = 0.0000 1.3738 0.0000 (  9226 PWs)   bands (ev):

   -49.8716 -26.2136 -25.7904 -25.7102 -12.0072  -9.1531  -9.1305   1.2863
     1.7130   1.9108   2.2364   2.7007   2.9981   3.1051   3.8408   4.2969
     5.6193   8.0864   8.1184   8.9961  10.6428

     occupation numbers 
     1.0000   1.0000   1.0000   1.0000   1.0000   1.0000   1.0000   1.0000
     1.0000   1.0000   1.0000   1.0000   1.0000   1.0000   1.0000   1.0000
     1.0000  -0.0000  -0.0000  -0.0000  -0.0000

          k =-1.7969-0.1717 0.0000 (  9263 PWs)   bands (ev):

   -49.8711 -26.1654 -25.7885 -25.7324 -12.3124  -9.1884  -9.0804   1.5148
     1.8493   2.4900   2.5204   2.9557   3.0583   3.4749   3.7322   4.0199
     5.9504   7.3701   7.5907   8.8515  10.2124

     occupation numbers 
     1.0000   1.0000   1.0000   1.0000   1.0000   1.0000   1.0000   1.0000
     1.0000   1.0000   1.0000   1.0000   1.0000   1.0000   1.0000   1.0000
     1.0000  -0.0000  -0.0000  -0.0000  -0.0000

          k =-1.5973 0.0000 0.0000 (  9246 PWs)   bands (ev):

   -49.8677 -26.1432 -25.7871 -25.7796 -12.3991  -9.1609  -8.9678   1.3967
     1.6299   2.3388   2.6652   2.8484   3.5903   3.6803   3.7079   3.8406
     6.6209   6.8916   7.2296   8.6626   9.9115

     occupation numbers 
     1.0000   1.0000   1.0000   1.0000   1.0000   1.0000   1.0000   1.0000
     1.0000   1.0000   1.0000   1.0000   1.0000   1.0000   1.0000   1.0000
     0.7313  -0.0327  -0.0000  -0.0000  -0.0000

          k =-1.9966-1.7173-0.5415 (  9304 PWs)   bands (ev):

   -49.8728 -26.1490 -25.7928 -25.7122 -12.4387  -9.2223  -9.1221   1.4810
     2.1146   2.6980   2.7539   3.3041   3.3090   3.3847   3.7620   4.0476
     5.5764   7.1795   7.5242   9.0197   9.8982

     occupation numbers 
     1.0000   1.0000   1.0000   1.0000   1.0000   1.0000   1.0000   1.0000
     1.0000   1.0000   1.0000   1.0000   1.0000   1.0000   1.0000   1.0000
     1.0000  -0.0000  -0.0000  -0.0000  -0.0000

     the Fermi energy is     6.6676 ev

!    total energy              =    -534.96696986 Ry

     total all-electron energy =     -9636.857212 Ry
     estimated scf accuracy    <          3.3E-11 Ry
     smearing contrib. (-TS)   =      -0.00010166 Ry
     internal energy E=F+TS    =    -534.96686820 Ry

     The total energy is F=E-TS. E is the sum of the following terms:
     one-electron contribution =     -93.92852826 Ry
     hartree contribution      =      61.19778825 Ry
     xc contribution           =     -39.53675171 Ry
     ewald contribution        =    -135.48921389 Ry
     one-center paw contrib.   =    -327.21016259 Ry
      -> PAW hartree energy AE =      29.12562127 Ry
      -> PAW hartree energy PS =     -29.09554279 Ry
      -> PAW xc energy AE      =     -17.04318192 Ry
      -> PAW xc energy PS      =       7.41902588 Ry
      -> total E_H with PAW    =      61.22786673 Ry
      -> total E_XC with PAW   =     -49.16090774 Ry

     convergence has been achieved in  13 iterations

     Forces acting on atoms (cartesian axes, Ry/au):

     atom    1 type  1   force =    -0.00000000   -0.00000000    0.00000000
     atom    2 type  2   force =     0.00000000    0.00000000    0.03590692
     atom    3 type  2   force =     0.00000000    0.00000000   -0.03590692
     atom    4 type  3   force =     0.00000000    0.00000000    0.00000000
     The non-local contrib.  to forces
     atom    1 type  1   force =     0.00000000    0.00000000    0.00000000
     atom    2 type  2   force =     0.00000000    0.00000000    0.06552875
     atom    3 type  2   force =     0.00000000    0.00000000   -0.06552875
     atom    4 type  3   force =     0.00000000    0.00000000    0.00000000
     The ionic contribution  to forces
     atom    1 type  1   force =    -0.00000000   -0.00000000    0.00000000
     atom    2 type  2   force =     0.00000001    0.00000000  -10.07462875
     atom    3 type  2   force =    -0.00000001   -0.00000000   10.07462875
     atom    4 type  3   force =    -0.00000000   -0.00000000    0.00000000
     The local contribution  to forces
     atom    1 type  1   force =    -0.00000000    0.00000000   -0.00000000
     atom    2 type  2   force =     0.00000002   -0.00000003   10.04352239
     atom    3 type  2   force =    -0.00000002    0.00000003  -10.04352239
     atom    4 type  3   force =    -0.00000000   -0.00000000    0.00000000
     The core correction contribution to forces
     atom    1 type  1   force =    -0.00000000    0.00000000   -0.00000000
     atom    2 type  2   force =    -0.00000000    0.00000000    0.00148153
     atom    3 type  2   force =     0.00000000   -0.00000000   -0.00148153
     atom    4 type  3   force =    -0.00000000   -0.00000000   -0.00000000
     The Hubbard contrib.    to forces
     atom    1 type  1   force =     0.00000000    0.00000000    0.00000000
     atom    2 type  2   force =     0.00000000    0.00000000    0.00000000
     atom    3 type  2   force =     0.00000000    0.00000000    0.00000000
     atom    4 type  3   force =     0.00000000    0.00000000    0.00000000
     The SCF correction term to forces
     atom    1 type  1   force =     0.00000000    0.00000000   -0.00000000
     atom    2 type  2   force =    -0.00000000    0.00000000    0.00000300
     atom    3 type  2   force =     0.00000000   -0.00000000   -0.00000300
     atom    4 type  3   force =    -0.00000000   -0.00000000    0.00000000

     Total force =     0.050780     Total SCF correction =     0.000004


     Computing stress (Cartesian axis) and pressure

          total   stress  (Ry/bohr**3)                   (kbar)     P=      -39.51
  -0.00028408  -0.00000000  -0.00000000          -41.79       -0.00       -0.00
  -0.00000000  -0.00026047   0.00000000           -0.00      -38.32        0.00
  -0.00000000  -0.00000000  -0.00026112           -0.00       -0.00      -38.41

     kinetic stress (kbar)  14780.02     -0.00      0.00
                               -0.00  14773.65      0.00
                               -0.00     -0.00  14795.30

     local   stress (kbar) -18930.23      0.00      0.00
                                0.00 -24135.99      0.00
                                0.00      0.00   4068.86

     nonloc. stress (kbar)   8008.29     -0.00      0.00
                               -0.00   7931.38     -0.00
                               -0.00     -0.00   8006.60

     hartree stress (kbar)   8385.57     -0.00     -0.00
                               -0.00  10084.98      0.00
                               -0.00      0.00  -2040.57

     exc-cor stress (kbar)  -1130.80      0.00     -0.00
                                0.00  -1122.11     -0.00
                               -0.00     -0.00  -1130.38

     corecor stress (kbar)  -2029.51     -0.00      0.00
                               -0.00  -2028.79      0.00
                                0.00      0.00  -2029.52

     ewald   stress (kbar)  -9125.13     -0.00     -0.00
                               -0.00  -5541.44     -0.00
                               -0.00     -0.00 -21708.70

     hubbard stress (kbar)      0.00      0.00      0.00
                                0.00      0.00      0.00
                                0.00      0.00      0.00

     DFT-D   stress (kbar)      0.00      0.00      0.00
                                0.00      0.00      0.00
                                0.00      0.00      0.00

     XDM     stress (kbar)      0.00      0.00      0.00
                                0.00      0.00      0.00
                                0.00      0.00      0.00

     dft-nl  stress (kbar)      0.00      0.00      0.00
                                0.00      0.00      0.00
                                0.00      0.00      0.00

     TS-vdW  stress (kbar)      0.00      0.00      0.00
                                0.00      0.00      0.00
                                0.00      0.00      0.00



     Writing output data file /zfs_data/gutierre/Scratch/Cl2NbO/convergence/cutoff/10x10x10/100/tmp/Cl2NbO.save/
 
     init_run     :      3.95s CPU      4.20s WALL (       1 calls)
     electrons    :    101.67s CPU    104.17s WALL (       1 calls)
     forces       :      0.67s CPU      0.68s WALL (       1 calls)
     stress       :      1.60s CPU      1.60s WALL (       1 calls)

     Called by init_run:
     wfcinit      :      3.01s CPU      3.12s WALL (       1 calls)
     wfcinit:atom :      0.02s CPU      0.02s WALL (     171 calls)
     wfcinit:wfcr :      2.92s CPU      3.02s WALL (     171 calls)
     potinit      :      0.32s CPU      0.40s WALL (       1 calls)
     hinit0       :      0.39s CPU      0.41s WALL (       1 calls)

     Called by electrons:
     c_bands      :     81.89s CPU     83.90s WALL (      13 calls)
     sum_band     :     17.33s CPU     17.76s WALL (      13 calls)
     v_of_rho     :      0.82s CPU      0.85s WALL (      14 calls)
     v_h          :      0.06s CPU      0.06s WALL (      14 calls)
     v_xc         :      0.87s CPU      0.90s WALL (      16 calls)
     newd         :      0.81s CPU      0.85s WALL (      14 calls)
     PAW_pot      :      0.73s CPU      0.75s WALL (      14 calls)
     mix_rho      :      0.12s CPU      0.13s WALL (      13 calls)

     Called by c_bands:
     init_us_2    :      0.94s CPU      0.98s WALL (    4959 calls)
     cegterg      :     79.81s CPU     81.67s WALL (    2223 calls)

     Called by sum_band:
     sum_band:wei :      0.07s CPU      0.07s WALL (      13 calls)
     sum_band:loo :     16.37s CPU     16.73s WALL (      13 calls)
     sum_band:buf :      0.10s CPU      0.11s WALL (    2223 calls)
     sum_band:ini :      0.44s CPU      0.45s WALL (    2223 calls)
     sum_band:cal :      0.39s CPU      0.40s WALL (    2223 calls)
     sum_band:bec :      0.06s CPU      0.06s WALL (    2223 calls)
     addusdens    :      0.79s CPU      0.85s WALL (      13 calls)
     addusd:skk   :      0.01s CPU      0.01s WALL (      39 calls)
     addusd:dgemm :      0.23s CPU      0.28s WALL (      39 calls)
     addusd:qvan2 :      0.51s CPU      0.52s WALL (      39 calls)

     Called by *egterg:
     cdiaghg      :      4.67s CPU      4.77s WALL (    8035 calls)
     cegterg:over :      1.20s CPU      1.24s WALL (    5812 calls)
     cegterg:upda :      0.38s CPU      0.39s WALL (    5812 calls)
     cegterg:last :      0.62s CPU      0.63s WALL (    4353 calls)
     h_psi        :     74.06s CPU     75.82s WALL (    8206 calls)
     s_psi        :      0.42s CPU      0.43s WALL (    8206 calls)
     g_psi        :      0.09s CPU      0.09s WALL (    5812 calls)

     Called by h_psi:
     h_psi:calbec :      1.41s CPU      1.44s WALL (    8206 calls)
     vloc_psi     :     71.76s CPU     73.46s WALL (    8206 calls)
     add_vuspsi   :      0.65s CPU      0.67s WALL (    8206 calls)

     General routines
     calbec       :      1.83s CPU      1.88s WALL (   11284 calls)
     fft          :      0.69s CPU      0.72s WALL (     205 calls)
     ffts         :      0.06s CPU      0.13s WALL (      27 calls)
     fftw         :     80.31s CPU     82.24s WALL (  279811 calls)
     interpolate  :      0.11s CPU      0.17s WALL (      14 calls)
 
     Parallel routines
     fft_scatt_xy :      8.62s CPU      8.76s WALL (  280043 calls)
     fft_scatt_yz :     32.54s CPU     33.31s WALL (  280043 calls)

     PAW routines
     PAW_pot      :      0.73s CPU      0.75s WALL (      14 calls)
     PAW_symme    :      0.01s CPU      0.01s WALL (      27 calls)
 
     PWSCF        :   1m49.12s CPU   1m53.29s WALL

 
   This run was terminated on:  15:55:58  18May2022            

=------------------------------------------------------------------------------=
   JOB DONE.
=------------------------------------------------------------------------------=
