
     Program Q2R v.6.7MaX starts on  7Sep2021 at 11:50:30 

     This program is part of the open-source Quantum ESPRESSO suite
     for quantum simulation of materials; please cite
         "P. Giannozzi et al., J. Phys.:Condens. Matter 21 395502 (2009);
         "P. Giannozzi et al., J. Phys.:Condens. Matter 29 465901 (2017);
          URL http://www.quantum-espresso.org", 
     in publications or presentations arising from this work. More details at
     http://www.quantum-espresso.org/quote

     Parallel version (MPI), running on    10 processors

     MPI processes distributed on     1 nodes
     R & G space division:  proc/nbgrp/npool/nimage =      10

     reading grid info from file ../results_ph/CsV3Sb5.dyn0    
  reading force constants from file ../results_ph/CsV3Sb5.dyn1
  Dielectric Tensor not found
  nqs=            1
 q=   0.00000000  0.00000000  0.00000000
  reading force constants from file ../results_ph/CsV3Sb5.dyn2
  nqs=            1
 q=   0.00000000  0.00000000 -0.27859025
  reading force constants from file ../results_ph/CsV3Sb5.dyn3
  nqs=            3
 q=   0.00000000 -0.57735027  0.00000000
 q=   0.50000000  0.28867514  0.00000000
 q=  -0.50000000  0.28867514  0.00000000
  reading force constants from file ../results_ph/CsV3Sb5.dyn4
  nqs=            3
 q=   0.00000000 -0.57735027 -0.27859025
 q=   0.50000000  0.28867514  0.27859025
 q=  -0.50000000  0.28867514  0.27859025

      q-space grid ok, #points =    8

      fft-check success (sum of imaginary terms < 10^-12)
 
     Q2R          :      0.04s CPU      0.12s WALL

 
   This run was terminated on:  11:50:30   7Sep2021            

=------------------------------------------------------------------------------=
   JOB DONE.
=------------------------------------------------------------------------------=
