MPI startup(): Warning: I_MPI_PMI_LIBRARY will be ignored since the hydra process manager was found
MPI startup(): Warning: I_MPI_PMI_LIBRARY will be ignored since the hydra process manager was found
MPI startup(): Warning: I_MPI_PMI_LIBRARY will be ignored since the hydra process manager was found
MPI startup(): Warning: I_MPI_PMI_LIBRARY will be ignored since the hydra process manager was found
MPI startup(): Warning: I_MPI_PMI_LIBRARY will be ignored since the hydra process manager was found
MPI startup(): Warning: I_MPI_PMI_LIBRARY will be ignored since the hydra process manager was found
MPI startup(): Warning: I_MPI_PMI_LIBRARY will be ignored since the hydra process manager was found
MPI startup(): Warning: I_MPI_PMI_LIBRARY will be ignored since the hydra process manager was found
MPI startup(): Warning: I_MPI_PMI_LIBRARY will be ignored since the hydra process manager was found
MPI startup(): Warning: I_MPI_PMI_LIBRARY will be ignored since the hydra process manager was found
MPI startup(): Warning: I_MPI_PMI_LIBRARY will be ignored since the hydra process manager was found
MPI startup(): Warning: I_MPI_PMI_LIBRARY will be ignored since the hydra process manager was found
MPI startup(): Warning: I_MPI_PMI_LIBRARY will be ignored since the hydra process manager was found
MPI startup(): Warning: I_MPI_PMI_LIBRARY will be ignored since the hydra process manager was found
MPI startup(): Warning: I_MPI_PMI_LIBRARY will be ignored since the hydra process manager was found
MPI startup(): Warning: I_MPI_PMI_LIBRARY will be ignored since the hydra process manager was found
MPI startup(): Warning: I_MPI_PMI_LIBRARY will be ignored since the hydra process manager was found
MPI startup(): Warning: I_MPI_PMI_LIBRARY will be ignored since the hydra process manager was found
MPI startup(): Warning: I_MPI_PMI_LIBRARY will be ignored since the hydra process manager was found
MPI startup(): Warning: I_MPI_PMI_LIBRARY will be ignored since the hydra process manager was found
MPI startup(): Warning: I_MPI_PMI_LIBRARY will be ignored since the hydra process manager was found
MPI startup(): Warning: I_MPI_PMI_LIBRARY will be ignored since the hydra process manager was found
MPI startup(): Warning: I_MPI_PMI_LIBRARY will be ignored since the hydra process manager was found
MPI startup(): Warning: I_MPI_PMI_LIBRARY will be ignored since the hydra process manager was found

     Program PWSCF v.6.7MaX starts on  1Aug2021 at 12:28:54 

     This program is part of the open-source Quantum ESPRESSO suite
     for quantum simulation of materials; please cite
         "P. Giannozzi et al., J. Phys.:Condens. Matter 21 395502 (2009);
         "P. Giannozzi et al., J. Phys.:Condens. Matter 29 465901 (2017);
          URL http://www.quantum-espresso.org", 
     in publications or presentations arising from this work. More details at
     http://www.quantum-espresso.org/quote

     Parallel version (MPI), running on    24 processors

     MPI processes distributed on     1 nodes
     R & G space division:  proc/nbgrp/npool/nimage =      24
     Waiting for input...
     Reading input from standard input

     Current dimensions of program PWSCF are:
     Max number of different atomic species (ntypx) = 10
     Max number of k-points (npk) =  40000
     Max angular momentum in pseudopotentials (lmaxx) =  3
     file Cr.rel-pbe-spn-kjpaw_psl.1.0.0.UPF: wavefunction(s)  3S 3P 3P 3D 3D renormalized
     file Si.rel-pbe-n-kjpaw_psl.1.0.0.UPF: wavefunction(s)  3S 3P 3P renormalized

     Subspace diagonalization in iterative solution of the eigenvalue problem:
     a serial algorithm will be used

     Message from routine setup:
     using ibrav=0 with symmetry is DISCOURAGED, use correct ibrav instead
 
     Parallelization info
     --------------------
     sticks:   dense  smooth     PW     G-vecs:    dense   smooth      PW
     Min         228      91     25                12702     3210     487
     Max         229      93     26                12704     3214     492
     Sum        5473    2201    621               304867    77053   11753
 


     bravais-lattice index     =            0
     lattice parameter (alat)  =       8.7475  a.u.
     unit-cell volume          =     669.3575 (a.u.)^3
     number of atoms/cell      =            8
     number of atomic types    =            2
     number of electrons       =        72.00
     number of Kohn-Sham states=           86
     kinetic-energy cutoff     =      90.0000  Ry
     charge density cutoff     =     900.0000  Ry
     scf convergence threshold =      1.0E-06
     mixing beta               =       0.7000
     number of iterations used =            8  plain     mixing
     Exchange-correlation= SLA  PW   PBX  PBC
                           (   1   4   3   4   0   0   0)
     Non magnetic calculation with spin-orbit


     celldm(1)=   8.747542  celldm(2)=   0.000000  celldm(3)=   0.000000
     celldm(4)=   0.000000  celldm(5)=   0.000000  celldm(6)=   0.000000

     crystal axes: (cart. coord. in units of alat)
               a(1) = (   1.000000   0.000000   0.000000 )  
               a(2) = (   0.000000   1.000000   0.000000 )  
               a(3) = (   0.000000   0.000000   1.000000 )  

     reciprocal axes: (cart. coord. in units 2 pi/alat)
               b(1) = (  1.000000  0.000000  0.000000 )  
               b(2) = (  0.000000  1.000000  0.000000 )  
               b(3) = (  0.000000  0.000000  1.000000 )  


     PseudoPot. # 1 for Cr read from file:
     ../../../../pseudo/Cr.rel-pbe-spn-kjpaw_psl.1.0.0.UPF
     MD5 check sum: 1e24e2b5251376a8b945118fca0c7981
     Pseudo is Projector augmented-wave + core cor, Zval = 14.0
     Generated using &quot;atomic&quot; code by A. Dal Corso  v.6.3
     Shape of augmentation charge: PSQ
     Using radial grid of 1183 points, 10 beta functions with: 
                l(1) =   0
                l(2) =   0
                l(3) =   1
                l(4) =   1
                l(5) =   1
                l(6) =   1
                l(7) =   2
                l(8) =   2
                l(9) =   2
               l(10) =   2
     Q(r) pseudized with 0 coefficients 


     PseudoPot. # 2 for Si read from file:
     ../../../../pseudo/Si.rel-pbe-n-kjpaw_psl.1.0.0.UPF
     MD5 check sum: d74f6caf6830ea4c2076867160cab1b0
     Pseudo is Projector augmented-wave + core cor, Zval =  4.0
     Generated using &quot;atomic&quot; code by A. Dal Corso  v.6.3
     Shape of augmentation charge: PSQ
     Using radial grid of 1141 points, 10 beta functions with: 
                l(1) =   0
                l(2) =   0
                l(3) =   1
                l(4) =   1
                l(5) =   1
                l(6) =   1
                l(7) =   2
                l(8) =   2
                l(9) =   2
               l(10) =   2
     Q(r) pseudized with 0 coefficients 


     atomic species   valence    mass     pseudopotential
        Cr            14.00    51.99600     Cr( 1.00)
        Si             4.00    28.08500     Si( 1.00)

     12 Sym. Ops. (no inversion) found ( 9 have fractional translation)


                                    s                        frac. trans.

      isym =  1     identity                                     

 cryst.   s( 1) = (     1          0          0      )
                  (     0          1          0      )
                  (     0          0          1      )

 cart.    s( 1) = (  1.0000000  0.0000000  0.0000000 )
                  (  0.0000000  1.0000000  0.0000000 )
                  (  0.0000000  0.0000000  1.0000000 )


      isym =  2     180 deg rotation - cart. axis [0,0,1]        

 cryst.   s( 2) = (    -1          0          0      )    f =(  0.5000000 )
                  (     0         -1          0      )       (  0.0000000 )
                  (     0          0          1      )       ( -0.5000000 )

 cart.    s( 2) = ( -1.0000000  0.0000000  0.0000000 )    f =(  0.5000000 )
                  (  0.0000000 -1.0000000  0.0000000 )       (  0.0000000 )
                  (  0.0000000  0.0000000  1.0000000 )       ( -0.5000000 )


      isym =  3     180 deg rotation - cart. axis [0,1,0]        

 cryst.   s( 3) = (    -1          0          0      )    f =(  0.0000000 )
                  (     0          1          0      )       ( -0.5000000 )
                  (     0          0         -1      )       (  0.5000000 )

 cart.    s( 3) = ( -1.0000000  0.0000000  0.0000000 )    f =(  0.0000000 )
                  (  0.0000000  1.0000000  0.0000000 )       ( -0.5000000 )
                  (  0.0000000  0.0000000 -1.0000000 )       (  0.5000000 )


      isym =  4     180 deg rotation - cart. axis [1,0,0]        

 cryst.   s( 4) = (     1          0          0      )    f =(  0.5000000 )
                  (     0         -1          0      )       (  0.5000000 )
                  (     0          0         -1      )       (  0.0000000 )

 cart.    s( 4) = (  1.0000000  0.0000000  0.0000000 )    f =(  0.5000000 )
                  (  0.0000000 -1.0000000  0.0000000 )       (  0.5000000 )
                  (  0.0000000  0.0000000 -1.0000000 )       (  0.0000000 )


      isym =  5     120 deg rotation - cart. axis [-1,-1,-1]     

 cryst.   s( 5) = (     0          0          1      )
                  (     1          0          0      )
                  (     0          1          0      )

 cart.    s( 5) = (  0.0000000  1.0000000  0.0000000 )
                  (  0.0000000  0.0000000  1.0000000 )
                  (  1.0000000  0.0000000  0.0000000 )


      isym =  6     120 deg rotation - cart. axis [-1,1,1]       

 cryst.   s( 6) = (     0          0         -1      )    f =(  0.0000000 )
                  (    -1          0          0      )       ( -0.5000000 )
                  (     0          1          0      )       (  0.5000000 )

 cart.    s( 6) = (  0.0000000 -1.0000000  0.0000000 )    f =(  0.0000000 )
                  (  0.0000000  0.0000000  1.0000000 )       ( -0.5000000 )
                  ( -1.0000000  0.0000000  0.0000000 )       (  0.5000000 )


      isym =  7     120 deg rotation - cart. axis [1,1,-1]       

 cryst.   s( 7) = (     0          0         -1      )    f =(  0.5000000 )
                  (     1          0          0      )       (  0.5000000 )
                  (     0         -1          0      )       (  0.0000000 )

 cart.    s( 7) = (  0.0000000  1.0000000  0.0000000 )    f =(  0.5000000 )
                  (  0.0000000  0.0000000 -1.0000000 )       (  0.5000000 )
                  ( -1.0000000  0.0000000  0.0000000 )       (  0.0000000 )


      isym =  8     120 deg rotation - cart. axis [1,-1,1]       

 cryst.   s( 8) = (     0          0          1      )    f =(  0.5000000 )
                  (    -1          0          0      )       (  0.0000000 )
                  (     0         -1          0      )       ( -0.5000000 )

 cart.    s( 8) = (  0.0000000 -1.0000000  0.0000000 )    f =(  0.5000000 )
                  (  0.0000000  0.0000000 -1.0000000 )       (  0.0000000 )
                  (  1.0000000  0.0000000  0.0000000 )       ( -0.5000000 )


      isym =  9     120 deg rotation - cart. axis [1,1,1]        

 cryst.   s( 9) = (     0          1          0      )
                  (     0          0          1      )
                  (     1          0          0      )

 cart.    s( 9) = (  0.0000000  0.0000000  1.0000000 )
                  (  1.0000000  0.0000000  0.0000000 )
                  (  0.0000000  1.0000000  0.0000000 )


      isym = 10     120 deg rotation - cart. axis [-1,1,-1]      

 cryst.   s(10) = (     0         -1          0      )    f =(  0.5000000 )
                  (     0          0         -1      )       (  0.5000000 )
                  (     1          0          0      )       (  0.0000000 )

 cart.    s(10) = (  0.0000000  0.0000000  1.0000000 )    f =(  0.5000000 )
                  ( -1.0000000  0.0000000  0.0000000 )       (  0.5000000 )
                  (  0.0000000 -1.0000000  0.0000000 )       (  0.0000000 )


      isym = 11     120 deg rotation - cart. axis [1,-1,-1]      

 cryst.   s(11) = (     0         -1          0      )    f =(  0.5000000 )
                  (     0          0          1      )       (  0.0000000 )
                  (    -1          0          0      )       ( -0.5000000 )

 cart.    s(11) = (  0.0000000  0.0000000 -1.0000000 )    f =(  0.5000000 )
                  ( -1.0000000  0.0000000  0.0000000 )       (  0.0000000 )
                  (  0.0000000  1.0000000  0.0000000 )       ( -0.5000000 )


      isym = 12     120 deg rotation - cart. axis [-1,-1,1]      

 cryst.   s(12) = (     0          1          0      )    f =(  0.0000000 )
                  (     0          0         -1      )       ( -0.5000000 )
                  (    -1          0          0      )       (  0.5000000 )

 cart.    s(12) = (  0.0000000  0.0000000 -1.0000000 )    f =(  0.0000000 )
                  (  1.0000000  0.0000000  0.0000000 )       ( -0.5000000 )
                  (  0.0000000 -1.0000000  0.0000000 )       (  0.5000000 )


   Cartesian axes

     site n.     atom                  positions (alat units)
         1           Cr  tau(   1) = (   0.8640000   0.3640000   0.1360000  )
         2           Cr  tau(   2) = (   0.3640000   0.1360000   0.8640000  )
         3           Cr  tau(   3) = (   0.1360000   0.8640000   0.3640000  )
         4           Cr  tau(   4) = (   0.6360000   0.6360000   0.6360000  )
         5           Si  tau(   5) = (   0.1540000   0.6540000   0.8460000  )
         6           Si  tau(   6) = (   0.6540000   0.8460000   0.1540000  )
         7           Si  tau(   7) = (   0.8460000   0.1540000   0.6540000  )
         8           Si  tau(   8) = (   0.3460000   0.3460000   0.3460000  )

   Crystallographic axes

     site n.     atom                  positions (cryst. coord.)
         1           Cr  tau(   1) = (  0.8640000  0.3640000  0.1360000  )
         2           Cr  tau(   2) = (  0.3640000  0.1360000  0.8640000  )
         3           Cr  tau(   3) = (  0.1360000  0.8640000  0.3640000  )
         4           Cr  tau(   4) = (  0.6360000  0.6360000  0.6360000  )
         5           Si  tau(   5) = (  0.1540000  0.6540000  0.8460000  )
         6           Si  tau(   6) = (  0.6540000  0.8460000  0.1540000  )
         7           Si  tau(   7) = (  0.8460000  0.1540000  0.6540000  )
         8           Si  tau(   8) = (  0.3460000  0.3460000  0.3460000  )

     number of k points=    76  Methfessel-Paxton smearing, width (Ry)=  0.0040
                       cart. coord. in units 2pi/alat
        k(    1) = (   0.0000000   0.0000000   0.0000000), wk =   0.0010000
        k(    2) = (   0.0000000   0.0000000   0.1000000), wk =   0.0060000
        k(    3) = (   0.0000000   0.0000000   0.2000000), wk =   0.0060000
        k(    4) = (   0.0000000   0.0000000   0.3000000), wk =   0.0060000
        k(    5) = (   0.0000000   0.0000000   0.4000000), wk =   0.0060000
        k(    6) = (   0.0000000   0.0000000  -0.5000000), wk =   0.0030000
        k(    7) = (   0.0000000   0.1000000   0.1000000), wk =   0.0120000
        k(    8) = (   0.0000000   0.1000000   0.2000000), wk =   0.0120000
        k(    9) = (   0.0000000   0.1000000   0.3000000), wk =   0.0120000
        k(   10) = (   0.0000000   0.1000000   0.4000000), wk =   0.0120000
        k(   11) = (   0.0000000   0.1000000  -0.5000000), wk =   0.0060000
        k(   12) = (   0.0000000   0.2000000   0.2000000), wk =   0.0120000
        k(   13) = (   0.0000000   0.2000000   0.3000000), wk =   0.0120000
        k(   14) = (   0.0000000   0.2000000   0.4000000), wk =   0.0120000
        k(   15) = (   0.0000000   0.2000000  -0.5000000), wk =   0.0060000
        k(   16) = (   0.0000000   0.3000000   0.3000000), wk =   0.0120000
        k(   17) = (   0.0000000   0.3000000   0.4000000), wk =   0.0120000
        k(   18) = (   0.0000000   0.3000000  -0.5000000), wk =   0.0060000
        k(   19) = (   0.0000000   0.4000000   0.4000000), wk =   0.0120000
        k(   20) = (   0.0000000   0.4000000  -0.5000000), wk =   0.0060000
        k(   21) = (   0.0000000  -0.5000000  -0.5000000), wk =   0.0030000
        k(   22) = (   0.1000000   0.1000000   0.1000000), wk =   0.0080000
        k(   23) = (   0.1000000   0.1000000   0.2000000), wk =   0.0240000
        k(   24) = (   0.1000000   0.1000000   0.3000000), wk =   0.0240000
        k(   25) = (   0.1000000   0.1000000   0.4000000), wk =   0.0240000
        k(   26) = (   0.1000000   0.1000000  -0.5000000), wk =   0.0120000
        k(   27) = (   0.1000000   0.2000000   0.2000000), wk =   0.0240000
        k(   28) = (   0.1000000   0.2000000   0.3000000), wk =   0.0240000
        k(   29) = (   0.1000000   0.2000000   0.4000000), wk =   0.0240000
        k(   30) = (   0.1000000   0.2000000  -0.5000000), wk =   0.0120000
        k(   31) = (   0.1000000   0.3000000   0.3000000), wk =   0.0240000
        k(   32) = (   0.1000000   0.3000000   0.4000000), wk =   0.0240000
        k(   33) = (   0.1000000   0.3000000  -0.5000000), wk =   0.0120000
        k(   34) = (   0.1000000   0.4000000   0.4000000), wk =   0.0240000
        k(   35) = (   0.1000000   0.4000000  -0.5000000), wk =   0.0120000
        k(   36) = (   0.1000000  -0.5000000  -0.5000000), wk =   0.0060000
        k(   37) = (   0.2000000   0.2000000   0.2000000), wk =   0.0080000
        k(   38) = (   0.2000000   0.2000000   0.3000000), wk =   0.0240000
        k(   39) = (   0.2000000   0.2000000   0.4000000), wk =   0.0240000
        k(   40) = (   0.2000000   0.2000000  -0.5000000), wk =   0.0120000
        k(   41) = (   0.2000000   0.3000000   0.3000000), wk =   0.0240000
        k(   42) = (   0.2000000   0.3000000   0.4000000), wk =   0.0240000
        k(   43) = (   0.2000000   0.3000000  -0.5000000), wk =   0.0120000
        k(   44) = (   0.2000000   0.4000000   0.4000000), wk =   0.0240000
        k(   45) = (   0.2000000   0.4000000  -0.5000000), wk =   0.0120000
        k(   46) = (   0.2000000  -0.5000000  -0.5000000), wk =   0.0060000
        k(   47) = (   0.3000000   0.3000000   0.3000000), wk =   0.0080000
        k(   48) = (   0.3000000   0.3000000   0.4000000), wk =   0.0240000
        k(   49) = (   0.3000000   0.3000000  -0.5000000), wk =   0.0120000
        k(   50) = (   0.3000000   0.4000000   0.4000000), wk =   0.0240000
        k(   51) = (   0.3000000   0.4000000  -0.5000000), wk =   0.0120000
        k(   52) = (   0.3000000  -0.5000000  -0.5000000), wk =   0.0060000
        k(   53) = (   0.4000000   0.4000000   0.4000000), wk =   0.0080000
        k(   54) = (   0.4000000   0.4000000  -0.5000000), wk =   0.0120000
        k(   55) = (   0.4000000  -0.5000000  -0.5000000), wk =   0.0060000
        k(   56) = (  -0.5000000  -0.5000000  -0.5000000), wk =   0.0010000
        k(   57) = (   0.0000000   0.2000000   0.1000000), wk =   0.0120000
        k(   58) = (   0.0000000   0.3000000   0.1000000), wk =   0.0120000
        k(   59) = (   0.0000000   0.4000000   0.1000000), wk =   0.0120000
        k(   60) = (   0.0000000  -0.5000000   0.1000000), wk =   0.0060000
        k(   61) = (   0.0000000   0.3000000   0.2000000), wk =   0.0120000
        k(   62) = (   0.0000000   0.4000000   0.2000000), wk =   0.0120000
        k(   63) = (   0.0000000  -0.5000000   0.2000000), wk =   0.0060000
        k(   64) = (   0.0000000   0.4000000   0.3000000), wk =   0.0120000
        k(   65) = (   0.0000000  -0.5000000   0.3000000), wk =   0.0060000
        k(   66) = (   0.0000000  -0.5000000   0.4000000), wk =   0.0060000
        k(   67) = (  -0.1000000   0.3000000   0.2000000), wk =   0.0240000
        k(   68) = (  -0.1000000   0.4000000   0.2000000), wk =   0.0240000
        k(   69) = (  -0.1000000  -0.5000000   0.2000000), wk =   0.0120000
        k(   70) = (  -0.1000000   0.4000000   0.3000000), wk =   0.0240000
        k(   71) = (  -0.1000000  -0.5000000   0.3000000), wk =   0.0120000
        k(   72) = (  -0.1000000  -0.5000000   0.4000000), wk =   0.0120000
        k(   73) = (  -0.2000000   0.4000000   0.3000000), wk =   0.0240000
        k(   74) = (  -0.2000000  -0.5000000   0.3000000), wk =   0.0120000
        k(   75) = (  -0.2000000  -0.5000000   0.4000000), wk =   0.0120000
        k(   76) = (  -0.3000000  -0.5000000   0.4000000), wk =   0.0120000

                       cryst. coord.
        k(    1) = (   0.0000000   0.0000000   0.0000000), wk =   0.0010000
        k(    2) = (   0.0000000   0.0000000   0.1000000), wk =   0.0060000
        k(    3) = (   0.0000000   0.0000000   0.2000000), wk =   0.0060000
        k(    4) = (   0.0000000   0.0000000   0.3000000), wk =   0.0060000
        k(    5) = (   0.0000000   0.0000000   0.4000000), wk =   0.0060000
        k(    6) = (   0.0000000   0.0000000  -0.5000000), wk =   0.0030000
        k(    7) = (   0.0000000   0.1000000   0.1000000), wk =   0.0120000
        k(    8) = (   0.0000000   0.1000000   0.2000000), wk =   0.0120000
        k(    9) = (   0.0000000   0.1000000   0.3000000), wk =   0.0120000
        k(   10) = (   0.0000000   0.1000000   0.4000000), wk =   0.0120000
        k(   11) = (   0.0000000   0.1000000  -0.5000000), wk =   0.0060000
        k(   12) = (   0.0000000   0.2000000   0.2000000), wk =   0.0120000
        k(   13) = (   0.0000000   0.2000000   0.3000000), wk =   0.0120000
        k(   14) = (   0.0000000   0.2000000   0.4000000), wk =   0.0120000
        k(   15) = (   0.0000000   0.2000000  -0.5000000), wk =   0.0060000
        k(   16) = (   0.0000000   0.3000000   0.3000000), wk =   0.0120000
        k(   17) = (   0.0000000   0.3000000   0.4000000), wk =   0.0120000
        k(   18) = (   0.0000000   0.3000000  -0.5000000), wk =   0.0060000
        k(   19) = (   0.0000000   0.4000000   0.4000000), wk =   0.0120000
        k(   20) = (   0.0000000   0.4000000  -0.5000000), wk =   0.0060000
        k(   21) = (   0.0000000  -0.5000000  -0.5000000), wk =   0.0030000
        k(   22) = (   0.1000000   0.1000000   0.1000000), wk =   0.0080000
        k(   23) = (   0.1000000   0.1000000   0.2000000), wk =   0.0240000
        k(   24) = (   0.1000000   0.1000000   0.3000000), wk =   0.0240000
        k(   25) = (   0.1000000   0.1000000   0.4000000), wk =   0.0240000
        k(   26) = (   0.1000000   0.1000000  -0.5000000), wk =   0.0120000
        k(   27) = (   0.1000000   0.2000000   0.2000000), wk =   0.0240000
        k(   28) = (   0.1000000   0.2000000   0.3000000), wk =   0.0240000
        k(   29) = (   0.1000000   0.2000000   0.4000000), wk =   0.0240000
        k(   30) = (   0.1000000   0.2000000  -0.5000000), wk =   0.0120000
        k(   31) = (   0.1000000   0.3000000   0.3000000), wk =   0.0240000
        k(   32) = (   0.1000000   0.3000000   0.4000000), wk =   0.0240000
        k(   33) = (   0.1000000   0.3000000  -0.5000000), wk =   0.0120000
        k(   34) = (   0.1000000   0.4000000   0.4000000), wk =   0.0240000
        k(   35) = (   0.1000000   0.4000000  -0.5000000), wk =   0.0120000
        k(   36) = (   0.1000000  -0.5000000  -0.5000000), wk =   0.0060000
        k(   37) = (   0.2000000   0.2000000   0.2000000), wk =   0.0080000
        k(   38) = (   0.2000000   0.2000000   0.3000000), wk =   0.0240000
        k(   39) = (   0.2000000   0.2000000   0.4000000), wk =   0.0240000
        k(   40) = (   0.2000000   0.2000000  -0.5000000), wk =   0.0120000
        k(   41) = (   0.2000000   0.3000000   0.3000000), wk =   0.0240000
        k(   42) = (   0.2000000   0.3000000   0.4000000), wk =   0.0240000
        k(   43) = (   0.2000000   0.3000000  -0.5000000), wk =   0.0120000
        k(   44) = (   0.2000000   0.4000000   0.4000000), wk =   0.0240000
        k(   45) = (   0.2000000   0.4000000  -0.5000000), wk =   0.0120000
        k(   46) = (   0.2000000  -0.5000000  -0.5000000), wk =   0.0060000
        k(   47) = (   0.3000000   0.3000000   0.3000000), wk =   0.0080000
        k(   48) = (   0.3000000   0.3000000   0.4000000), wk =   0.0240000
        k(   49) = (   0.3000000   0.3000000  -0.5000000), wk =   0.0120000
        k(   50) = (   0.3000000   0.4000000   0.4000000), wk =   0.0240000
        k(   51) = (   0.3000000   0.4000000  -0.5000000), wk =   0.0120000
        k(   52) = (   0.3000000  -0.5000000  -0.5000000), wk =   0.0060000
        k(   53) = (   0.4000000   0.4000000   0.4000000), wk =   0.0080000
        k(   54) = (   0.4000000   0.4000000  -0.5000000), wk =   0.0120000
        k(   55) = (   0.4000000  -0.5000000  -0.5000000), wk =   0.0060000
        k(   56) = (  -0.5000000  -0.5000000  -0.5000000), wk =   0.0010000
        k(   57) = (   0.0000000   0.2000000   0.1000000), wk =   0.0120000
        k(   58) = (   0.0000000   0.3000000   0.1000000), wk =   0.0120000
        k(   59) = (   0.0000000   0.4000000   0.1000000), wk =   0.0120000
        k(   60) = (   0.0000000  -0.5000000   0.1000000), wk =   0.0060000
        k(   61) = (   0.0000000   0.3000000   0.2000000), wk =   0.0120000
        k(   62) = (   0.0000000   0.4000000   0.2000000), wk =   0.0120000
        k(   63) = (   0.0000000  -0.5000000   0.2000000), wk =   0.0060000
        k(   64) = (   0.0000000   0.4000000   0.3000000), wk =   0.0120000
        k(   65) = (   0.0000000  -0.5000000   0.3000000), wk =   0.0060000
        k(   66) = (   0.0000000  -0.5000000   0.4000000), wk =   0.0060000
        k(   67) = (  -0.1000000   0.3000000   0.2000000), wk =   0.0240000
        k(   68) = (  -0.1000000   0.4000000   0.2000000), wk =   0.0240000
        k(   69) = (  -0.1000000  -0.5000000   0.2000000), wk =   0.0120000
        k(   70) = (  -0.1000000   0.4000000   0.3000000), wk =   0.0240000
        k(   71) = (  -0.1000000  -0.5000000   0.3000000), wk =   0.0120000
        k(   72) = (  -0.1000000  -0.5000000   0.4000000), wk =   0.0120000
        k(   73) = (  -0.2000000   0.4000000   0.3000000), wk =   0.0240000
        k(   74) = (  -0.2000000  -0.5000000   0.3000000), wk =   0.0120000
        k(   75) = (  -0.2000000  -0.5000000   0.4000000), wk =   0.0120000
        k(   76) = (  -0.3000000  -0.5000000   0.4000000), wk =   0.0120000

     Dense  grid:   304867 G-vectors     FFT dimensions: (  90,  90,  90)

     Smooth grid:    77053 G-vectors     FFT dimensions: (  54,  54,  54)

     Dynamical RAM for                 wfc:       1.06 MB

     Dynamical RAM for     wfc (w. buffer):      81.24 MB

     Dynamical RAM for           str. fact:       0.39 MB

     Dynamical RAM for           local pot:       0.00 MB

     Dynamical RAM for          nlocal pot:       1.67 MB

     Dynamical RAM for                qrad:      12.61 MB

     Dynamical RAM for          rho,v,vnew:       5.29 MB

     Dynamical RAM for               rhoin:       1.76 MB

     Dynamical RAM for            rho*nmix:      12.41 MB

     Dynamical RAM for           G-vectors:       0.75 MB

     Dynamical RAM for          h,s,v(r/c):       1.35 MB

     Dynamical RAM for          <psi|beta>:       0.71 MB

     Dynamical RAM for                 psi:       2.11 MB

     Dynamical RAM for                hpsi:       2.11 MB

     Dynamical RAM for                spsi:       2.11 MB

     Dynamical RAM for      wfcinit/wfcrot:       2.35 MB

     Dynamical RAM for           addusdens:     119.02 MB

     Dynamical RAM for          addusforce:     120.34 MB

     Dynamical RAM for         addusstress:     121.74 MB

     Estimated static dynamical RAM per process >     118.67 MB

     Estimated max dynamical RAM per process >     240.41 MB

     Estimated total dynamical RAM >       5.63 GB

     Initial potential from superposition of free atoms

     starting charge   71.99469, renormalised to   72.00000
     Starting wfcs are  112 randomized atomic wfcs
     Checking if some PAW data can be deallocated... 
       PAW data deallocated on   12 nodes for type:  1
       PAW data deallocated on   12 nodes for type:  2

     total cpu time spent up to now is       19.6 secs

     Self-consistent Calculation

     iteration #  1     ecut=    90.00 Ry     beta= 0.70
     Davidson diagonalization with overlap
     ethr =  1.00E-02,  avg # of iterations =  2.0

     Threshold (ethr) on eigenvalues was too large:
     Diagonalizing with lowered threshold

     Davidson diagonalization with overlap
     ethr =  2.10E-04,  avg # of iterations =  4.3

     total cpu time spent up to now is      119.7 secs

     total energy              =   -1180.30932848 Ry
     estimated scf accuracy    <       0.18956119 Ry

     iteration #  2     ecut=    90.00 Ry     beta= 0.70
     Davidson diagonalization with overlap
     ethr =  2.63E-04,  avg # of iterations =  3.2

     total cpu time spent up to now is      171.1 secs

     total energy              =   -1180.31387539 Ry
     estimated scf accuracy    <       0.08192770 Ry

     iteration #  3     ecut=    90.00 Ry     beta= 0.70
     Davidson diagonalization with overlap
     ethr =  1.14E-04,  avg # of iterations =  5.1

     total cpu time spent up to now is      232.8 secs

     total energy              =   -1180.32545558 Ry
     estimated scf accuracy    <       0.16481730 Ry

     iteration #  4     ecut=    90.00 Ry     beta= 0.70
     Davidson diagonalization with overlap
     ethr =  1.14E-04,  avg # of iterations =  4.0

     total cpu time spent up to now is      282.1 secs

     total energy              =   -1180.34944379 Ry
     estimated scf accuracy    <       0.00026853 Ry

     iteration #  5     ecut=    90.00 Ry     beta= 0.70
     Davidson diagonalization with overlap
     ethr =  3.73E-07,  avg # of iterations =  8.5

     total cpu time spent up to now is      361.3 secs

     total energy              =   -1180.35009224 Ry
     estimated scf accuracy    <       0.00037358 Ry

     iteration #  6     ecut=    90.00 Ry     beta= 0.70
     Davidson diagonalization with overlap
     ethr =  3.73E-07,  avg # of iterations =  3.3

     total cpu time spent up to now is      403.0 secs

     total energy              =   -1180.35014750 Ry
     estimated scf accuracy    <       0.00000372 Ry

     iteration #  7     ecut=    90.00 Ry     beta= 0.70
     Davidson diagonalization with overlap
     ethr =  5.16E-09,  avg # of iterations =  6.1

     total cpu time spent up to now is      460.2 secs

     total energy              =   -1180.35015050 Ry
     estimated scf accuracy    <       0.00002501 Ry

     iteration #  8     ecut=    90.00 Ry     beta= 0.70
     Davidson diagonalization with overlap
     ethr =  5.16E-09,  avg # of iterations =  5.0

     total cpu time spent up to now is      522.1 secs

     End of self-consistent calculation

          k = 0.0000 0.0000 0.0000 (  9771 PWs)   bands (ev):

   -56.5164 -56.5164 -56.4817 -56.4817 -56.4817 -56.4817 -56.4817 -56.4817
   -28.5825 -28.5825 -28.5744 -28.5744 -28.5744 -28.5744 -28.4851 -28.4851
   -27.6184 -27.6184 -27.6184 -27.6184 -27.5411 -27.5411 -27.5411 -27.5411
   -27.5315 -27.5315 -27.4506 -27.4506 -27.4506 -27.4506 -27.4484 -27.4484
     2.6990   2.6990   7.4572   7.4572   7.4572   7.4572   7.4664   7.4664
    10.5368  10.5368  10.5447  10.5447  10.5447  10.5447  11.9125  11.9125
    11.9125  11.9125  11.9236  11.9236  12.6037  12.6037  12.7722  12.7722
    12.7722  12.7722  13.1419  13.1419  13.1419  13.1419  13.1431  13.1431
    13.6702  13.6702  13.6702  13.6702  13.6740  13.6740  15.5510  15.5510
    15.5823  15.5823  15.5823  15.5823  15.7627  15.7627  15.7627  15.7627
    16.6662  16.6662  16.6965  16.6965  16.6965  16.6965

     occupation numbers 
     1.0000   1.0000   1.0000   1.0000   1.0000   1.0000   1.0000   1.0000
     1.0000   1.0000   1.0000   1.0000   1.0000   1.0000   1.0000   1.0000
     1.0000   1.0000   1.0000   1.0000   1.0000   1.0000   1.0000   1.0000
     1.0000   1.0000   1.0000   1.0000   1.0000   1.0000   1.0000   1.0000
     1.0000   1.0000   1.0000   1.0000   1.0000   1.0000   1.0000   1.0000
     1.0000   1.0000   1.0000   1.0000   1.0000   1.0000   1.0000   1.0000
     1.0000   1.0000   1.0000   1.0000   1.0000   1.0000   1.0000   1.0000
     1.0000   1.0000   1.0000   1.0000   1.0000   1.0000   1.0000   1.0000
     1.0000   1.0000   1.0000   1.0000   1.0000   1.0000  -0.0000  -0.0000
    -0.0000  -0.0000  -0.0000  -0.0000  -0.0000  -0.0000  -0.0000  -0.0000
    -0.0000  -0.0000  -0.0000  -0.0000  -0.0000  -0.0000

          k = 0.0000 0.0000 0.1000 (  9695 PWs)   bands (ev):

   -56.5158 -56.5158 -56.4848 -56.4848 -56.4815 -56.4815 -56.4794 -56.4794
   -28.5876 -28.5800 -28.5786 -28.5770 -28.5697 -28.5668 -28.4870 -28.4869
   -27.6295 -27.6242 -27.6109 -27.6057 -27.5477 -27.5457 -27.5380 -27.5366
   -27.5355 -27.5218 -27.4560 -27.4549 -27.4526 -27.4486 -27.4481 -27.4438
     2.7684   2.7684   6.9409   6.9447   7.4974   7.4985   7.8792   7.8875
    10.1583  10.1638  10.5884  10.5897  10.9492  10.9521  11.4189  11.4199
    11.7334  11.7366  12.4399  12.4554  12.5677  12.5720  12.7703  12.7779
    12.8728  12.8734  13.1161  13.1178  13.1665  13.1667  13.1939  13.1944
    13.5342  13.5404  13.6600  13.6611  13.8548  13.8554  15.4461  15.4682
    15.4697  15.4747  15.7029  15.7180  15.7351  15.7496  15.7533  15.7664
    16.5151  16.5333  16.6531  16.6561  16.8465  16.8668

     occupation numbers 
     1.0000   1.0000   1.0000   1.0000   1.0000   1.0000   1.0000   1.0000
     1.0000   1.0000   1.0000   1.0000   1.0000   1.0000   1.0000   1.0000
     1.0000   1.0000   1.0000   1.0000   1.0000   1.0000   1.0000   1.0000
     1.0000   1.0000   1.0000   1.0000   1.0000   1.0000   1.0000   1.0000
     1.0000   1.0000   1.0000   1.0000   1.0000   1.0000   1.0000   1.0000
     1.0000   1.0000   1.0000   1.0000   1.0000   1.0000   1.0000   1.0000
     1.0000   1.0000   1.0000   1.0000   1.0000   1.0000   1.0000   1.0000
     1.0000   1.0000   1.0000   1.0000   1.0000   1.0000   1.0000   1.0000
     1.0000   1.0000   1.0000   1.0000   1.0000   1.0000  -0.0000  -0.0000
    -0.0000  -0.0000  -0.0000  -0.0000  -0.0000  -0.0000  -0.0000  -0.0000
    -0.0000  -0.0000  -0.0000  -0.0000  -0.0000  -0.0000

          k = 0.0000 0.0000 0.2000 (  9663 PWs)   bands (ev):

   -56.5139 -56.5139 -56.4887 -56.4887 -56.4809 -56.4809 -56.4780 -56.4780
   -28.5911 -28.5836 -28.5799 -28.5784 -28.5607 -28.5573 -28.4923 -28.4922
   -27.6376 -27.6292 -27.6012 -27.5934 -27.5550 -27.5483 -27.5392 -27.5351
   -27.5320 -27.5106 -27.4642 -27.4596 -27.4566 -27.4489 -27.4471 -27.4406
     2.9748   2.9748   6.3262   6.3282   7.6082   7.6106   8.2282   8.2380
     9.8573   9.8604  10.7050  10.7085  10.9861  10.9917  11.3752  11.3811
    11.3908  11.3910  12.3763  12.3889  12.8263  12.8326  12.8461  12.8707
    13.0741  13.0797  13.1034  13.1064  13.2161  13.2198  13.2367  13.2369
    13.5727  13.5839  13.6061  13.6099  14.0031  14.0039  15.2038  15.2277
    15.3989  15.4035  15.6612  15.6734  15.7406  15.7615  15.8236  15.8483
    16.3562  16.3710  16.5588  16.5681  17.0736  17.0942

     occupation numbers 
     1.0000   1.0000   1.0000   1.0000   1.0000   1.0000   1.0000   1.0000
     1.0000   1.0000   1.0000   1.0000   1.0000   1.0000   1.0000   1.0000
     1.0000   1.0000   1.0000   1.0000   1.0000   1.0000   1.0000   1.0000
     1.0000   1.0000   1.0000   1.0000   1.0000   1.0000   1.0000   1.0000
     1.0000   1.0000   1.0000   1.0000   1.0000   1.0000   1.0000   1.0000
     1.0000   1.0000   1.0000   1.0000   1.0000   1.0000   1.0000   1.0000
     1.0000   1.0000   1.0000   1.0000   1.0000   1.0000   1.0000   1.0000
     1.0000   1.0000   1.0000   1.0000   1.0000   1.0000   1.0000   1.0000
     1.0000   1.0000   1.0000   1.0000   1.0000   1.0000  -0.0000  -0.0000
    -0.0000  -0.0000  -0.0000  -0.0000  -0.0000  -0.0000  -0.0000  -0.0000
    -0.0000  -0.0000  -0.0000  -0.0000  -0.0000  -0.0000

          k = 0.0000 0.0000 0.3000 (  9638 PWs)   bands (ev):

   -56.5109 -56.5109 -56.4931 -56.4931 -56.4800 -56.4800 -56.4775 -56.4775
   -28.5927 -28.5853 -28.5835 -28.5799 -28.5493 -28.5464 -28.5008 -28.5003
   -27.6423 -27.6340 -27.5897 -27.5839 -27.5622 -27.5477 -27.5388 -27.5330
   -27.5315 -27.4990 -27.4754 -27.4621 -27.4615 -27.4506 -27.4463 -27.4396
     3.3118   3.3118   5.6500   5.6509   7.7873   7.7909   8.4735   8.4835
     9.6692   9.6696  10.7387  10.7438  10.7937  10.8050  11.0723  11.0789
    11.7456  11.7472  12.1736  12.1895  12.8829  12.9003  12.9089  12.9167
    13.1298  13.1352  13.1504  13.1565  13.2591  13.2613  13.3806  13.3811
    13.4572  13.4623  13.8458  13.8498  14.0773  14.0793  14.9574  14.9898
    15.3624  15.3678  15.5651  15.5824  15.7370  15.7639  15.8570  15.8807
    16.2266  16.2420  16.4216  16.4346  17.2688  17.2875

     occupation numbers 
     1.0000   1.0000   1.0000   1.0000   1.0000   1.0000   1.0000   1.0000
     1.0000   1.0000   1.0000   1.0000   1.0000   1.0000   1.0000   1.0000
     1.0000   1.0000   1.0000   1.0000   1.0000   1.0000   1.0000   1.0000
     1.0000   1.0000   1.0000   1.0000   1.0000   1.0000   1.0000   1.0000
     1.0000   1.0000   1.0000   1.0000   1.0000   1.0000   1.0000   1.0000
     1.0000   1.0000   1.0000   1.0000   1.0000   1.0000   1.0000   1.0000
     1.0000   1.0000   1.0000   1.0000   1.0000   1.0000   1.0000   1.0000
     1.0000   1.0000   1.0000   1.0000   1.0000   1.0000   1.0000   1.0000
     1.0000   1.0000   1.0000   1.0000   1.0000   1.0000   0.5939   0.1388
    -0.0000  -0.0000  -0.0000  -0.0000  -0.0000  -0.0000  -0.0000  -0.0000
    -0.0000  -0.0000  -0.0000  -0.0000  -0.0000  -0.0000

          k = 0.0000 0.0000 0.4000 (  9654 PWs)   bands (ev):

   -56.5070 -56.5070 -56.4978 -56.4978 -56.4791 -56.4791 -56.4776 -56.4776
   -28.5922 -28.5871 -28.5853 -28.5820 -28.5367 -28.5346 -28.5116 -28.5107
   -27.6436 -27.6386 -27.5799 -27.5741 -27.5687 -27.5480 -27.5441 -27.5341
   -27.5204 -27.4894 -27.4878 -27.4691 -27.4601 -27.4534 -27.4447 -27.4405
     3.7688   3.7689   4.9680   4.9684   8.0221   8.0271   8.4870   8.4954
     9.7181   9.7214  10.4138  10.4156  10.7858  10.7991  11.0146  11.0189
    12.0856  12.0877  12.1327  12.1464  12.7236  12.7388  12.9193  12.9320
    13.0704  13.0766  13.1900  13.1931  13.2339  13.2373  13.2944  13.2979
    13.5918  13.5930  13.9160  13.9203  14.2945  14.3114  14.7682  14.8028
    15.3588  15.3721  15.4723  15.4915  15.7599  15.7897  15.8393  15.8654
    16.1533  16.1687  16.2728  16.2867  17.3793  17.3870

     occupation numbers 
     1.0000   1.0000   1.0000   1.0000   1.0000   1.0000   1.0000   1.0000
     1.0000   1.0000   1.0000   1.0000   1.0000   1.0000   1.0000   1.0000
     1.0000   1.0000   1.0000   1.0000   1.0000   1.0000   1.0000   1.0000
     1.0000   1.0000   1.0000   1.0000   1.0000   1.0000   1.0000   1.0000
     1.0000   1.0000   1.0000   1.0000   1.0000   1.0000   1.0000   1.0000
     1.0000   1.0000   1.0000   1.0000   1.0000   1.0000   1.0000   1.0000
     1.0000   1.0000   1.0000   1.0000   1.0000   1.0000   1.0000   1.0000
     1.0000   1.0000   1.0000   1.0000   1.0000   1.0000   1.0000   1.0000
     1.0000   1.0000   1.0000   1.0000   1.0000   1.0000   1.0000   1.0001
    -0.0000  -0.0000  -0.0000  -0.0000  -0.0000  -0.0000  -0.0000  -0.0000
    -0.0000  -0.0000  -0.0000  -0.0000  -0.0000  -0.0000

          k = 0.0000 0.0000-0.5000 (  9658 PWs)   bands (ev):

   -56.5026 -56.5026 -56.5026 -56.5026 -56.4782 -56.4782 -56.4782 -56.4782
   -28.5902 -28.5902 -28.5840 -28.5840 -28.5239 -28.5239 -28.5224 -28.5224
   -27.6421 -27.6421 -27.5744 -27.5744 -27.5606 -27.5606 -27.5389 -27.5389
   -27.5049 -27.5049 -27.4777 -27.4777 -27.4569 -27.4569 -27.4426 -27.4426
     4.3290   4.3290   4.3292   4.3292   8.2826   8.2826   8.2890   8.2890
    10.0176  10.0176  10.0216  10.0216  10.8982  10.8982  10.9095  10.9095
    12.2473  12.2473  12.2539  12.2539  12.6843  12.6843  12.6967  12.6967
    13.1413  13.1413  13.1418  13.1418  13.2357  13.2357  13.2394  13.2394
    13.7825  13.7825  13.7856  13.7856  14.5661  14.5661  14.5946  14.5946
    15.3990  15.3990  15.4168  15.4168  15.8043  15.8043  15.8340  15.8340
    16.1660  16.1660  16.1796  16.1796  17.5419  17.5470

     occupation numbers 
     1.0000   1.0000   1.0000   1.0000   1.0000   1.0000   1.0000   1.0000
     1.0000   1.0000   1.0000   1.0000   1.0000   1.0000   1.0000   1.0000
     1.0000   1.0000   1.0000   1.0000   1.0000   1.0000   1.0000   1.0000
     1.0000   1.0000   1.0000   1.0000   1.0000   1.0000   1.0000   1.0000
     1.0000   1.0000   1.0000   1.0000   1.0000   1.0000   1.0000   1.0000
     1.0000   1.0000   1.0000   1.0000   1.0000   1.0000   1.0000   1.0000
     1.0000   1.0000   1.0000   1.0000   1.0000   1.0000   1.0000   1.0000
     1.0000   1.0000   1.0000   1.0000   1.0000   1.0000   1.0000   1.0000
     1.0000   1.0000   1.0000   1.0000   1.0000   1.0000   1.0000   1.0000
    -0.0000  -0.0000  -0.0000  -0.0000  -0.0000  -0.0000  -0.0000  -0.0000
    -0.0000  -0.0000  -0.0000  -0.0000  -0.0000  -0.0000

          k = 0.0000 0.1000 0.1000 (  9675 PWs)   bands (ev):

   -56.5151 -56.5151 -56.4860 -56.4860 -56.4817 -56.4817 -56.4786 -56.4786
   -28.5894 -28.5825 -28.5775 -28.5760 -28.5677 -28.5637 -28.4888 -28.4887
   -27.6314 -27.6282 -27.6053 -27.6019 -27.5505 -27.5460 -27.5404 -27.5398
   -27.5303 -27.5169 -27.4594 -27.4586 -27.4537 -27.4492 -27.4460 -27.4418
     2.8376   2.8376   6.8021   6.8073   7.3670   7.3705   8.0834   8.0895
    10.0373  10.0427  10.6304  10.6343  11.0125  11.0169  11.1733  11.1751
    11.8337  11.8350  12.4250  12.4397  12.6001  12.6065  12.8436  12.8519
    12.9296  12.9362  13.1396  13.1420  13.1596  13.1632  13.2327  13.2351
    13.4828  13.4881  13.6668  13.6759  13.9345  13.9384  15.3904  15.3993
    15.4504  15.4542  15.6563  15.6652  15.7348  15.7470  15.7729  15.7896
    16.4357  16.4544  16.6626  16.6683  16.8858  16.9124

     occupation numbers 
     1.0000   1.0000   1.0000   1.0000   1.0000   1.0000   1.0000   1.0000
     1.0000   1.0000   1.0000   1.0000   1.0000   1.0000   1.0000   1.0000
     1.0000   1.0000   1.0000   1.0000   1.0000   1.0000   1.0000   1.0000
     1.0000   1.0000   1.0000   1.0000   1.0000   1.0000   1.0000   1.0000
     1.0000   1.0000   1.0000   1.0000   1.0000   1.0000   1.0000   1.0000
     1.0000   1.0000   1.0000   1.0000   1.0000   1.0000   1.0000   1.0000
     1.0000   1.0000   1.0000   1.0000   1.0000   1.0000   1.0000   1.0000
     1.0000   1.0000   1.0000   1.0000   1.0000   1.0000   1.0000   1.0000
     1.0000   1.0000   1.0000   1.0000   1.0000   1.0000  -0.0000  -0.0000
    -0.0000  -0.0000  -0.0000  -0.0000  -0.0000  -0.0000  -0.0000  -0.0000
    -0.0000  -0.0000  -0.0000  -0.0000  -0.0000  -0.0000

          k = 0.0000 0.1000 0.2000 (  9636 PWs)   bands (ev):

   -56.5133 -56.5133 -56.4891 -56.4891 -56.4813 -56.4813 -56.4777 -56.4777
   -28.5917 -28.5850 -28.5780 -28.5773 -28.5601 -28.5563 -28.4940 -28.4939
   -27.6372 -27.6309 -27.5977 -27.5919 -27.5552 -27.5494 -27.5411 -27.5393
   -27.5271 -27.5072 -27.4681 -27.4630 -27.4564 -27.4509 -27.4439 -27.4389
     3.0429   3.0430   6.3260   6.3291   7.3971   7.3997   8.3525   8.3587
     9.8331   9.8363  10.6460  10.6489  10.7645  10.7685  11.4219  11.4234
    11.6079  11.6127  12.3954  12.4036  12.6326  12.6361  13.0052  13.0161
    13.0977  13.1041  13.1346  13.1358  13.2134  13.2161  13.2995  13.3018
    13.4890  13.4945  13.7052  13.7187  14.0451  14.0515  15.2129  15.2363
    15.3441  15.3577  15.5929  15.6080  15.7084  15.7265  15.8266  15.8503
    16.3031  16.3203  16.5834  16.5944  17.0600  17.0896

     occupation numbers 
     1.0000   1.0000   1.0000   1.0000   1.0000   1.0000   1.0000   1.0000
     1.0000   1.0000   1.0000   1.0000   1.0000   1.0000   1.0000   1.0000
     1.0000   1.0000   1.0000   1.0000   1.0000   1.0000   1.0000   1.0000
     1.0000   1.0000   1.0000   1.0000   1.0000   1.0000   1.0000   1.0000
     1.0000   1.0000   1.0000   1.0000   1.0000   1.0000   1.0000   1.0000
     1.0000   1.0000   1.0000   1.0000   1.0000   1.0000   1.0000   1.0000
     1.0000   1.0000   1.0000   1.0000   1.0000   1.0000   1.0000   1.0000
     1.0000   1.0000   1.0000   1.0000   1.0000   1.0000   1.0000   1.0000
     1.0000   1.0000   1.0000   1.0000   1.0000   1.0000  -0.0000  -0.0000
    -0.0000  -0.0000  -0.0000  -0.0000  -0.0000  -0.0000  -0.0000  -0.0000
    -0.0000  -0.0000  -0.0000  -0.0000  -0.0000  -0.0000

          k = 0.0000 0.1000 0.3000 (  9642 PWs)   bands (ev):

   -56.5104 -56.5104 -56.4932 -56.4932 -56.4805 -56.4805 -56.4774 -56.4774
   -28.5925 -28.5862 -28.5813 -28.5788 -28.5494 -28.5465 -28.5023 -28.5019
   -27.6411 -27.6340 -27.5882 -27.5828 -27.5619 -27.5490 -27.5422 -27.5351
   -27.5276 -27.4964 -27.4794 -27.4659 -27.4600 -27.4537 -27.4423 -27.4375
     3.3783   3.3784   5.6884   5.6899   7.5764   7.5783   8.5076   8.5134
     9.6889   9.6903  10.3948  10.3992  10.9283  10.9298  11.2920  11.3026
    11.7039  11.7070  12.2164  12.2295  12.7191  12.7227  13.0162  13.0262
    13.0317  13.0345  13.2260  13.2321  13.2978  13.2994  13.4127  13.4167
    13.5149  13.5237  13.8853  13.8975  14.1188  14.1243  14.9669  14.9983
    15.3122  15.3249  15.4886  15.5035  15.6978  15.7221  15.8510  15.8769
    16.1923  16.2058  16.4505  16.4640  17.2317  17.2601

     occupation numbers 
     1.0000   1.0000   1.0000   1.0000   1.0000   1.0000   1.0000   1.0000
     1.0000   1.0000   1.0000   1.0000   1.0000   1.0000   1.0000   1.0000
     1.0000   1.0000   1.0000   1.0000   1.0000   1.0000   1.0000   1.0000
     1.0000   1.0000   1.0000   1.0000   1.0000   1.0000   1.0000   1.0000
     1.0000   1.0000   1.0000   1.0000   1.0000   1.0000   1.0000   1.0000
     1.0000   1.0000   1.0000   1.0000   1.0000   1.0000   1.0000   1.0000
     1.0000   1.0000   1.0000   1.0000   1.0000   1.0000   1.0000   1.0000
     1.0000   1.0000   1.0000   1.0000   1.0000   1.0000   1.0000   1.0000
     1.0000   1.0000   1.0000   1.0000   1.0000   1.0000   0.4457   0.0628
    -0.0000  -0.0000  -0.0000  -0.0000  -0.0000  -0.0000  -0.0000  -0.0000
    -0.0000  -0.0000  -0.0000  -0.0000  -0.0000  -0.0000

          k = 0.0000 0.1000 0.4000 (  9650 PWs)   bands (ev):

   -56.5066 -56.5066 -56.4977 -56.4977 -56.4795 -56.4795 -56.4777 -56.4777
   -28.5916 -28.5868 -28.5840 -28.5811 -28.5374 -28.5352 -28.5128 -28.5120
   -27.6421 -27.6375 -27.5799 -27.5733 -27.5684 -27.5506 -27.5439 -27.5329
   -27.5225 -27.4936 -27.4853 -27.4694 -27.4616 -27.4569 -27.4408 -27.4378
     3.8327   3.8329   5.0209   5.0216   7.8364   7.8388   8.4142   8.4187
     9.7550   9.7585  10.2272  10.2311  11.0030  11.0077  11.0667  11.0796
    11.9589  11.9646  12.1918  12.2005  12.6467  12.6517  12.8512  12.8602
    13.0636  13.0684  13.2671  13.2709  13.3058  13.3083  13.3719  13.3736
    13.6275  13.6316  13.9413  13.9466  14.3360  14.3553  14.7774  14.8115
    15.3070  15.3220  15.3954  15.4099  15.7192  15.7461  15.8296  15.8580
    16.1460  16.1549  16.3081  16.3211  17.3507  17.3685

     occupation numbers 
     1.0000   1.0000   1.0000   1.0000   1.0000   1.0000   1.0000   1.0000
     1.0000   1.0000   1.0000   1.0000   1.0000   1.0000   1.0000   1.0000
     1.0000   1.0000   1.0000   1.0000   1.0000   1.0000   1.0000   1.0000
     1.0000   1.0000   1.0000   1.0000   1.0000   1.0000   1.0000   1.0000
     1.0000   1.0000   1.0000   1.0000   1.0000   1.0000   1.0000   1.0000
     1.0000   1.0000   1.0000   1.0000   1.0000   1.0000   1.0000   1.0000
     1.0000   1.0000   1.0000   1.0000   1.0000   1.0000   1.0000   1.0000
     1.0000   1.0000   1.0000   1.0000   1.0000   1.0000   1.0000   1.0000
     1.0000   1.0000   1.0000   1.0000   1.0000   1.0000   1.0000   1.0003
    -0.0000  -0.0000  -0.0000  -0.0000  -0.0000  -0.0000  -0.0000  -0.0000
    -0.0000  -0.0000  -0.0000  -0.0000  -0.0000  -0.0000

          k = 0.0000 0.1000-0.5000 (  9676 PWs)   bands (ev):

   -56.5023 -56.5023 -56.5023 -56.5023 -56.4785 -56.4785 -56.4785 -56.4785
   -28.5894 -28.5894 -28.5832 -28.5832 -28.5252 -28.5252 -28.5231 -28.5231
   -27.6406 -27.6406 -27.5743 -27.5743 -27.5612 -27.5612 -27.5385 -27.5385
   -27.5081 -27.5081 -27.4764 -27.4764 -27.4598 -27.4598 -27.4391 -27.4391
     4.3889   4.3889   4.3893   4.3893   8.1378   8.1378   8.1446   8.1446
     9.9959   9.9959  10.0003  10.0003  10.9956  10.9956  11.0093  11.0093
    12.1786  12.1786  12.1844  12.1844  12.6268  12.6268  12.6429  12.6429
    13.1983  13.1983  13.2021  13.2021  13.3000  13.3000  13.3017  13.3017
    13.8128  13.8128  13.8163  13.8163  14.5880  14.5880  14.6178  14.6178
    15.3337  15.3337  15.3501  15.3501  15.7747  15.7747  15.8044  15.8044
    16.1899  16.1899  16.2015  16.2015  17.5339  17.5373

     occupation numbers 
     1.0000   1.0000   1.0000   1.0000   1.0000   1.0000   1.0000   1.0000
     1.0000   1.0000   1.0000   1.0000   1.0000   1.0000   1.0000   1.0000
     1.0000   1.0000   1.0000   1.0000   1.0000   1.0000   1.0000   1.0000
     1.0000   1.0000   1.0000   1.0000   1.0000   1.0000   1.0000   1.0000
     1.0000   1.0000   1.0000   1.0000   1.0000   1.0000   1.0000   1.0000
     1.0000   1.0000   1.0000   1.0000   1.0000   1.0000   1.0000   1.0000
     1.0000   1.0000   1.0000   1.0000   1.0000   1.0000   1.0000   1.0000
     1.0000   1.0000   1.0000   1.0000   1.0000   1.0000   1.0000   1.0000
     1.0000   1.0000   1.0000   1.0000   1.0000   1.0000   1.0000   1.0000
    -0.0000  -0.0000  -0.0000  -0.0000  -0.0000  -0.0000  -0.0000  -0.0000
    -0.0000  -0.0000  -0.0000  -0.0000  -0.0000  -0.0000

          k = 0.0000 0.2000 0.2000 (  9629 PWs)   bands (ev):

   -56.5116 -56.5116 -56.4908 -56.4908 -56.4817 -56.4817 -56.4774 -56.4774
   -28.5923 -28.5863 -28.5765 -28.5762 -28.5567 -28.5527 -28.4990 -28.4988
   -27.6370 -27.6332 -27.5905 -27.5878 -27.5550 -27.5541 -27.5429 -27.5414
   -27.5233 -27.5000 -27.4754 -27.4696 -27.4606 -27.4497 -27.4406 -27.4362
     3.2453   3.2454   6.2136   6.2175   7.1067   7.1111   8.4946   8.4998
     9.7695   9.7715  10.3199  10.3237  10.8492  10.8511  11.3878  11.3900
    11.7957  11.7971  12.3656  12.3694  12.5711  12.5791  12.9913  12.9987
    13.1296  13.1407  13.1911  13.1946  13.3260  13.3282  13.4076  13.4201
    13.4893  13.4957  13.8243  13.8383  14.1257  14.1330  15.1677  15.1890
    15.2389  15.2602  15.4424  15.4551  15.6633  15.6868  15.8087  15.8348
    16.2126  16.2276  16.5669  16.5778  17.1088  17.1480

     occupation numbers 
     1.0000   1.0000   1.0000   1.0000   1.0000   1.0000   1.0000   1.0000
     1.0000   1.0000   1.0000   1.0000   1.0000   1.0000   1.0000   1.0000
     1.0000   1.0000   1.0000   1.0000   1.0000   1.0000   1.0000   1.0000
     1.0000   1.0000   1.0000   1.0000   1.0000   1.0000   1.0000   1.0000
     1.0000   1.0000   1.0000   1.0000   1.0000   1.0000   1.0000   1.0000
     1.0000   1.0000   1.0000   1.0000   1.0000   1.0000   1.0000   1.0000
     1.0000   1.0000   1.0000   1.0000   1.0000   1.0000   1.0000   1.0000
     1.0000   1.0000   1.0000   1.0000   1.0000   1.0000   1.0000   1.0000
     1.0000   1.0000   1.0000   1.0000   1.0000   1.0000  -0.0000  -0.0000
    -0.0000  -0.0000  -0.0000  -0.0000  -0.0000  -0.0000  -0.0000  -0.0000
    -0.0000  -0.0000  -0.0000  -0.0000  -0.0000  -0.0000

          k = 0.0000 0.2000 0.3000 (  9653 PWs)   bands (ev):

   -56.5089 -56.5089 -56.4937 -56.4937 -56.4813 -56.4813 -56.4776 -56.4776
   -28.5917 -28.5862 -28.5782 -28.5767 -28.5491 -28.5459 -28.5067 -28.5064
   -27.6378 -27.6335 -27.5854 -27.5804 -27.5615 -27.5529 -27.5438 -27.5380
   -27.5240 -27.4932 -27.4862 -27.4734 -27.4637 -27.4500 -27.4381 -27.4343
     3.5755   3.5757   5.7766   5.7791   7.1294   7.1329   8.4352   8.4391
     9.7421   9.7454  10.1782  10.1828  10.9535  10.9553  11.4461  11.4495
    11.7630  11.7645  12.2214  12.2264  12.5371  12.5451  12.8815  12.8895
    13.1659  13.1781  13.2244  13.2283  13.4066  13.4070  13.5500  13.5610
    13.5858  13.5976  13.9898  14.0023  14.2294  14.2383  14.9838  15.0110
    15.1722  15.1938  15.3156  15.3255  15.6281  15.6527  15.7834  15.8136
    16.1556  16.1659  16.4877  16.4994  17.1990  17.2380

     occupation numbers 
     1.0000   1.0000   1.0000   1.0000   1.0000   1.0000   1.0000   1.0000
     1.0000   1.0000   1.0000   1.0000   1.0000   1.0000   1.0000   1.0000
     1.0000   1.0000   1.0000   1.0000   1.0000   1.0000   1.0000   1.0000
     1.0000   1.0000   1.0000   1.0000   1.0000   1.0000   1.0000   1.0000
     1.0000   1.0000   1.0000   1.0000   1.0000   1.0000   1.0000   1.0000
     1.0000   1.0000   1.0000   1.0000   1.0000   1.0000   1.0000   1.0000
     1.0000   1.0000   1.0000   1.0000   1.0000   1.0000   1.0000   1.0000
     1.0000   1.0000   1.0000   1.0000   1.0000   1.0000   1.0000   1.0000
     1.0000   1.0000   1.0000   1.0000   1.0000   1.0000   0.2068  -0.0067
    -0.0000  -0.0000  -0.0000  -0.0000  -0.0000  -0.0000  -0.0000  -0.0000
    -0.0000  -0.0000  -0.0000  -0.0000  -0.0000  -0.0000

          k = 0.0000 0.2000 0.4000 (  9651 PWs)   bands (ev):

   -56.5054 -56.5054 -56.4974 -56.4974 -56.4804 -56.4804 -56.4783 -56.4783
   -28.5898 -28.5854 -28.5811 -28.5787 -28.5389 -28.5368 -28.5164 -28.5159
   -27.6375 -27.6343 -27.5813 -27.5740 -27.5658 -27.5535 -27.5434 -27.5312
   -27.5257 -27.5003 -27.4864 -27.4772 -27.4619 -27.4528 -27.4360 -27.4338
     4.0217   4.0221   5.1716   5.1729   7.3848   7.3874   8.1324   8.1351
     9.8720   9.8755  10.1409  10.1443  11.0536  11.0604  11.3123  11.3245
    11.8756  11.8799  12.0988  12.1048  12.4983  12.5090  12.6802  12.6909
    13.2241  13.2296  13.2751  13.2803  13.4052  13.4074  13.5606  13.5630
    13.7423  13.7464  14.0115  14.0190  14.4431  14.4683  14.7928  14.8242
    15.1656  15.1834  15.2236  15.2284  15.6275  15.6535  15.7332  15.7654
    16.1805  16.1866  16.3889  16.4015  17.2685  17.2934

     occupation numbers 
     1.0000   1.0000   1.0000   1.0000   1.0000   1.0000   1.0000   1.0000
     1.0000   1.0000   1.0000   1.0000   1.0000   1.0000   1.0000   1.0000
     1.0000   1.0000   1.0000   1.0000   1.0000   1.0000   1.0000   1.0000
     1.0000   1.0000   1.0000   1.0000   1.0000   1.0000   1.0000   1.0000
     1.0000   1.0000   1.0000   1.0000   1.0000   1.0000   1.0000   1.0000
     1.0000   1.0000   1.0000   1.0000   1.0000   1.0000   1.0000   1.0000
     1.0000   1.0000   1.0000   1.0000   1.0000   1.0000   1.0000   1.0000
     1.0000   1.0000   1.0000   1.0000   1.0000   1.0000   1.0000   1.0000
     1.0000   1.0000   1.0000   1.0000   1.0000   1.0000   1.0000   1.0009
    -0.0000  -0.0000  -0.0000  -0.0000  -0.0000  -0.0000  -0.0000  -0.0000
    -0.0000  -0.0000  -0.0000  -0.0000  -0.0000  -0.0000

          k = 0.0000 0.2000-0.5000 (  9650 PWs)   bands (ev):

   -56.5015 -56.5015 -56.5015 -56.5015 -56.4793 -56.4793 -56.4793 -56.4793
   -28.5869 -28.5869 -28.5810 -28.5810 -28.5285 -28.5285 -28.5255 -28.5255
   -27.6360 -27.6360 -27.5769 -27.5769 -27.5601 -27.5601 -27.5373 -27.5373
   -27.5138 -27.5138 -27.4817 -27.4817 -27.4572 -27.4572 -27.4345 -27.4345
     4.5646   4.5646   4.5654   4.5654   7.7412   7.7412   7.7479   7.7479
    10.0486  10.0486  10.0523  10.0523  11.1495  11.1495  11.1630  11.1630
    12.0402  12.0402  12.0438  12.0438  12.4893  12.4893  12.5040  12.5040
    13.3083  13.3083  13.3113  13.3113  13.4381  13.4381  13.4409  13.4409
    13.9067  13.9067  13.9112  13.9112  14.6383  14.6383  14.6700  14.6700
    15.1764  15.1764  15.1899  15.1899  15.6704  15.6704  15.7000  15.7000
    16.2736  16.2736  16.2843  16.2843  17.4429  17.4473

     occupation numbers 
     1.0000   1.0000   1.0000   1.0000   1.0000   1.0000   1.0000   1.0000
     1.0000   1.0000   1.0000   1.0000   1.0000   1.0000   1.0000   1.0000
     1.0000   1.0000   1.0000   1.0000   1.0000   1.0000   1.0000   1.0000
     1.0000   1.0000   1.0000   1.0000   1.0000   1.0000   1.0000   1.0000
     1.0000   1.0000   1.0000   1.0000   1.0000   1.0000   1.0000   1.0000
     1.0000   1.0000   1.0000   1.0000   1.0000   1.0000   1.0000   1.0000
     1.0000   1.0000   1.0000   1.0000   1.0000   1.0000   1.0000   1.0000
     1.0000   1.0000   1.0000   1.0000   1.0000   1.0000   1.0000   1.0000
     1.0000   1.0000   1.0000   1.0000   1.0000   1.0000   1.0000   1.0000
    -0.0000  -0.0000  -0.0000  -0.0000  -0.0000  -0.0000  -0.0000  -0.0000
    -0.0000  -0.0000  -0.0000  -0.0000  -0.0000  -0.0000

          k = 0.0000 0.3000 0.3000 (  9641 PWs)   bands (ev):

   -56.5065 -56.5065 -56.4950 -56.4950 -56.4818 -56.4818 -56.4782 -56.4782
   -28.5898 -28.5850 -28.5765 -28.5757 -28.5464 -28.5434 -28.5137 -28.5130
   -27.6339 -27.6318 -27.5843 -27.5789 -27.5617 -27.5535 -27.5420 -27.5391
   -27.5233 -27.4960 -27.4933 -27.4816 -27.4620 -27.4460 -27.4354 -27.4322
     3.8963   3.8966   5.7564   5.7590   6.7780   6.7813   8.1200   8.1244
     9.8830   9.8864  10.2221  10.2263  10.9524  10.9547  11.2879  11.2892
    11.9116  11.9182  12.2058  12.2112  12.3902  12.4009  12.7563  12.7635
    13.1511  13.1599  13.3629  13.3719  13.4931  13.4983  13.6394  13.6457
    13.7468  13.7583  14.0592  14.0722  14.3834  14.4037  14.9280  14.9451
    15.0226  15.0455  15.1455  15.1574  15.5567  15.5814  15.6718  15.7023
    16.1810  16.1897  16.4872  16.4958  17.1812  17.2182

     occupation numbers 
     1.0000   1.0000   1.0000   1.0000   1.0000   1.0000   1.0000   1.0000
     1.0000   1.0000   1.0000   1.0000   1.0000   1.0000   1.0000   1.0000
     1.0000   1.0000   1.0000   1.0000   1.0000   1.0000   1.0000   1.0000
     1.0000   1.0000   1.0000   1.0000   1.0000   1.0000   1.0000   1.0000
     1.0000   1.0000   1.0000   1.0000   1.0000   1.0000   1.0000   1.0000
     1.0000   1.0000   1.0000   1.0000   1.0000   1.0000   1.0000   1.0000
     1.0000   1.0000   1.0000   1.0000   1.0000   1.0000   1.0000   1.0000
     1.0000   1.0000   1.0000   1.0000   1.0000   1.0000   1.0000   1.0000
     1.0000   1.0000   1.0000   1.0000   1.0000   1.0000   0.9420   0.7686
    -0.0320  -0.0273  -0.0000  -0.0000  -0.0000  -0.0000  -0.0000  -0.0000
    -0.0000  -0.0000  -0.0000  -0.0000  -0.0000  -0.0000

          k = 0.0000 0.3000 0.4000 (  9635 PWs)   bands (ev):

   -56.5036 -56.5036 -56.4973 -56.4973 -56.4814 -56.4814 -56.4792 -56.4792
   -28.5867 -28.5829 -28.5779 -28.5763 -28.5401 -28.5381 -28.5220 -28.5214
   -27.6307 -27.6292 -27.5861 -27.5808 -27.5593 -27.5517 -27.5413 -27.5314
   -27.5273 -27.5056 -27.4961 -27.4883 -27.4555 -27.4457 -27.4336 -27.4314
     4.3269   4.3275   5.3797   5.3815   6.8561   6.8591   7.6669   7.6702
    10.0827  10.0852  10.2805  10.2830  11.0334  11.0368  11.3612  11.3685
    11.8660  11.8697  11.9503  11.9528  12.3434  12.3528  12.5149  12.5249
    13.2524  13.2611  13.4272  13.4284  13.4859  13.4862  13.7135  13.7176
    13.9461  13.9518  14.1242  14.1330  14.5480  14.5761  14.7618  14.7834
    14.9723  14.9917  15.0366  15.0496  15.5240  15.5466  15.5892  15.6199
    16.2732  16.2817  16.4808  16.4888  17.1353  17.1587

     occupation numbers 
     1.0000   1.0000   1.0000   1.0000   1.0000   1.0000   1.0000   1.0000
     1.0000   1.0000   1.0000   1.0000   1.0000   1.0000   1.0000   1.0000
     1.0000   1.0000   1.0000   1.0000   1.0000   1.0000   1.0000   1.0000
     1.0000   1.0000   1.0000   1.0000   1.0000   1.0000   1.0000   1.0000
     1.0000   1.0000   1.0000   1.0000   1.0000   1.0000   1.0000   1.0000
     1.0000   1.0000   1.0000   1.0000   1.0000   1.0000   1.0000   1.0000
     1.0000   1.0000   1.0000   1.0000   1.0000   1.0000   1.0000   1.0000
     1.0000   1.0000   1.0000   1.0000   1.0000   1.0000   1.0000   1.0000
     1.0000   1.0000   1.0000   1.0000   1.0000   1.0000   1.0000   1.0000
     0.3647   0.1191  -0.0336  -0.0238  -0.0000  -0.0000  -0.0000  -0.0000
    -0.0000  -0.0000  -0.0000  -0.0000  -0.0000  -0.0000

          k = 0.0000 0.3000-0.5000 (  9642 PWs)   bands (ev):

   -56.5004 -56.5004 -56.5004 -56.5004 -56.4804 -56.4804 -56.4804 -56.4804
   -28.5833 -28.5833 -28.5782 -28.5782 -28.5324 -28.5324 -28.5292 -28.5292
   -27.6287 -27.6287 -27.5849 -27.5849 -27.5544 -27.5544 -27.5358 -27.5358
   -27.5185 -27.5185 -27.4933 -27.4933 -27.4493 -27.4493 -27.4320 -27.4320
     4.8413   4.8413   4.8426   4.8426   7.2109   7.2109   7.2163   7.2163
    10.2420  10.2420  10.2444  10.2444  11.2287  11.2287  11.2382  11.2382
    11.8468  11.8468  11.8503  11.8503  12.3615  12.3615  12.3709  12.3709
    13.3620  13.3620  13.3695  13.3695  13.6053  13.6053  13.6133  13.6133
    14.0920  14.0920  14.0980  14.0980  14.6425  14.6425  14.6675  14.6675
    14.9948  14.9948  15.0067  15.0067  15.5346  15.5346  15.5613  15.5613
    16.3968  16.3968  16.4078  16.4078  17.2617  17.2649

     occupation numbers 
     1.0000   1.0000   1.0000   1.0000   1.0000   1.0000   1.0000   1.0000
     1.0000   1.0000   1.0000   1.0000   1.0000   1.0000   1.0000   1.0000
     1.0000   1.0000   1.0000   1.0000   1.0000   1.0000   1.0000   1.0000
     1.0000   1.0000   1.0000   1.0000   1.0000   1.0000   1.0000   1.0000
     1.0000   1.0000   1.0000   1.0000   1.0000   1.0000   1.0000   1.0000
     1.0000   1.0000   1.0000   1.0000   1.0000   1.0000   1.0000   1.0000
     1.0000   1.0000   1.0000   1.0000   1.0000   1.0000   1.0000   1.0000
     1.0000   1.0000   1.0000   1.0000   1.0000   1.0000   1.0000   1.0000
     1.0000   1.0000   1.0000   1.0000   1.0000   1.0000   1.0000   1.0000
     0.0910   0.0910   0.0114   0.0114  -0.0000  -0.0000  -0.0000  -0.0000
    -0.0000  -0.0000  -0.0000  -0.0000  -0.0000  -0.0000

          k = 0.0000 0.4000 0.4000 (  9636 PWs)   bands (ev):

   -56.5014 -56.5014 -56.4979 -56.4979 -56.4818 -56.4818 -56.4804 -56.4804
   -28.5828 -28.5799 -28.5763 -28.5755 -28.5391 -28.5375 -28.5286 -28.5277
   -27.6231 -27.6230 -27.5927 -27.5898 -27.5516 -27.5479 -27.5383 -27.5300
   -27.5291 -27.5090 -27.5070 -27.4986 -27.4475 -27.4406 -27.4336 -27.4311
     4.7281   4.7288   5.4693   5.4705   6.5220   6.5236   7.1471   7.1497
    10.3760  10.3764  10.5508  10.5517  10.9049  10.9053  11.2351  11.2385
    11.6914  11.6922  11.9443  11.9496  12.2654  12.2659  12.3946  12.4009
    13.2696  13.2765  13.3812  13.3818  13.7469  13.7487  13.8775  13.8823
    14.1456  14.1541  14.2001  14.2057  14.5513  14.5596  14.6731  14.6915
    14.8202  14.8365  14.9026  14.9269  15.4528  15.4689  15.4745  15.4980
    16.3833  16.3948  16.5292  16.5344  17.0550  17.0727

     occupation numbers 
     1.0000   1.0000   1.0000   1.0000   1.0000   1.0000   1.0000   1.0000
     1.0000   1.0000   1.0000   1.0000   1.0000   1.0000   1.0000   1.0000
     1.0000   1.0000   1.0000   1.0000   1.0000   1.0000   1.0000   1.0000
     1.0000   1.0000   1.0000   1.0000   1.0000   1.0000   1.0000   1.0000
     1.0000   1.0000   1.0000   1.0000   1.0000   1.0000   1.0000   1.0000
     1.0000   1.0000   1.0000   1.0000   1.0000   1.0000   1.0000   1.0000
     1.0000   1.0000   1.0000   1.0000   1.0000   1.0000   1.0000   1.0000
     1.0000   1.0000   1.0000   1.0000   1.0000   1.0000   1.0000   1.0000
     1.0000   1.0000   1.0000   1.0000   1.0000   1.0000   1.0000   1.0000
     1.0006   1.0024   1.0335   0.9492  -0.0000  -0.0000  -0.0000  -0.0000
    -0.0000  -0.0000  -0.0000  -0.0000  -0.0000  -0.0000

          k = 0.0000 0.4000-0.5000 (  9646 PWs)   bands (ev):

   -56.4994 -56.4994 -56.4994 -56.4994 -56.4814 -56.4814 -56.4814 -56.4814
   -28.5793 -28.5793 -28.5762 -28.5762 -28.5354 -28.5354 -28.5331 -28.5331
   -27.6191 -27.6191 -27.5960 -27.5960 -27.5464 -27.5464 -27.5355 -27.5355
   -27.5198 -27.5198 -27.5056 -27.5056 -27.4416 -27.4416 -27.4325 -27.4325
     5.1726   5.1726   5.1740   5.1740   6.6928   6.6928   6.6963   6.6963
    10.5220  10.5220  10.5230  10.5230  11.2415  11.2415  11.2499  11.2499
    11.5666  11.5666  11.5756  11.5756  12.2999  12.2999  12.3037  12.3037
    13.3624  13.3624  13.3671  13.3671  13.8269  13.8269  13.8361  13.8361
    14.3262  14.3262  14.3298  14.3298  14.4963  14.4963  14.5044  14.5044
    14.8519  14.8519  14.8718  14.8718  15.4388  15.4388  15.4551  15.4551
    16.5206  16.5206  16.5299  16.5299  17.0699  17.0711

     occupation numbers 
     1.0000   1.0000   1.0000   1.0000   1.0000   1.0000   1.0000   1.0000
     1.0000   1.0000   1.0000   1.0000   1.0000   1.0000   1.0000   1.0000
     1.0000   1.0000   1.0000   1.0000   1.0000   1.0000   1.0000   1.0000
     1.0000   1.0000   1.0000   1.0000   1.0000   1.0000   1.0000   1.0000
     1.0000   1.0000   1.0000   1.0000   1.0000   1.0000   1.0000   1.0000
     1.0000   1.0000   1.0000   1.0000   1.0000   1.0000   1.0000   1.0000
     1.0000   1.0000   1.0000   1.0000   1.0000   1.0000   1.0000   1.0000
     1.0000   1.0000   1.0000   1.0000   1.0000   1.0000   1.0000   1.0000
     1.0000   1.0000   1.0000   1.0000   1.0000   1.0000   1.0000   1.0000
     1.0068   1.0068   1.0193   1.0193  -0.0000  -0.0000  -0.0000  -0.0000
    -0.0000  -0.0000  -0.0000  -0.0000  -0.0000  -0.0000

          k = 0.0000-0.5000-0.5000 (  9580 PWs)   bands (ev):

   -56.4989 -56.4989 -56.4989 -56.4989 -56.4818 -56.4818 -56.4818 -56.4818
   -28.5765 -28.5765 -28.5765 -28.5765 -28.5357 -28.5357 -28.5357 -28.5357
   -27.6078 -27.6078 -27.6078 -27.6078 -27.5392 -27.5392 -27.5392 -27.5392
   -27.5154 -27.5154 -27.5154 -27.5154 -27.4357 -27.4357 -27.4357 -27.4357
     5.3720   5.3720   5.3720   5.3720   6.4280   6.4280   6.4280   6.4280
    10.7057  10.7057  10.7057  10.7057  11.2420  11.2420  11.2420  11.2420
    11.3850  11.3850  11.3850  11.3850  12.2846  12.2846  12.2846  12.2846
    13.3605  13.3605  13.3605  13.3605  14.0066  14.0066  14.0066  14.0066
    14.2912  14.2912  14.2912  14.2912  14.5255  14.5255  14.5255  14.5255
    14.7582  14.7582  14.7582  14.7582  15.4146  15.4146  15.4146  15.4146
    16.5873  16.5873  16.5873  16.5873  16.9823  16.9823

     occupation numbers 
     1.0000   1.0000   1.0000   1.0000   1.0000   1.0000   1.0000   1.0000
     1.0000   1.0000   1.0000   1.0000   1.0000   1.0000   1.0000   1.0000
     1.0000   1.0000   1.0000   1.0000   1.0000   1.0000   1.0000   1.0000
     1.0000   1.0000   1.0000   1.0000   1.0000   1.0000   1.0000   1.0000
     1.0000   1.0000   1.0000   1.0000   1.0000   1.0000   1.0000   1.0000
     1.0000   1.0000   1.0000   1.0000   1.0000   1.0000   1.0000   1.0000
     1.0000   1.0000   1.0000   1.0000   1.0000   1.0000   1.0000   1.0000
     1.0000   1.0000   1.0000   1.0000   1.0000   1.0000   1.0000   1.0000
     1.0000   1.0000   1.0000   1.0000   1.0000   1.0000   1.0000   1.0000
     1.0000   1.0000   1.0000   1.0000  -0.0000  -0.0000  -0.0000  -0.0000
    -0.0000  -0.0000  -0.0000  -0.0000  -0.0000  -0.0000

          k = 0.1000 0.1000 0.1000 (  9669 PWs)   bands (ev):

   -56.5145 -56.5145 -56.4869 -56.4869 -56.4819 -56.4819 -56.4782 -56.4782
   -28.5905 -28.5840 -28.5766 -28.5752 -28.5661 -28.5616 -28.4905 -28.4905
   -27.6321 -27.6310 -27.6018 -27.5985 -27.5521 -27.5453 -27.5434 -27.5417
   -27.5271 -27.5129 -27.4649 -27.4579 -27.4547 -27.4518 -27.4436 -27.4404
     2.9064   2.9064   6.7167   6.7232   7.2688   7.2750   8.1858   8.1907
     9.9889   9.9945  10.6188  10.6195  10.8718  10.8719  11.1921  11.1974
    11.9282  11.9293  12.3623  12.3757  12.6874  12.6887  12.8056  12.8139
    13.0086  13.0093  13.1656  13.1660  13.2126  13.2177  13.2392  13.2425
    13.4567  13.4604  13.6788  13.6825  13.9960  14.0011  15.3600  15.3642
    15.4268  15.4281  15.6203  15.6257  15.6855  15.6983  15.7997  15.8092
    16.3818  16.4016  16.6661  16.6722  16.9090  16.9404

     occupation numbers 
     1.0000   1.0000   1.0000   1.0000   1.0000   1.0000   1.0000   1.0000
     1.0000   1.0000   1.0000   1.0000   1.0000   1.0000   1.0000   1.0000
     1.0000   1.0000   1.0000   1.0000   1.0000   1.0000   1.0000   1.0000
     1.0000   1.0000   1.0000   1.0000   1.0000   1.0000   1.0000   1.0000
     1.0000   1.0000   1.0000   1.0000   1.0000   1.0000   1.0000   1.0000
     1.0000   1.0000   1.0000   1.0000   1.0000   1.0000   1.0000   1.0000
     1.0000   1.0000   1.0000   1.0000   1.0000   1.0000   1.0000   1.0000
     1.0000   1.0000   1.0000   1.0000   1.0000   1.0000   1.0000   1.0000
     1.0000   1.0000   1.0000   1.0000   1.0000   1.0000  -0.0000  -0.0000
    -0.0000  -0.0000  -0.0000  -0.0000  -0.0000  -0.0000  -0.0000  -0.0000
    -0.0000  -0.0000  -0.0000  -0.0000  -0.0000  -0.0000

          k = 0.1000 0.1000 0.2000 (  9653 PWs)   bands (ev):

   -56.5127 -56.5127 -56.4895 -56.4895 -56.4817 -56.4817 -56.4776 -56.4776
   -28.5920 -28.5858 -28.5767 -28.5763 -28.5596 -28.5555 -28.4957 -28.4955
   -27.6367 -27.6321 -27.5956 -27.5897 -27.5552 -27.5498 -27.5435 -27.5419
   -27.5240 -27.5043 -27.4729 -27.4623 -27.4573 -27.4537 -27.4411 -27.4379
     3.1108   3.1108   6.3285   6.3325   7.2722   7.2766   8.3626   8.3676
     9.8302   9.8335  10.5511  10.5534  10.6970  10.7000  11.3545  11.3594
    11.8173  11.8218  12.3555  12.3583  12.7047  12.7084  12.9594  12.9605
    13.0691  13.0770  13.1328  13.1362  13.2678  13.2724  13.3447  13.3573
    13.5124  13.5274  13.7240  13.7332  14.0851  14.0923  15.2029  15.2263
    15.3330  15.3476  15.5450  15.5585  15.6457  15.6619  15.8237  15.8413
    16.2725  16.2906  16.5963  16.6081  17.0414  17.0746

     occupation numbers 
     1.0000   1.0000   1.0000   1.0000   1.0000   1.0000   1.0000   1.0000
     1.0000   1.0000   1.0000   1.0000   1.0000   1.0000   1.0000   1.0000
     1.0000   1.0000   1.0000   1.0000   1.0000   1.0000   1.0000   1.0000
     1.0000   1.0000   1.0000   1.0000   1.0000   1.0000   1.0000   1.0000
     1.0000   1.0000   1.0000   1.0000   1.0000   1.0000   1.0000   1.0000
     1.0000   1.0000   1.0000   1.0000   1.0000   1.0000   1.0000   1.0000
     1.0000   1.0000   1.0000   1.0000   1.0000   1.0000   1.0000   1.0000
     1.0000   1.0000   1.0000   1.0000   1.0000   1.0000   1.0000   1.0000
     1.0000   1.0000   1.0000   1.0000   1.0000   1.0000  -0.0000  -0.0000
    -0.0000  -0.0000  -0.0000  -0.0000  -0.0000  -0.0000  -0.0000  -0.0000
    -0.0000  -0.0000  -0.0000  -0.0000  -0.0000  -0.0000

          k = 0.1000 0.1000 0.3000 (  9634 PWs)   bands (ev):

   -56.5099 -56.5099 -56.4933 -56.4933 -56.4809 -56.4809 -56.4774 -56.4774
   -28.5923 -28.5864 -28.5798 -28.5778 -28.5497 -28.5465 -28.5039 -28.5034
   -27.6399 -27.6338 -27.5872 -27.5816 -27.5613 -27.5496 -27.5453 -27.5372
   -27.5246 -27.4955 -27.4817 -27.4663 -27.4609 -27.4559 -27.4394 -27.4364
     3.4445   3.4446   5.7265   5.7282   7.4473   7.4496   8.4625   8.4680
     9.6444   9.6455  10.3745  10.3790  10.8189  10.8226  11.3613  11.3659
    11.7650  11.7660  12.2468  12.2547  12.7656  12.7689  13.0163  13.0245
    13.0581  13.0647  13.1621  13.1674  13.3262  13.3299  13.3859  13.3923
    13.5960  13.5989  13.9084  13.9178  14.1571  14.1620  14.9664  14.9966
    15.2966  15.3107  15.4371  15.4521  15.6374  15.6584  15.8280  15.8500
    16.1782  16.1924  16.4656  16.4806  17.1984  17.2276

     occupation numbers 
     1.0000   1.0000   1.0000   1.0000   1.0000   1.0000   1.0000   1.0000
     1.0000   1.0000   1.0000   1.0000   1.0000   1.0000   1.0000   1.0000
     1.0000   1.0000   1.0000   1.0000   1.0000   1.0000   1.0000   1.0000
     1.0000   1.0000   1.0000   1.0000   1.0000   1.0000   1.0000   1.0000
     1.0000   1.0000   1.0000   1.0000   1.0000   1.0000   1.0000   1.0000
     1.0000   1.0000   1.0000   1.0000   1.0000   1.0000   1.0000   1.0000
     1.0000   1.0000   1.0000   1.0000   1.0000   1.0000   1.0000   1.0000
     1.0000   1.0000   1.0000   1.0000   1.0000   1.0000   1.0000   1.0000
     1.0000   1.0000   1.0000   1.0000   1.0000   1.0000   0.4537   0.0756
    -0.0000  -0.0000  -0.0000  -0.0000  -0.0000  -0.0000  -0.0000  -0.0000
    -0.0000  -0.0000  -0.0000  -0.0000  -0.0000  -0.0000

          k = 0.1000 0.1000 0.4000 (  9660 PWs)   bands (ev):

   -56.5062 -56.5062 -56.4975 -56.4975 -56.4798 -56.4798 -56.4779 -56.4779
   -28.5910 -28.5865 -28.5827 -28.5802 -28.5381 -28.5358 -28.5142 -28.5133
   -27.6406 -27.6364 -27.5791 -27.5735 -27.5677 -27.5529 -27.5440 -27.5323
   -27.5235 -27.4981 -27.4819 -27.4694 -27.4630 -27.4591 -27.4381 -27.4363
     3.8962   3.8964   5.0732   5.0740   7.7155   7.7178   8.3340   8.3388
     9.6764   9.6778  10.1908  10.1946  10.9271  10.9311  11.2412  11.2475
    11.8796  11.8840  12.2197  12.2235  12.7270  12.7302  12.9292  12.9368
    13.0622  13.0691  13.2314  13.2372  13.3066  13.3084  13.3793  13.3853
    13.6674  13.6706  13.9453  13.9512  14.3711  14.3923  14.7827  14.8166
    15.2797  15.2958  15.3465  15.3620  15.6650  15.6878  15.7911  15.8155
    16.1490  16.1584  16.3234  16.3373  17.3632  17.3809

     occupation numbers 
     1.0000   1.0000   1.0000   1.0000   1.0000   1.0000   1.0000   1.0000
     1.0000   1.0000   1.0000   1.0000   1.0000   1.0000   1.0000   1.0000
     1.0000   1.0000   1.0000   1.0000   1.0000   1.0000   1.0000   1.0000
     1.0000   1.0000   1.0000   1.0000   1.0000   1.0000   1.0000   1.0000
     1.0000   1.0000   1.0000   1.0000   1.0000   1.0000   1.0000   1.0000
     1.0000   1.0000   1.0000   1.0000   1.0000   1.0000   1.0000   1.0000
     1.0000   1.0000   1.0000   1.0000   1.0000   1.0000   1.0000   1.0000
     1.0000   1.0000   1.0000   1.0000   1.0000   1.0000   1.0000   1.0000
     1.0000   1.0000   1.0000   1.0000   1.0000   1.0000   1.0000   1.0005
    -0.0000  -0.0000  -0.0000  -0.0000  -0.0000  -0.0000  -0.0000  -0.0000
    -0.0000  -0.0000  -0.0000  -0.0000  -0.0000  -0.0000

          k = 0.1000 0.1000-0.5000 (  9662 PWs)   bands (ev):

   -56.5020 -56.5020 -56.5020 -56.5020 -56.4788 -56.4788 -56.4788 -56.4788
   -28.5885 -28.5885 -28.5824 -28.5824 -28.5265 -28.5265 -28.5239 -28.5239
   -27.6391 -27.6391 -27.5735 -27.5735 -27.5626 -27.5626 -27.5378 -27.5378
   -27.5110 -27.5110 -27.4747 -27.4747 -27.4619 -27.4619 -27.4370 -27.4370
     4.4482   4.4482   4.4487   4.4487   8.0331   8.0331   8.0394   8.0394
     9.9194   9.9194   9.9221   9.9221  11.0692  11.0692  11.0798  11.0798
    12.1013  12.1013  12.1055  12.1055  12.7593  12.7593  12.7725  12.7725
    13.1687  13.1687  13.1754  13.1754  13.3249  13.3249  13.3277  13.3277
    13.8210  13.8210  13.8259  13.8259  14.6066  14.6066  14.6375  14.6375
    15.2928  15.2928  15.3116  15.3116  15.7251  15.7251  15.7528  15.7528
    16.2036  16.2036  16.2145  16.2145  17.6017  17.6047

     occupation numbers 
     1.0000   1.0000   1.0000   1.0000   1.0000   1.0000   1.0000   1.0000
     1.0000   1.0000   1.0000   1.0000   1.0000   1.0000   1.0000   1.0000
     1.0000   1.0000   1.0000   1.0000   1.0000   1.0000   1.0000   1.0000
     1.0000   1.0000   1.0000   1.0000   1.0000   1.0000   1.0000   1.0000
     1.0000   1.0000   1.0000   1.0000   1.0000   1.0000   1.0000   1.0000
     1.0000   1.0000   1.0000   1.0000   1.0000   1.0000   1.0000   1.0000
     1.0000   1.0000   1.0000   1.0000   1.0000   1.0000   1.0000   1.0000
     1.0000   1.0000   1.0000   1.0000   1.0000   1.0000   1.0000   1.0000
     1.0000   1.0000   1.0000   1.0000   1.0000   1.0000   1.0000   1.0000
    -0.0000  -0.0000  -0.0000  -0.0000  -0.0000  -0.0000  -0.0000  -0.0000
    -0.0000  -0.0000  -0.0000  -0.0000  -0.0000  -0.0000

          k = 0.1000 0.2000 0.2000 (  9644 PWs)   bands (ev):

   -56.5110 -56.5110 -56.4909 -56.4909 -56.4821 -56.4821 -56.4774 -56.4774
   -28.5922 -28.5864 -28.5754 -28.5752 -28.5566 -28.5524 -28.5007 -28.5003
   -27.6363 -27.6332 -27.5910 -27.5844 -27.5548 -27.5539 -27.5459 -27.5434
   -27.5205 -27.4989 -27.4798 -27.4658 -27.4624 -27.4530 -27.4381 -27.4357
     3.3122   3.3123   6.2300   6.2350   7.0573   7.0637   8.3959   8.3996
     9.6898   9.6922  10.4534  10.4561  10.6338  10.6364  11.4239  11.4290
    11.8993  11.9027  12.3330  12.3373  12.6661  12.6727  13.0038  13.0062
    13.0638  13.0711  13.1651  13.1698  13.2552  13.2605  13.4812  13.4921
    13.5992  13.6082  13.8294  13.8385  14.1573  14.1646  15.1586  15.1764
    15.2414  15.2600  15.4231  15.4350  15.5765  15.5920  15.7940  15.8128
    16.2055  16.2212  16.5742  16.5864  17.0895  17.1297

     occupation numbers 
     1.0000   1.0000   1.0000   1.0000   1.0000   1.0000   1.0000   1.0000
     1.0000   1.0000   1.0000   1.0000   1.0000   1.0000   1.0000   1.0000
     1.0000   1.0000   1.0000   1.0000   1.0000   1.0000   1.0000   1.0000
     1.0000   1.0000   1.0000   1.0000   1.0000   1.0000   1.0000   1.0000
     1.0000   1.0000   1.0000   1.0000   1.0000   1.0000   1.0000   1.0000
     1.0000   1.0000   1.0000   1.0000   1.0000   1.0000   1.0000   1.0000
     1.0000   1.0000   1.0000   1.0000   1.0000   1.0000   1.0000   1.0000
     1.0000   1.0000   1.0000   1.0000   1.0000   1.0000   1.0000   1.0000
     1.0000   1.0000   1.0000   1.0000   1.0000   1.0000  -0.0000  -0.0000
    -0.0000  -0.0000  -0.0000  -0.0000  -0.0000  -0.0000  -0.0000  -0.0000
    -0.0000  -0.0000  -0.0000  -0.0000  -0.0000  -0.0000

          k = 0.1000 0.2000 0.3000 (  9631 PWs)   bands (ev):

   -56.5084 -56.5084 -56.4936 -56.4936 -56.4817 -56.4817 -56.4777 -56.4777
   -28.5913 -28.5860 -28.5770 -28.5757 -28.5495 -28.5462 -28.5082 -28.5077
   -27.6368 -27.6328 -27.5856 -27.5785 -27.5613 -27.5528 -27.5466 -27.5400
   -27.5210 -27.4977 -27.4835 -27.4704 -27.4660 -27.4528 -27.4363 -27.4339
     3.6407   3.6409   5.8143   5.8172   7.0981   7.1025   8.3493   8.3526
     9.5031   9.5053  10.3405  10.3433  10.7927  10.7973  11.5156  11.5206
    11.8104  11.8164  12.2470  12.2496  12.5915  12.5997  12.9280  12.9355
    13.1502  13.1606  13.2092  13.2141  13.3130  13.3192  13.5190  13.5236
    13.7288  13.7339  13.9817  13.9908  14.2721  14.2817  14.9770  15.0020
    15.1784  15.1967  15.2999  15.3105  15.5576  15.5741  15.7516  15.7756
    16.1612  16.1723  16.4930  16.5061  17.1715  17.2089

     occupation numbers 
     1.0000   1.0000   1.0000   1.0000   1.0000   1.0000   1.0000   1.0000
     1.0000   1.0000   1.0000   1.0000   1.0000   1.0000   1.0000   1.0000
     1.0000   1.0000   1.0000   1.0000   1.0000   1.0000   1.0000   1.0000
     1.0000   1.0000   1.0000   1.0000   1.0000   1.0000   1.0000   1.0000
     1.0000   1.0000   1.0000   1.0000   1.0000   1.0000   1.0000   1.0000
     1.0000   1.0000   1.0000   1.0000   1.0000   1.0000   1.0000   1.0000
     1.0000   1.0000   1.0000   1.0000   1.0000   1.0000   1.0000   1.0000
     1.0000   1.0000   1.0000   1.0000   1.0000   1.0000   1.0000   1.0000
     1.0000   1.0000   1.0000   1.0000   1.0000   1.0000   0.2963   0.0371
    -0.0000  -0.0000  -0.0000  -0.0000  -0.0000  -0.0000  -0.0000  -0.0000
    -0.0000  -0.0000  -0.0000  -0.0000  -0.0000  -0.0000

          k = 0.1000 0.2000 0.4000 (  9656 PWs)   bands (ev):

   -56.5050 -56.5050 -56.4972 -56.4972 -56.4808 -56.4808 -56.4785 -56.4785
   -28.5891 -28.5849 -28.5800 -28.5778 -28.5397 -28.5375 -28.5178 -28.5170
   -27.6362 -27.6331 -27.5807 -27.5732 -27.5668 -27.5556 -27.5431 -27.5324
   -27.5244 -27.5053 -27.4821 -27.4751 -27.4639 -27.4550 -27.4348 -27.4332
     4.0841   4.0845   5.2225   5.2239   7.3549   7.3577   8.0850   8.0877
     9.5721   9.5735  10.1180  10.1203  11.0718  11.0770  11.5568  11.5630
    11.7332  11.7355  12.0997  12.1024  12.5617  12.5709  12.7856  12.7936
    13.1889  13.1967  13.2798  13.2848  13.3626  13.3669  13.5198  13.5260
    13.7981  13.8043  14.0209  14.0295  14.4751  14.5021  14.8019  14.8334
    15.1533  15.1676  15.2076  15.2140  15.5800  15.5994  15.6964  15.7227
    16.1849  16.1915  16.3893  16.4020  17.2751  17.2983

     occupation numbers 
     1.0000   1.0000   1.0000   1.0000   1.0000   1.0000   1.0000   1.0000
     1.0000   1.0000   1.0000   1.0000   1.0000   1.0000   1.0000   1.0000
     1.0000   1.0000   1.0000   1.0000   1.0000   1.0000   1.0000   1.0000
     1.0000   1.0000   1.0000   1.0000   1.0000   1.0000   1.0000   1.0000
     1.0000   1.0000   1.0000   1.0000   1.0000   1.0000   1.0000   1.0000
     1.0000   1.0000   1.0000   1.0000   1.0000   1.0000   1.0000   1.0000
     1.0000   1.0000   1.0000   1.0000   1.0000   1.0000   1.0000   1.0000
     1.0000   1.0000   1.0000   1.0000   1.0000   1.0000   1.0000   1.0000
[...]
    11.8846  11.8846  11.8885  11.8885  12.3764  12.3764  12.3839  12.3839
    13.2696  13.2696  13.2745  13.2745  13.8511  13.8511  13.8641  13.8641
    14.2100  14.2100  14.2170  14.2170  14.6455  14.6455  14.6729  14.6729
    14.8179  14.8179  14.8575  14.8575  15.4122  15.4122  15.4268  15.4268
    16.4543  16.4543  16.4656  16.4656  17.1045  17.1068

     occupation numbers 
     1.0000   1.0000   1.0000   1.0000   1.0000   1.0000   1.0000   1.0000
     1.0000   1.0000   1.0000   1.0000   1.0000   1.0000   1.0000   1.0000
     1.0000   1.0000   1.0000   1.0000   1.0000   1.0000   1.0000   1.0000
     1.0000   1.0000   1.0000   1.0000   1.0000   1.0000   1.0000   1.0000
     1.0000   1.0000   1.0000   1.0000   1.0000   1.0000   1.0000   1.0000
     1.0000   1.0000   1.0000   1.0000   1.0000   1.0000   1.0000   1.0000
     1.0000   1.0000   1.0000   1.0000   1.0000   1.0000   1.0000   1.0000
     1.0000   1.0000   1.0000   1.0000   1.0000   1.0000   1.0000   1.0000
     1.0000   1.0000   1.0000   1.0000   1.0000   1.0000   1.0000   1.0000
     1.0005   1.0005   1.0095   1.0095  -0.0000  -0.0000  -0.0000  -0.0000
    -0.0000  -0.0000  -0.0000  -0.0000  -0.0000  -0.0000

          k =-0.2000 0.4000 0.3000 (  9651 PWs)   bands (ev):

   -56.5019 -56.5019 -56.4963 -56.4963 -56.4828 -56.4828 -56.4804 -56.4804
   -28.5837 -28.5802 -28.5743 -28.5730 -28.5435 -28.5411 -28.5271 -28.5256
   -27.6265 -27.6242 -27.5830 -27.5781 -27.5673 -27.5621 -27.5397 -27.5327
   -27.5240 -27.5151 -27.4834 -27.4770 -27.4607 -27.4532 -27.4339 -27.4315
     4.5654   4.5658   5.5674   5.5695   6.8875   6.8918   7.6194   7.6228
     9.1377   9.1412   9.7832   9.7866  11.0153  11.0178  11.5297  11.5315
    11.7529  11.7560  12.2097  12.2129  12.6684  12.6738  12.8316  12.8383
    13.1076  13.1140  13.1935  13.2059  13.4194  13.4258  13.6479  13.6594
    13.9715  13.9820  14.2843  14.2943  14.6199  14.6456  14.8153  14.8309
    14.9749  14.9917  15.1248  15.1535  15.3604  15.3656  15.5045  15.5179
    16.2473  16.2553  16.4032  16.4121  17.1299  17.1460

     occupation numbers 
     1.0000   1.0000   1.0000   1.0000   1.0000   1.0000   1.0000   1.0000
     1.0000   1.0000   1.0000   1.0000   1.0000   1.0000   1.0000   1.0000
     1.0000   1.0000   1.0000   1.0000   1.0000   1.0000   1.0000   1.0000
     1.0000   1.0000   1.0000   1.0000   1.0000   1.0000   1.0000   1.0000
     1.0000   1.0000   1.0000   1.0000   1.0000   1.0000   1.0000   1.0000
     1.0000   1.0000   1.0000   1.0000   1.0000   1.0000   1.0000   1.0000
     1.0000   1.0000   1.0000   1.0000   1.0000   1.0000   1.0000   1.0000
     1.0000   1.0000   1.0000   1.0000   1.0000   1.0000   1.0000   1.0000
     1.0000   1.0000   1.0000   1.0000   1.0000   1.0000   1.0004   1.0015
     0.3257   0.1195  -0.0001  -0.0000  -0.0000  -0.0000  -0.0000  -0.0000
    -0.0000  -0.0000  -0.0000  -0.0000  -0.0000  -0.0000

          k =-0.2000-0.5000 0.3000 (  9660 PWs)   bands (ev):

   -56.4990 -56.4990 -56.4990 -56.4990 -56.4818 -56.4818 -56.4818 -56.4818
   -28.5800 -28.5800 -28.5750 -28.5750 -28.5367 -28.5367 -28.5329 -28.5329
   -27.6239 -27.6239 -27.5814 -27.5814 -27.5654 -27.5654 -27.5335 -27.5335
   -27.5219 -27.5219 -27.4819 -27.4819 -27.4553 -27.4553 -27.4327 -27.4327
     5.0604   5.0604   5.0615   5.0615   7.2221   7.2221   7.2269   7.2269
     9.4399   9.4399   9.4432   9.4432  11.2333  11.2333  11.2362  11.2362
    11.9947  11.9947  12.0019  12.0019  12.7533  12.7533  12.7639  12.7639
    13.1378  13.1378  13.1484  13.1484  13.5462  13.5462  13.5559  13.5559
    14.1596  14.1596  14.1689  14.1689  14.7349  14.7349  14.7606  14.7606
    15.0211  15.0211  15.0461  15.0461  15.4227  15.4227  15.4393  15.4393
    16.3230  16.3230  16.3335  16.3335  17.2480  17.2538

     occupation numbers 
     1.0000   1.0000   1.0000   1.0000   1.0000   1.0000   1.0000   1.0000
     1.0000   1.0000   1.0000   1.0000   1.0000   1.0000   1.0000   1.0000
     1.0000   1.0000   1.0000   1.0000   1.0000   1.0000   1.0000   1.0000
     1.0000   1.0000   1.0000   1.0000   1.0000   1.0000   1.0000   1.0000
     1.0000   1.0000   1.0000   1.0000   1.0000   1.0000   1.0000   1.0000
     1.0000   1.0000   1.0000   1.0000   1.0000   1.0000   1.0000   1.0000
     1.0000   1.0000   1.0000   1.0000   1.0000   1.0000   1.0000   1.0000
     1.0000   1.0000   1.0000   1.0000   1.0000   1.0000   1.0000   1.0000
     1.0000   1.0000   1.0000   1.0000   1.0000   1.0000   1.0000   1.0000
    -0.0302  -0.0302  -0.0268  -0.0268  -0.0000  -0.0000  -0.0000  -0.0000
    -0.0000  -0.0000  -0.0000  -0.0000  -0.0000  -0.0000

          k =-0.2000-0.5000 0.4000 (  9638 PWs)   bands (ev):

   -56.4978 -56.4978 -56.4978 -56.4978 -56.4829 -56.4829 -56.4829 -56.4829
   -28.5759 -28.5759 -28.5728 -28.5728 -28.5398 -28.5398 -28.5371 -28.5371
   -27.6153 -27.6153 -27.5919 -27.5919 -27.5615 -27.5615 -27.5363 -27.5363
   -27.5179 -27.5179 -27.4895 -27.4895 -27.4482 -27.4482 -27.4348 -27.4348
     5.3785   5.3785   5.3799   5.3799   6.8023   6.8023   6.8060   6.8060
     9.5481   9.5481   9.5521   9.5521  10.9111  10.9111  10.9136  10.9136
    12.1980  12.1980  12.2060  12.2060  12.5664  12.5664  12.5763  12.5763
    13.1582  13.1582  13.1641  13.1641  13.6485  13.6485  13.6616  13.6616
    14.3386  14.3386  14.3444  14.3444  14.7475  14.7475  14.7713  14.7713
    14.9077  14.9077  14.9457  14.9457  15.3595  15.3595  15.3718  15.3718
    16.3979  16.3979  16.4076  16.4076  17.0251  17.0293

     occupation numbers 
     1.0000   1.0000   1.0000   1.0000   1.0000   1.0000   1.0000   1.0000
     1.0000   1.0000   1.0000   1.0000   1.0000   1.0000   1.0000   1.0000
     1.0000   1.0000   1.0000   1.0000   1.0000   1.0000   1.0000   1.0000
     1.0000   1.0000   1.0000   1.0000   1.0000   1.0000   1.0000   1.0000
     1.0000   1.0000   1.0000   1.0000   1.0000   1.0000   1.0000   1.0000
     1.0000   1.0000   1.0000   1.0000   1.0000   1.0000   1.0000   1.0000
     1.0000   1.0000   1.0000   1.0000   1.0000   1.0000   1.0000   1.0000
     1.0000   1.0000   1.0000   1.0000   1.0000   1.0000   1.0000   1.0000
     1.0000   1.0000   1.0000   1.0000   1.0000   1.0000   1.0000   1.0000
     1.0275   1.0275   0.7609   0.7609  -0.0000  -0.0000  -0.0000  -0.0000
    -0.0000  -0.0000  -0.0000  -0.0000  -0.0000  -0.0000

          k =-0.3000-0.5000 0.4000 (  9654 PWs)   bands (ev):

   -56.4961 -56.4961 -56.4961 -56.4961 -56.4847 -56.4847 -56.4846 -56.4846
   -28.5720 -28.5720 -28.5689 -28.5689 -28.5444 -28.5444 -28.5416 -28.5416
   -27.6104 -27.6104 -27.5889 -27.5889 -27.5713 -27.5713 -27.5420 -27.5420
   -27.5104 -27.5104 -27.4790 -27.4790 -27.4541 -27.4541 -27.4387 -27.4387
     5.6195   5.6195   5.6216   5.6216   6.8421   6.8421   6.8473   6.8473
     9.1179   9.1179   9.1236   9.1236  10.4442  10.4442  10.4474  10.4474
    12.4412  12.4412  12.4494  12.4494  12.7820  12.7820  12.7910  12.7910
    13.0784  13.0784  13.0879  13.0879  13.4287  13.4287  13.4398  13.4398
    14.5062  14.5062  14.5133  14.5133  14.8783  14.8783  14.9007  14.9007
    15.0311  15.0311  15.0639  15.0639  15.2839  15.2839  15.2996  15.2996
    16.3474  16.3474  16.3564  16.3564  16.8697  16.8755

     occupation numbers 
     1.0000   1.0000   1.0000   1.0000   1.0000   1.0000   1.0000   1.0000
     1.0000   1.0000   1.0000   1.0000   1.0000   1.0000   1.0000   1.0000
     1.0000   1.0000   1.0000   1.0000   1.0000   1.0000   1.0000   1.0000
     1.0000   1.0000   1.0000   1.0000   1.0000   1.0000   1.0000   1.0000
     1.0000   1.0000   1.0000   1.0000   1.0000   1.0000   1.0000   1.0000
     1.0000   1.0000   1.0000   1.0000   1.0000   1.0000   1.0000   1.0000
     1.0000   1.0000   1.0000   1.0000   1.0000   1.0000   1.0000   1.0000
     1.0000   1.0000   1.0000   1.0000   1.0000   1.0000   1.0000   1.0000
     1.0000   1.0000   1.0000   1.0000   1.0247   1.0247   1.0346   1.0346
    -0.0354  -0.0354  -0.0127  -0.0127  -0.0000  -0.0000  -0.0000  -0.0000
    -0.0000  -0.0000  -0.0000  -0.0000  -0.0000  -0.0000

     the Fermi energy is    14.9634 ev

!    total energy              =   -1180.35015433 Ry

     total all-electron energy =    -10727.810991 Ry
     estimated scf accuracy    <       0.00000051 Ry
     smearing contrib. (-TS)   =      -0.00008142 Ry
     internal energy E=F+TS    =   -1180.35007291 Ry

     The total energy is F=E-TS. E is the sum of the following terms:
     one-electron contribution =    -336.79909844 Ry
     hartree contribution      =     207.04436039 Ry
     xc contribution           =    -114.36259846 Ry
     ewald contribution        =    -496.51183961 Ry
     one-center paw contrib.   =    -439.72089679 Ry
      -> PAW hartree energy AE =     126.71715350 Ry
      -> PAW hartree energy PS =    -125.74979183 Ry
      -> PAW xc energy AE      =     -96.24006617 Ry
      -> PAW xc energy PS      =      20.93267747 Ry
      -> total E_H with PAW    =     208.01172206 Ry
      -> total E_XC with PAW   =    -189.66998716 Ry

     convergence has been achieved in   8 iterations

     Forces acting on atoms (cartesian axes, Ry/au):

     atom    1 type  1   force =    -0.00274993   -0.00274993    0.00274993
     atom    2 type  1   force =    -0.00274993    0.00274993   -0.00274993
     atom    3 type  1   force =     0.00274993   -0.00274993   -0.00274993
     atom    4 type  1   force =     0.00274993    0.00274993    0.00274993
     atom    5 type  2   force =    -0.00447102   -0.00447102    0.00447102
     atom    6 type  2   force =    -0.00447102    0.00447102   -0.00447102
     atom    7 type  2   force =     0.00447102   -0.00447102   -0.00447102
     atom    8 type  2   force =     0.00447102    0.00447102    0.00447102
     The non-local contrib.  to forces
     atom    1 type  1   force =     0.05122783    0.05122783   -0.05122783
     atom    2 type  1   force =     0.05122783   -0.05122783    0.05122783
     atom    3 type  1   force =    -0.05122783    0.05122783    0.05122783
     atom    4 type  1   force =    -0.05122783   -0.05122783   -0.05122783
     atom    5 type  2   force =    -0.00814303   -0.00814303    0.00814303
     atom    6 type  2   force =    -0.00814303    0.00814303   -0.00814303
     atom    7 type  2   force =     0.00814303   -0.00814303   -0.00814303
     atom    8 type  2   force =     0.00814303    0.00814303    0.00814303
     The ionic contribution  to forces
     atom    1 type  1   force =    -0.85044630   -0.85044630    0.85044630
     atom    2 type  1   force =    -0.85044630    0.85044630   -0.85044630
     atom    3 type  1   force =     0.85044630   -0.85044630   -0.85044630
     atom    4 type  1   force =     0.85044630    0.85044630    0.85044630
     atom    5 type  2   force =    -0.24524978   -0.24524978    0.24524978
     atom    6 type  2   force =    -0.24524978    0.24524978   -0.24524978
     atom    7 type  2   force =     0.24524978   -0.24524978   -0.24524978
     atom    8 type  2   force =     0.24524978    0.24524978    0.24524978
     The local contribution  to forces
     atom    1 type  1   force =     0.79741422    0.79741422   -0.79741422
     atom    2 type  1   force =     0.79741422   -0.79741422    0.79741422
     atom    3 type  1   force =    -0.79741422    0.79741422    0.79741422
     atom    4 type  1   force =    -0.79741422   -0.79741422   -0.79741422
     atom    5 type  2   force =     0.24813332    0.24813332   -0.24813332
     atom    6 type  2   force =     0.24813332   -0.24813332    0.24813332
     atom    7 type  2   force =    -0.24813332    0.24813332    0.24813332
     atom    8 type  2   force =    -0.24813332   -0.24813332   -0.24813332
     The core correction contribution to forces
     atom    1 type  1   force =    -0.00103110   -0.00103110    0.00103110
     atom    2 type  1   force =    -0.00103110    0.00103110   -0.00103110
     atom    3 type  1   force =     0.00103110   -0.00103110   -0.00103110
     atom    4 type  1   force =     0.00103110    0.00103110    0.00103110
     atom    5 type  2   force =     0.00080157    0.00080157   -0.00080157
     atom    6 type  2   force =     0.00080157   -0.00080157    0.00080157
     atom    7 type  2   force =    -0.00080157    0.00080157    0.00080157
     atom    8 type  2   force =    -0.00080157   -0.00080157   -0.00080157
     The Hubbard contrib.    to forces
     atom    1 type  1   force =     0.00000000    0.00000000    0.00000000
     atom    2 type  1   force =     0.00000000    0.00000000    0.00000000
     atom    3 type  1   force =     0.00000000    0.00000000    0.00000000
     atom    4 type  1   force =     0.00000000    0.00000000    0.00000000
     atom    5 type  2   force =     0.00000000    0.00000000    0.00000000
     atom    6 type  2   force =     0.00000000    0.00000000    0.00000000
     atom    7 type  2   force =     0.00000000    0.00000000    0.00000000
     atom    8 type  2   force =     0.00000000    0.00000000    0.00000000
     The SCF correction term to forces
     atom    1 type  1   force =     0.00008542    0.00008542   -0.00008542
     atom    2 type  1   force =     0.00008542   -0.00008542    0.00008542
     atom    3 type  1   force =    -0.00008542    0.00008542    0.00008542
     atom    4 type  1   force =    -0.00008542   -0.00008542   -0.00008542
     atom    5 type  2   force =    -0.00001311   -0.00001311    0.00001311
     atom    6 type  2   force =    -0.00001311    0.00001311   -0.00001311
     atom    7 type  2   force =     0.00001311   -0.00001311   -0.00001311
     atom    8 type  2   force =     0.00001311    0.00001311    0.00001311

     Total force =     0.018183     Total SCF correction =     0.000299


     Computing stress (Cartesian axis) and pressure

          total   stress  (Ry/bohr**3)                   (kbar)     P=      -40.89
  -0.00027795   0.00000000   0.00000000          -40.89        0.00        0.00
   0.00000000  -0.00027795   0.00000000            0.00      -40.89        0.00
   0.00000000   0.00000000  -0.00027795            0.00        0.00      -40.89

     kinetic stress (kbar)  35760.01      0.00      0.00
                                0.00  35760.01      0.00
                                0.00      0.00  35760.01

     local   stress (kbar) -10012.52     -0.00     -0.00
                               -0.00 -10012.52     -0.00
                               -0.00     -0.00 -10012.52

     nonloc. stress (kbar)   2428.11      0.00      0.00
                                0.00   2428.11      0.00
                                0.00      0.00   2428.11

     hartree stress (kbar)  15167.42      0.00      0.00
                                0.00  15167.42     -0.00
                                0.00     -0.00  15167.42

     exc-cor stress (kbar)  -1706.63     -0.00      0.00
                               -0.00  -1706.63     -0.00
                                0.00     -0.00  -1706.63

     corecor stress (kbar)  -5304.38     -0.00      0.00
                               -0.00  -5304.38     -0.00
                                0.00     -0.00  -5304.38

     ewald   stress (kbar) -36372.90      0.00      0.00
                                0.00 -36372.90      0.00
                                0.00      0.00 -36372.90

     hubbard stress (kbar)      0.00      0.00      0.00
                                0.00      0.00      0.00
                                0.00      0.00      0.00

     DFT-D   stress (kbar)      0.00      0.00      0.00
                                0.00      0.00      0.00
                                0.00      0.00      0.00

     XDM     stress (kbar)      0.00      0.00      0.00
                                0.00      0.00      0.00
                                0.00      0.00      0.00

     dft-nl  stress (kbar)      0.00      0.00      0.00
                                0.00      0.00      0.00
                                0.00      0.00      0.00

     TS-vdW  stress (kbar)      0.00      0.00      0.00
                                0.00      0.00      0.00
                                0.00      0.00      0.00



     Writing output data file /zfs_data/vergnior/martin/Scratch/OAL/CrSi/convergence/smearing/10x10x10/0.004/tmp/CrSi.save/
 
     init_run     :     16.19s CPU     16.75s WALL (       1 calls)
     electrons    :    492.82s CPU    502.57s WALL (       1 calls)
     forces       :     14.62s CPU     14.76s WALL (       1 calls)
     stress       :     37.86s CPU     38.24s WALL (       1 calls)

     Called by init_run:
     wfcinit      :     14.73s CPU     15.07s WALL (       1 calls)
     wfcinit:atom :      0.12s CPU      0.13s WALL (      76 calls)
     wfcinit:wfcr :     14.07s CPU     14.40s WALL (      76 calls)
     potinit      :      0.24s CPU      0.34s WALL (       1 calls)
     hinit0       :      0.20s CPU      0.21s WALL (       1 calls)

     Called by electrons:
     c_bands      :    405.16s CPU    411.94s WALL (       9 calls)
     sum_band     :     81.13s CPU     83.28s WALL (       9 calls)
     v_of_rho     :      0.28s CPU      0.30s WALL (       9 calls)
     v_h          :      0.02s CPU      0.02s WALL (       9 calls)
     v_xc         :      0.32s CPU      0.34s WALL (      11 calls)
     newd         :      5.31s CPU      6.13s WALL (       9 calls)
     PAW_pot      :      1.39s CPU      1.42s WALL (       9 calls)
     mix_rho      :      0.17s CPU      0.17s WALL (       9 calls)

     Called by c_bands:
     init_us_2    :      2.44s CPU      2.50s WALL (    1596 calls)
     cegterg      :    374.83s CPU    381.02s WALL (     684 calls)

     Called by sum_band:
     sum_band:wei :      0.09s CPU      0.10s WALL (       9 calls)
     sum_band:loo :     76.91s CPU     78.00s WALL (       9 calls)
     sum_band:buf :      0.56s CPU      0.64s WALL (     684 calls)
     sum_band:ini :      1.06s CPU      1.07s WALL (     684 calls)
     sum_band:cal :      4.95s CPU      4.97s WALL (     684 calls)
     sum_band:bec :     10.30s CPU     10.34s WALL (     684 calls)
     addusdens    :      3.89s CPU      4.94s WALL (       9 calls)
     addusd:skk   :      0.01s CPU      0.01s WALL (      18 calls)
     addusd:dgemm :      1.54s CPU      2.55s WALL (      18 calls)
     addusd:qvan2 :      2.30s CPU      2.30s WALL (      18 calls)

     Called by *egterg:
     cdiaghg      :     30.69s CPU     30.83s WALL (    3767 calls)
     cegterg:over :     21.77s CPU     21.89s WALL (    3159 calls)
     cegterg:upda :      9.96s CPU     10.10s WALL (    3159 calls)
     cegterg:last :     18.85s CPU     18.94s WALL (    1987 calls)
     h_psi        :    263.06s CPU    268.73s WALL (    3919 calls)
     s_psi        :     34.45s CPU     34.58s WALL (    3919 calls)
     g_psi        :      0.62s CPU      0.63s WALL (    3159 calls)

     Called by h_psi:
     h_psi:calbec :     17.91s CPU     18.04s WALL (    3919 calls)
     vloc_psi     :    211.95s CPU    217.22s WALL (    3919 calls)
     add_vuspsi   :     31.70s CPU     31.95s WALL (    3919 calls)

     General routines
     calbec       :     25.29s CPU     25.46s WALL (    4983 calls)
     fft          :      0.32s CPU      0.32s WALL (     216 calls)
     ffts         :      0.04s CPU      0.12s WALL (      72 calls)
     fftw         :    167.41s CPU    171.38s WALL (  939560 calls)
     interpolate  :      0.08s CPU      0.17s WALL (      36 calls)
 
     Parallel routines
     fft_scatt_xy :     16.73s CPU     17.14s WALL (  939848 calls)
     fft_scatt_yz :     63.28s CPU     64.70s WALL (  939848 calls)

     PAW routines
     PAW_pot      :      1.39s CPU      1.42s WALL (       9 calls)
     PAW_symme    :      0.02s CPU      0.02s WALL (      18 calls)
 
     PWSCF        :   9m25.80s CPU   9m39.93s WALL

 
   This run was terminated on:  12:38:34   1Aug2021            

=------------------------------------------------------------------------------=
   JOB DONE.
=------------------------------------------------------------------------------=
