MPI startup(): Warning: I_MPI_PMI_LIBRARY will be ignored since the hydra process manager was found
MPI startup(): Warning: I_MPI_PMI_LIBRARY will be ignored since the hydra process manager was found
MPI startup(): Warning: I_MPI_PMI_LIBRARY will be ignored since the hydra process manager was found
MPI startup(): Warning: I_MPI_PMI_LIBRARY will be ignored since the hydra process manager was found
MPI startup(): Warning: I_MPI_PMI_LIBRARY will be ignored since the hydra process manager was found
MPI startup(): Warning: I_MPI_PMI_LIBRARY will be ignored since the hydra process manager was found
MPI startup(): Warning: I_MPI_PMI_LIBRARY will be ignored since the hydra process manager was found
MPI startup(): Warning: I_MPI_PMI_LIBRARY will be ignored since the hydra process manager was found
MPI startup(): Warning: I_MPI_PMI_LIBRARY will be ignored since the hydra process manager was found
MPI startup(): Warning: I_MPI_PMI_LIBRARY will be ignored since the hydra process manager was found
MPI startup(): Warning: I_MPI_PMI_LIBRARY will be ignored since the hydra process manager was found
MPI startup(): Warning: I_MPI_PMI_LIBRARY will be ignored since the hydra process manager was found
MPI startup(): Warning: I_MPI_PMI_LIBRARY will be ignored since the hydra process manager was found
MPI startup(): Warning: I_MPI_PMI_LIBRARY will be ignored since the hydra process manager was found
MPI startup(): Warning: I_MPI_PMI_LIBRARY will be ignored since the hydra process manager was found
MPI startup(): Warning: I_MPI_PMI_LIBRARY will be ignored since the hydra process manager was found
MPI startup(): Warning: I_MPI_PMI_LIBRARY will be ignored since the hydra process manager was found
MPI startup(): Warning: I_MPI_PMI_LIBRARY will be ignored since the hydra process manager was found
MPI startup(): Warning: I_MPI_PMI_LIBRARY will be ignored since the hydra process manager was found
MPI startup(): Warning: I_MPI_PMI_LIBRARY will be ignored since the hydra process manager was found
MPI startup(): Warning: I_MPI_PMI_LIBRARY will be ignored since the hydra process manager was found
MPI startup(): Warning: I_MPI_PMI_LIBRARY will be ignored since the hydra process manager was found
MPI startup(): Warning: I_MPI_PMI_LIBRARY will be ignored since the hydra process manager was found
MPI startup(): Warning: I_MPI_PMI_LIBRARY will be ignored since the hydra process manager was found

     Program PWSCF v.6.7MaX starts on 30Jul2021 at 18:50:31 

     This program is part of the open-source Quantum ESPRESSO suite
     for quantum simulation of materials; please cite
         "P. Giannozzi et al., J. Phys.:Condens. Matter 21 395502 (2009);
         "P. Giannozzi et al., J. Phys.:Condens. Matter 29 465901 (2017);
          URL http://www.quantum-espresso.org", 
     in publications or presentations arising from this work. More details at
     http://www.quantum-espresso.org/quote

     Parallel version (MPI), running on    24 processors

     MPI processes distributed on     1 nodes
     R & G space division:  proc/nbgrp/npool/nimage =      24
     Waiting for input...
     Reading input from standard input

     Current dimensions of program PWSCF are:
     Max number of different atomic species (ntypx) = 10
     Max number of k-points (npk) =  40000
     Max angular momentum in pseudopotentials (lmaxx) =  3
     file Cr.rel-pbe-spn-kjpaw_psl.1.0.0.UPF: wavefunction(s)  3S 3P 3P 3D 3D renormalized
     file Si.rel-pbe-n-kjpaw_psl.1.0.0.UPF: wavefunction(s)  3S 3P 3P renormalized

     Subspace diagonalization in iterative solution of the eigenvalue problem:
     a serial algorithm will be used

     Message from routine setup:
     using ibrav=0 with symmetry is DISCOURAGED, use correct ibrav instead
 
     Parallelization info
     --------------------
     sticks:   dense  smooth     PW     G-vecs:    dense   smooth      PW
     Min         304     122     33                19574     4958     725
     Max         305     123     34                19579     4961     732
     Sum        7305    2933    805               469825   119009   17461
 


     bravais-lattice index     =            0
     lattice parameter (alat)  =       8.7475  a.u.
     unit-cell volume          =     669.3575 (a.u.)^3
     number of atoms/cell      =            8
     number of atomic types    =            2
     number of electrons       =        72.00
     number of Kohn-Sham states=           86
     kinetic-energy cutoff     =     120.0000  Ry
     charge density cutoff     =    1200.0000  Ry
     scf convergence threshold =      1.0E-06
     mixing beta               =       0.7000
     number of iterations used =            8  plain     mixing
     Exchange-correlation= SLA  PW   PBX  PBC
                           (   1   4   3   4   0   0   0)
     Non magnetic calculation with spin-orbit


     celldm(1)=   8.747542  celldm(2)=   0.000000  celldm(3)=   0.000000
     celldm(4)=   0.000000  celldm(5)=   0.000000  celldm(6)=   0.000000

     crystal axes: (cart. coord. in units of alat)
               a(1) = (   1.000000   0.000000   0.000000 )  
               a(2) = (   0.000000   1.000000   0.000000 )  
               a(3) = (   0.000000   0.000000   1.000000 )  

     reciprocal axes: (cart. coord. in units 2 pi/alat)
               b(1) = (  1.000000  0.000000  0.000000 )  
               b(2) = (  0.000000  1.000000  0.000000 )  
               b(3) = (  0.000000  0.000000  1.000000 )  


     PseudoPot. # 1 for Cr read from file:
     ../../../../pseudo/Cr.rel-pbe-spn-kjpaw_psl.1.0.0.UPF
     MD5 check sum: 1e24e2b5251376a8b945118fca0c7981
     Pseudo is Projector augmented-wave + core cor, Zval = 14.0
     Generated using &quot;atomic&quot; code by A. Dal Corso  v.6.3
     Shape of augmentation charge: PSQ
     Using radial grid of 1183 points, 10 beta functions with: 
                l(1) =   0
                l(2) =   0
                l(3) =   1
                l(4) =   1
                l(5) =   1
                l(6) =   1
                l(7) =   2
                l(8) =   2
                l(9) =   2
               l(10) =   2
     Q(r) pseudized with 0 coefficients 


     PseudoPot. # 2 for Si read from file:
     ../../../../pseudo/Si.rel-pbe-n-kjpaw_psl.1.0.0.UPF
     MD5 check sum: d74f6caf6830ea4c2076867160cab1b0
     Pseudo is Projector augmented-wave + core cor, Zval =  4.0
     Generated using &quot;atomic&quot; code by A. Dal Corso  v.6.3
     Shape of augmentation charge: PSQ
     Using radial grid of 1141 points, 10 beta functions with: 
                l(1) =   0
                l(2) =   0
                l(3) =   1
                l(4) =   1
                l(5) =   1
                l(6) =   1
                l(7) =   2
                l(8) =   2
                l(9) =   2
               l(10) =   2
     Q(r) pseudized with 0 coefficients 


     atomic species   valence    mass     pseudopotential
        Cr            14.00    51.99600     Cr( 1.00)
        Si             4.00    28.08500     Si( 1.00)

     12 Sym. Ops. (no inversion) found ( 9 have fractional translation)


                                    s                        frac. trans.

      isym =  1     identity                                     

 cryst.   s( 1) = (     1          0          0      )
                  (     0          1          0      )
                  (     0          0          1      )

 cart.    s( 1) = (  1.0000000  0.0000000  0.0000000 )
                  (  0.0000000  1.0000000  0.0000000 )
                  (  0.0000000  0.0000000  1.0000000 )


      isym =  2     180 deg rotation - cart. axis [0,0,1]        

 cryst.   s( 2) = (    -1          0          0      )    f =(  0.5000000 )
                  (     0         -1          0      )       (  0.0000000 )
                  (     0          0          1      )       ( -0.5000000 )

 cart.    s( 2) = ( -1.0000000  0.0000000  0.0000000 )    f =(  0.5000000 )
                  (  0.0000000 -1.0000000  0.0000000 )       (  0.0000000 )
                  (  0.0000000  0.0000000  1.0000000 )       ( -0.5000000 )


      isym =  3     180 deg rotation - cart. axis [0,1,0]        

 cryst.   s( 3) = (    -1          0          0      )    f =(  0.0000000 )
                  (     0          1          0      )       ( -0.5000000 )
                  (     0          0         -1      )       (  0.5000000 )

 cart.    s( 3) = ( -1.0000000  0.0000000  0.0000000 )    f =(  0.0000000 )
                  (  0.0000000  1.0000000  0.0000000 )       ( -0.5000000 )
                  (  0.0000000  0.0000000 -1.0000000 )       (  0.5000000 )


      isym =  4     180 deg rotation - cart. axis [1,0,0]        

 cryst.   s( 4) = (     1          0          0      )    f =(  0.5000000 )
                  (     0         -1          0      )       (  0.5000000 )
                  (     0          0         -1      )       (  0.0000000 )

 cart.    s( 4) = (  1.0000000  0.0000000  0.0000000 )    f =(  0.5000000 )
                  (  0.0000000 -1.0000000  0.0000000 )       (  0.5000000 )
                  (  0.0000000  0.0000000 -1.0000000 )       (  0.0000000 )


      isym =  5     120 deg rotation - cart. axis [-1,-1,-1]     

 cryst.   s( 5) = (     0          0          1      )
                  (     1          0          0      )
                  (     0          1          0      )

 cart.    s( 5) = (  0.0000000  1.0000000  0.0000000 )
                  (  0.0000000  0.0000000  1.0000000 )
                  (  1.0000000  0.0000000  0.0000000 )


      isym =  6     120 deg rotation - cart. axis [-1,1,1]       

 cryst.   s( 6) = (     0          0         -1      )    f =(  0.0000000 )
                  (    -1          0          0      )       ( -0.5000000 )
                  (     0          1          0      )       (  0.5000000 )

 cart.    s( 6) = (  0.0000000 -1.0000000  0.0000000 )    f =(  0.0000000 )
                  (  0.0000000  0.0000000  1.0000000 )       ( -0.5000000 )
                  ( -1.0000000  0.0000000  0.0000000 )       (  0.5000000 )


      isym =  7     120 deg rotation - cart. axis [1,1,-1]       

 cryst.   s( 7) = (     0          0         -1      )    f =(  0.5000000 )
                  (     1          0          0      )       (  0.5000000 )
                  (     0         -1          0      )       (  0.0000000 )

 cart.    s( 7) = (  0.0000000  1.0000000  0.0000000 )    f =(  0.5000000 )
                  (  0.0000000  0.0000000 -1.0000000 )       (  0.5000000 )
                  ( -1.0000000  0.0000000  0.0000000 )       (  0.0000000 )


      isym =  8     120 deg rotation - cart. axis [1,-1,1]       

 cryst.   s( 8) = (     0          0          1      )    f =(  0.5000000 )
                  (    -1          0          0      )       (  0.0000000 )
                  (     0         -1          0      )       ( -0.5000000 )

 cart.    s( 8) = (  0.0000000 -1.0000000  0.0000000 )    f =(  0.5000000 )
                  (  0.0000000  0.0000000 -1.0000000 )       (  0.0000000 )
                  (  1.0000000  0.0000000  0.0000000 )       ( -0.5000000 )


      isym =  9     120 deg rotation - cart. axis [1,1,1]        

 cryst.   s( 9) = (     0          1          0      )
                  (     0          0          1      )
                  (     1          0          0      )

 cart.    s( 9) = (  0.0000000  0.0000000  1.0000000 )
                  (  1.0000000  0.0000000  0.0000000 )
                  (  0.0000000  1.0000000  0.0000000 )


      isym = 10     120 deg rotation - cart. axis [-1,1,-1]      

 cryst.   s(10) = (     0         -1          0      )    f =(  0.5000000 )
                  (     0          0         -1      )       (  0.5000000 )
                  (     1          0          0      )       (  0.0000000 )

 cart.    s(10) = (  0.0000000  0.0000000  1.0000000 )    f =(  0.5000000 )
                  ( -1.0000000  0.0000000  0.0000000 )       (  0.5000000 )
                  (  0.0000000 -1.0000000  0.0000000 )       (  0.0000000 )


      isym = 11     120 deg rotation - cart. axis [1,-1,-1]      

 cryst.   s(11) = (     0         -1          0      )    f =(  0.5000000 )
                  (     0          0          1      )       (  0.0000000 )
                  (    -1          0          0      )       ( -0.5000000 )

 cart.    s(11) = (  0.0000000  0.0000000 -1.0000000 )    f =(  0.5000000 )
                  ( -1.0000000  0.0000000  0.0000000 )       (  0.0000000 )
                  (  0.0000000  1.0000000  0.0000000 )       ( -0.5000000 )


      isym = 12     120 deg rotation - cart. axis [-1,-1,1]      

 cryst.   s(12) = (     0          1          0      )    f =(  0.0000000 )
                  (     0          0         -1      )       ( -0.5000000 )
                  (    -1          0          0      )       (  0.5000000 )

 cart.    s(12) = (  0.0000000  0.0000000 -1.0000000 )    f =(  0.0000000 )
                  (  1.0000000  0.0000000  0.0000000 )       ( -0.5000000 )
                  (  0.0000000 -1.0000000  0.0000000 )       (  0.5000000 )


   Cartesian axes

     site n.     atom                  positions (alat units)
         1           Cr  tau(   1) = (   0.8640000   0.3640000   0.1360000  )
         2           Cr  tau(   2) = (   0.3640000   0.1360000   0.8640000  )
         3           Cr  tau(   3) = (   0.1360000   0.8640000   0.3640000  )
         4           Cr  tau(   4) = (   0.6360000   0.6360000   0.6360000  )
         5           Si  tau(   5) = (   0.1540000   0.6540000   0.8460000  )
         6           Si  tau(   6) = (   0.6540000   0.8460000   0.1540000  )
         7           Si  tau(   7) = (   0.8460000   0.1540000   0.6540000  )
         8           Si  tau(   8) = (   0.3460000   0.3460000   0.3460000  )

   Crystallographic axes

     site n.     atom                  positions (cryst. coord.)
         1           Cr  tau(   1) = (  0.8640000  0.3640000  0.1360000  )
         2           Cr  tau(   2) = (  0.3640000  0.1360000  0.8640000  )
         3           Cr  tau(   3) = (  0.1360000  0.8640000  0.3640000  )
         4           Cr  tau(   4) = (  0.6360000  0.6360000  0.6360000  )
         5           Si  tau(   5) = (  0.1540000  0.6540000  0.8460000  )
         6           Si  tau(   6) = (  0.6540000  0.8460000  0.1540000  )
         7           Si  tau(   7) = (  0.8460000  0.1540000  0.6540000  )
         8           Si  tau(   8) = (  0.3460000  0.3460000  0.3460000  )

     number of k points=    45  Methfessel-Paxton smearing, width (Ry)=  0.0200
                       cart. coord. in units 2pi/alat
        k(    1) = (   0.0000000   0.0000000   0.0000000), wk =   0.0019531
        k(    2) = (   0.0000000   0.0000000   0.1250000), wk =   0.0117188
        k(    3) = (   0.0000000   0.0000000   0.2500000), wk =   0.0117188
        k(    4) = (   0.0000000   0.0000000   0.3750000), wk =   0.0117188
        k(    5) = (   0.0000000   0.0000000  -0.5000000), wk =   0.0058594
        k(    6) = (   0.0000000   0.1250000   0.1250000), wk =   0.0234375
        k(    7) = (   0.0000000   0.1250000   0.2500000), wk =   0.0234375
        k(    8) = (   0.0000000   0.1250000   0.3750000), wk =   0.0234375
        k(    9) = (   0.0000000   0.1250000  -0.5000000), wk =   0.0117188
        k(   10) = (   0.0000000   0.2500000   0.2500000), wk =   0.0234375
        k(   11) = (   0.0000000   0.2500000   0.3750000), wk =   0.0234375
        k(   12) = (   0.0000000   0.2500000  -0.5000000), wk =   0.0117188
        k(   13) = (   0.0000000   0.3750000   0.3750000), wk =   0.0234375
        k(   14) = (   0.0000000   0.3750000  -0.5000000), wk =   0.0117188
        k(   15) = (   0.0000000  -0.5000000  -0.5000000), wk =   0.0058594
        k(   16) = (   0.1250000   0.1250000   0.1250000), wk =   0.0156250
        k(   17) = (   0.1250000   0.1250000   0.2500000), wk =   0.0468750
        k(   18) = (   0.1250000   0.1250000   0.3750000), wk =   0.0468750
        k(   19) = (   0.1250000   0.1250000  -0.5000000), wk =   0.0234375
        k(   20) = (   0.1250000   0.2500000   0.2500000), wk =   0.0468750
        k(   21) = (   0.1250000   0.2500000   0.3750000), wk =   0.0468750
        k(   22) = (   0.1250000   0.2500000  -0.5000000), wk =   0.0234375
        k(   23) = (   0.1250000   0.3750000   0.3750000), wk =   0.0468750
        k(   24) = (   0.1250000   0.3750000  -0.5000000), wk =   0.0234375
        k(   25) = (   0.1250000  -0.5000000  -0.5000000), wk =   0.0117188
        k(   26) = (   0.2500000   0.2500000   0.2500000), wk =   0.0156250
        k(   27) = (   0.2500000   0.2500000   0.3750000), wk =   0.0468750
        k(   28) = (   0.2500000   0.2500000  -0.5000000), wk =   0.0234375
        k(   29) = (   0.2500000   0.3750000   0.3750000), wk =   0.0468750
        k(   30) = (   0.2500000   0.3750000  -0.5000000), wk =   0.0234375
        k(   31) = (   0.2500000  -0.5000000  -0.5000000), wk =   0.0117188
        k(   32) = (   0.3750000   0.3750000   0.3750000), wk =   0.0156250
        k(   33) = (   0.3750000   0.3750000  -0.5000000), wk =   0.0234375
        k(   34) = (   0.3750000  -0.5000000  -0.5000000), wk =   0.0117188
        k(   35) = (  -0.5000000  -0.5000000  -0.5000000), wk =   0.0019531
        k(   36) = (   0.0000000   0.2500000   0.1250000), wk =   0.0234375
        k(   37) = (   0.0000000   0.3750000   0.1250000), wk =   0.0234375
        k(   38) = (   0.0000000  -0.5000000   0.1250000), wk =   0.0117188
        k(   39) = (   0.0000000   0.3750000   0.2500000), wk =   0.0234375
        k(   40) = (   0.0000000  -0.5000000   0.2500000), wk =   0.0117188
        k(   41) = (   0.0000000  -0.5000000   0.3750000), wk =   0.0117188
        k(   42) = (  -0.1250000   0.3750000   0.2500000), wk =   0.0468750
        k(   43) = (  -0.1250000  -0.5000000   0.2500000), wk =   0.0234375
        k(   44) = (  -0.1250000  -0.5000000   0.3750000), wk =   0.0234375
        k(   45) = (  -0.2500000  -0.5000000   0.3750000), wk =   0.0234375

                       cryst. coord.
        k(    1) = (   0.0000000   0.0000000   0.0000000), wk =   0.0019531
        k(    2) = (   0.0000000   0.0000000   0.1250000), wk =   0.0117188
        k(    3) = (   0.0000000   0.0000000   0.2500000), wk =   0.0117188
        k(    4) = (   0.0000000   0.0000000   0.3750000), wk =   0.0117188
        k(    5) = (   0.0000000   0.0000000  -0.5000000), wk =   0.0058594
        k(    6) = (   0.0000000   0.1250000   0.1250000), wk =   0.0234375
        k(    7) = (   0.0000000   0.1250000   0.2500000), wk =   0.0234375
        k(    8) = (   0.0000000   0.1250000   0.3750000), wk =   0.0234375
        k(    9) = (   0.0000000   0.1250000  -0.5000000), wk =   0.0117188
        k(   10) = (   0.0000000   0.2500000   0.2500000), wk =   0.0234375
        k(   11) = (   0.0000000   0.2500000   0.3750000), wk =   0.0234375
        k(   12) = (   0.0000000   0.2500000  -0.5000000), wk =   0.0117188
        k(   13) = (   0.0000000   0.3750000   0.3750000), wk =   0.0234375
        k(   14) = (   0.0000000   0.3750000  -0.5000000), wk =   0.0117188
        k(   15) = (   0.0000000  -0.5000000  -0.5000000), wk =   0.0058594
        k(   16) = (   0.1250000   0.1250000   0.1250000), wk =   0.0156250
        k(   17) = (   0.1250000   0.1250000   0.2500000), wk =   0.0468750
        k(   18) = (   0.1250000   0.1250000   0.3750000), wk =   0.0468750
        k(   19) = (   0.1250000   0.1250000  -0.5000000), wk =   0.0234375
        k(   20) = (   0.1250000   0.2500000   0.2500000), wk =   0.0468750
        k(   21) = (   0.1250000   0.2500000   0.3750000), wk =   0.0468750
        k(   22) = (   0.1250000   0.2500000  -0.5000000), wk =   0.0234375
        k(   23) = (   0.1250000   0.3750000   0.3750000), wk =   0.0468750
        k(   24) = (   0.1250000   0.3750000  -0.5000000), wk =   0.0234375
        k(   25) = (   0.1250000  -0.5000000  -0.5000000), wk =   0.0117188
        k(   26) = (   0.2500000   0.2500000   0.2500000), wk =   0.0156250
        k(   27) = (   0.2500000   0.2500000   0.3750000), wk =   0.0468750
        k(   28) = (   0.2500000   0.2500000  -0.5000000), wk =   0.0234375
        k(   29) = (   0.2500000   0.3750000   0.3750000), wk =   0.0468750
        k(   30) = (   0.2500000   0.3750000  -0.5000000), wk =   0.0234375
        k(   31) = (   0.2500000  -0.5000000  -0.5000000), wk =   0.0117188
        k(   32) = (   0.3750000   0.3750000   0.3750000), wk =   0.0156250
        k(   33) = (   0.3750000   0.3750000  -0.5000000), wk =   0.0234375
        k(   34) = (   0.3750000  -0.5000000  -0.5000000), wk =   0.0117188
        k(   35) = (  -0.5000000  -0.5000000  -0.5000000), wk =   0.0019531
        k(   36) = (   0.0000000   0.2500000   0.1250000), wk =   0.0234375
        k(   37) = (   0.0000000   0.3750000   0.1250000), wk =   0.0234375
        k(   38) = (   0.0000000  -0.5000000   0.1250000), wk =   0.0117188
        k(   39) = (   0.0000000   0.3750000   0.2500000), wk =   0.0234375
        k(   40) = (   0.0000000  -0.5000000   0.2500000), wk =   0.0117188
        k(   41) = (   0.0000000  -0.5000000   0.3750000), wk =   0.0117188
        k(   42) = (  -0.1250000   0.3750000   0.2500000), wk =   0.0468750
        k(   43) = (  -0.1250000  -0.5000000   0.2500000), wk =   0.0234375
        k(   44) = (  -0.1250000  -0.5000000   0.3750000), wk =   0.0234375
        k(   45) = (  -0.2500000  -0.5000000   0.3750000), wk =   0.0234375

     Dense  grid:   469825 G-vectors     FFT dimensions: ( 100, 100, 100)

     Smooth grid:   119009 G-vectors     FFT dimensions: (  64,  64,  64)

     Dynamical RAM for                 wfc:       1.62 MB

     Dynamical RAM for     wfc (w. buffer):      74.73 MB

     Dynamical RAM for           str. fact:       0.60 MB

     Dynamical RAM for           local pot:       0.00 MB

     Dynamical RAM for          nlocal pot:       2.57 MB

     Dynamical RAM for                qrad:      14.55 MB

     Dynamical RAM for          rho,v,vnew:       8.16 MB

     Dynamical RAM for               rhoin:       2.72 MB

     Dynamical RAM for            rho*nmix:      19.12 MB

     Dynamical RAM for           G-vectors:       1.16 MB

     Dynamical RAM for          h,s,v(r/c):       1.35 MB

     Dynamical RAM for          <psi|beta>:       0.71 MB

     Dynamical RAM for                 psi:       3.25 MB

     Dynamical RAM for                hpsi:       3.25 MB

     Dynamical RAM for                spsi:       3.25 MB

     Dynamical RAM for      wfcinit/wfcrot:       3.46 MB

     Dynamical RAM for           addusdens:     183.41 MB

     Estimated static dynamical RAM per process >     127.56 MB

     Estimated max dynamical RAM per process >     310.96 MB

     Estimated total dynamical RAM >       7.29 GB

     Initial potential from superposition of free atoms

     starting charge   71.99469, renormalised to   72.00000
     Starting wfcs are  112 randomized atomic wfcs
     Checking if some PAW data can be deallocated... 
       PAW data deallocated on   12 nodes for type:  1
       PAW data deallocated on   12 nodes for type:  2

     total cpu time spent up to now is       12.8 secs

     Self-consistent Calculation

     iteration #  1     ecut=   120.00 Ry     beta= 0.70
     Davidson diagonalization with overlap
     ethr =  1.00E-02,  avg # of iterations =  2.0

     Threshold (ethr) on eigenvalues was too large:
     Diagonalizing with lowered threshold

     Davidson diagonalization with overlap
     ethr =  2.09E-04,  avg # of iterations =  4.3

     total cpu time spent up to now is       71.7 secs

     total energy              =   -1180.31152286 Ry
     estimated scf accuracy    <       0.18913450 Ry

     iteration #  2     ecut=   120.00 Ry     beta= 0.70
     Davidson diagonalization with overlap
     ethr =  2.63E-04,  avg # of iterations =  3.2

     total cpu time spent up to now is      101.9 secs

     total energy              =   -1180.31683753 Ry
     estimated scf accuracy    <       0.08042763 Ry

     iteration #  3     ecut=   120.00 Ry     beta= 0.70
     Davidson diagonalization with overlap
     ethr =  1.12E-04,  avg # of iterations =  5.1

     total cpu time spent up to now is      138.1 secs

     total energy              =   -1180.32766896 Ry
     estimated scf accuracy    <       0.16135272 Ry

     iteration #  4     ecut=   120.00 Ry     beta= 0.70
     Davidson diagonalization with overlap
     ethr =  1.12E-04,  avg # of iterations =  4.1

     total cpu time spent up to now is      167.8 secs

     total energy              =   -1180.35158888 Ry
     estimated scf accuracy    <       0.00042758 Ry

     iteration #  5     ecut=   120.00 Ry     beta= 0.70
     Davidson diagonalization with overlap
     ethr =  5.94E-07,  avg # of iterations =  7.5

     total cpu time spent up to now is      210.5 secs

     total energy              =   -1180.35217543 Ry
     estimated scf accuracy    <       0.00024483 Ry

     iteration #  6     ecut=   120.00 Ry     beta= 0.70
     Davidson diagonalization with overlap
     ethr =  3.40E-07,  avg # of iterations =  3.3

     total cpu time spent up to now is      237.2 secs

     End of self-consistent calculation

          k = 0.0000 0.0000 0.0000 ( 14795 PWs)   bands (ev):

   -56.5089 -56.5089 -56.4742 -56.4742 -56.4742 -56.4742 -56.4742 -56.4742
   -28.5753 -28.5753 -28.5678 -28.5678 -28.5678 -28.5678 -28.4785 -28.4785
   -27.6096 -27.6096 -27.6096 -27.6096 -27.5330 -27.5330 -27.5330 -27.5330
   -27.5286 -27.5286 -27.4462 -27.4462 -27.4457 -27.4457 -27.4457 -27.4457
     2.6977   2.6977   7.4561   7.4561   7.4561   7.4561   7.4653   7.4653
    10.5372  10.5372  10.5452  10.5452  10.5452  10.5452  11.9120  11.9120
    11.9120  11.9120  11.9230  11.9230  12.6046  12.6046  12.7735  12.7735
    12.7735  12.7735  13.1471  13.1471  13.1471  13.1471  13.1482  13.1482
    13.6743  13.6743  13.6743  13.6743  13.6781  13.6781  15.5556  15.5556
    15.5869  15.5869  15.5869  15.5869  15.7713  15.7713  15.7713  15.7713
    16.6693  16.6693  16.6996  16.6996  16.6996  16.6996

     occupation numbers 
     1.0000   1.0000   1.0000   1.0000   1.0000   1.0000   1.0000   1.0000
     1.0000   1.0000   1.0000   1.0000   1.0000   1.0000   1.0000   1.0000
     1.0000   1.0000   1.0000   1.0000   1.0000   1.0000   1.0000   1.0000
     1.0000   1.0000   1.0000   1.0000   1.0000   1.0000   1.0000   1.0000
     1.0000   1.0000   1.0000   1.0000   1.0000   1.0000   1.0000   1.0000
     1.0000   1.0000   1.0000   1.0000   1.0000   1.0000   1.0000   1.0000
     1.0000   1.0000   1.0000   1.0000   1.0000   1.0000   1.0000   1.0000
     1.0000   1.0000   1.0000   1.0000   1.0000   1.0000   1.0000   1.0000
     1.0000   1.0000   1.0000   1.0000   1.0000   1.0000  -0.0040  -0.0040
    -0.0026  -0.0026  -0.0026  -0.0026  -0.0001  -0.0001  -0.0001  -0.0001
    -0.0000  -0.0000  -0.0000  -0.0000  -0.0000  -0.0000

          k = 0.0000 0.0000 0.1250 ( 14903 PWs)   bands (ev):

   -56.5079 -56.5079 -56.4783 -56.4783 -56.4739 -56.4739 -56.4715 -56.4715
   -28.5815 -28.5746 -28.5714 -28.5709 -28.5611 -28.5580 -28.4814 -28.4813
   -27.6229 -27.6163 -27.6003 -27.5938 -27.5423 -27.5387 -27.5357 -27.5275
   -27.5257 -27.5162 -27.4539 -27.4517 -27.4496 -27.4444 -27.4436 -27.4397
     2.8060   2.8060   6.7943   6.7976   7.5173   7.5187   7.9721   7.9808
    10.0753  10.0805  10.6136  10.6153  11.0396  11.0414  11.3202  11.3203
    11.6508  11.6546  12.5312  12.5378  12.5621  12.5804  12.7809  12.7881
    12.9248  12.9261  13.1174  13.1193  13.1821  13.1824  13.2130  13.2134
    13.5245  13.5321  13.6557  13.6572  13.9023  13.9025  15.4018  15.4200
    15.4491  15.4587  15.7280  15.7311  15.7434  15.7589  15.7704  15.7759
    16.4779  16.4949  16.6377  16.6425  16.8993  16.9199

     occupation numbers 
     1.0000   1.0000   1.0000   1.0000   1.0000   1.0000   1.0000   1.0000
     1.0000   1.0000   1.0000   1.0000   1.0000   1.0000   1.0000   1.0000
     1.0000   1.0000   1.0000   1.0000   1.0000   1.0000   1.0000   1.0000
     1.0000   1.0000   1.0000   1.0000   1.0000   1.0000   1.0000   1.0000
     1.0000   1.0000   1.0000   1.0000   1.0000   1.0000   1.0000   1.0000
     1.0000   1.0000   1.0000   1.0000   1.0000   1.0000   1.0000   1.0000
     1.0000   1.0000   1.0000   1.0000   1.0000   1.0000   1.0000   1.0000
     1.0000   1.0000   1.0000   1.0000   1.0000   1.0000   1.0000   1.0000
     1.0000   1.0000   1.0000   1.0000   1.0000   1.0000  -0.0217  -0.0187
    -0.0143  -0.0130  -0.0002  -0.0002  -0.0002  -0.0001  -0.0001  -0.0001
    -0.0000  -0.0000  -0.0000  -0.0000  -0.0000  -0.0000

          k = 0.0000 0.0000 0.2500 ( 14899 PWs)   bands (ev):

   -56.5050 -56.5050 -56.4834 -56.4834 -56.4730 -56.4730 -56.4702 -56.4702
   -28.5850 -28.5781 -28.5748 -28.5724 -28.5484 -28.5454 -28.4896 -28.4893
   -27.6314 -27.6222 -27.5876 -27.5803 -27.5521 -27.5403 -27.5328 -27.5278
   -27.5221 -27.5019 -27.4638 -27.4579 -27.4556 -27.4453 -27.4432 -27.4366
     3.1262   3.1262   5.9909   5.9923   7.6889   7.6918   8.3697   8.3798
     9.7442   9.7456  10.7562  10.7614  10.8654  10.8742  11.1953  11.2027
    11.5693  11.5700  12.2668  12.2817  12.8678  12.8744  12.9135  12.9353
    13.1243  13.1280  13.1324  13.1374  13.2547  13.2553  13.2849  13.2889
    13.5459  13.5492  13.7005  13.7080  14.0489  14.0495  15.0766  15.1052
    15.3847  15.3853  15.6223  15.6375  15.7447  15.7690  15.8552  15.8791
    16.2894  16.3041  16.4973  16.5088  17.1902  17.2109

     occupation numbers 
     1.0000   1.0000   1.0000   1.0000   1.0000   1.0000   1.0000   1.0000
     1.0000   1.0000   1.0000   1.0000   1.0000   1.0000   1.0000   1.0000
     1.0000   1.0000   1.0000   1.0000   1.0000   1.0000   1.0000   1.0000
     1.0000   1.0000   1.0000   1.0000   1.0000   1.0000   1.0000   1.0000
     1.0000   1.0000   1.0000   1.0000   1.0000   1.0000   1.0000   1.0000
     1.0000   1.0000   1.0000   1.0000   1.0000   1.0000   1.0000   1.0000
     1.0000   1.0000   1.0000   1.0000   1.0000   1.0000   1.0000   1.0000
     1.0000   1.0000   1.0000   1.0000   1.0000   1.0000   1.0000   1.0000
     1.0000   1.0000   1.0000   1.0000   1.0000   1.0000   0.1676   0.1085
    -0.0246  -0.0245  -0.0015  -0.0012  -0.0002  -0.0001  -0.0000  -0.0000
    -0.0000  -0.0000  -0.0000  -0.0000  -0.0000  -0.0000

          k = 0.0000 0.0000 0.3750 ( 14838 PWs)   bands (ev):

   -56.5006 -56.5006 -56.4892 -56.4892 -56.4718 -56.4718 -56.4700 -56.4700
   -28.5854 -28.5792 -28.5789 -28.5749 -28.5332 -28.5310 -28.5020 -28.5013
   -27.6345 -27.6281 -27.5745 -27.5695 -27.5608 -27.5372 -27.5366 -27.5238
   -27.5187 -27.4876 -27.4797 -27.4639 -27.4572 -27.4483 -27.4420 -27.4369
     3.6427   3.6428   5.1347   5.1352   7.9587   7.9632   8.5099   8.5188
     9.6767   9.6795  10.5122  10.5128  10.7719  10.7851  11.0296  11.0315
    12.0064  12.0087  12.1221  12.1368  12.7696  12.7850  12.9450  12.9578
    13.0825  13.0900  13.1894  13.1934  13.2485  13.2517  13.3279  13.3313
    13.5426  13.5430  13.9342  13.9386  14.2227  14.2361  14.8159  14.8508
    15.3618  15.3735  15.5020  15.5210  15.7587  15.7882  15.8504  15.8756
    16.1691  16.1850  16.3121  16.3260  17.3536  17.3651

     occupation numbers 
     1.0000   1.0000   1.0000   1.0000   1.0000   1.0000   1.0000   1.0000
     1.0000   1.0000   1.0000   1.0000   1.0000   1.0000   1.0000   1.0000
     1.0000   1.0000   1.0000   1.0000   1.0000   1.0000   1.0000   1.0000
     1.0000   1.0000   1.0000   1.0000   1.0000   1.0000   1.0000   1.0000
     1.0000   1.0000   1.0000   1.0000   1.0000   1.0000   1.0000   1.0000
     1.0000   1.0000   1.0000   1.0000   1.0000   1.0000   1.0000   1.0000
     1.0000   1.0000   1.0000   1.0000   1.0000   1.0000   1.0000   1.0000
     1.0000   1.0000   1.0000   1.0000   1.0000   1.0000   1.0000   1.0000
     1.0000   1.0000   1.0000   1.0000   1.0004   1.0006   0.8824   0.8068
    -0.0284  -0.0265  -0.0080  -0.0064  -0.0001  -0.0001  -0.0000  -0.0000
    -0.0000  -0.0000  -0.0000  -0.0000  -0.0000  -0.0000

          k = 0.0000 0.0000-0.5000 ( 14862 PWs)   bands (ev):

   -56.4951 -56.4951 -56.4951 -56.4951 -56.4707 -56.4707 -56.4707 -56.4707
   -28.5831 -28.5831 -28.5775 -28.5775 -28.5172 -28.5172 -28.5157 -28.5157
   -27.6329 -27.6329 -27.5679 -27.5679 -27.5528 -27.5528 -27.5298 -27.5298
   -27.4991 -27.4991 -27.4747 -27.4747 -27.4529 -27.4529 -27.4393 -27.4393
     4.3276   4.3276   4.3278   4.3278   8.2822   8.2822   8.2887   8.2887
    10.0167  10.0167  10.0207  10.0207  10.8978  10.8978  10.9090  10.9090
    12.2487  12.2487  12.2553  12.2553  12.6866  12.6866  12.6991  12.6991
    13.1448  13.1448  13.1452  13.1452  13.2405  13.2405  13.2442  13.2442
    13.7852  13.7852  13.7883  13.7883  14.5686  14.5686  14.5971  14.5971
    15.4062  15.4062  15.4240  15.4240  15.8104  15.8104  15.8401  15.8401
    16.1700  16.1700  16.1837  16.1837  17.5458  17.5476

     occupation numbers 
     1.0000   1.0000   1.0000   1.0000   1.0000   1.0000   1.0000   1.0000
     1.0000   1.0000   1.0000   1.0000   1.0000   1.0000   1.0000   1.0000
     1.0000   1.0000   1.0000   1.0000   1.0000   1.0000   1.0000   1.0000
     1.0000   1.0000   1.0000   1.0000   1.0000   1.0000   1.0000   1.0000
     1.0000   1.0000   1.0000   1.0000   1.0000   1.0000   1.0000   1.0000
     1.0000   1.0000   1.0000   1.0000   1.0000   1.0000   1.0000   1.0000
     1.0000   1.0000   1.0000   1.0000   1.0000   1.0000   1.0000   1.0000
     1.0000   1.0000   1.0000   1.0000   1.0000   1.0000   1.0000   1.0000
     1.0000   1.0000   1.0000   1.0000   1.0306   1.0306   1.0341   1.0341
    -0.0209  -0.0209  -0.0180  -0.0180  -0.0000  -0.0000  -0.0000  -0.0000
    -0.0000  -0.0000  -0.0000  -0.0000  -0.0000  -0.0000

          k = 0.0000 0.1250 0.1250 ( 14897 PWs)   bands (ev):

   -56.5070 -56.5070 -56.4797 -56.4797 -56.4742 -56.4742 -56.4707 -56.4707
   -28.5834 -28.5773 -28.5702 -28.5696 -28.5582 -28.5544 -28.4841 -28.4841
   -27.6246 -27.6208 -27.5933 -27.5893 -27.5447 -27.5405 -27.5378 -27.5317
   -27.5191 -27.5097 -27.4586 -27.4573 -27.4511 -27.4452 -27.4407 -27.4371
     2.9136   2.9136   6.6444   6.6492   7.3145   7.3184   8.2188   8.2246
     9.9477   9.9527  10.6671  10.6731  10.8540  10.8586  11.2395  11.2427
    11.8051  11.8062  12.4447  12.4559  12.5958  12.6037  12.9039  12.9101
    13.0120  13.0212  13.1641  13.1652  13.1693  13.1741  13.2711  13.2729
    13.4668  13.4732  13.6804  13.6918  13.9970  14.0024  15.3493  15.3617
    15.3968  15.4062  15.6293  15.6386  15.7295  15.7457  15.7979  15.8191
    16.3778  16.3960  16.6501  16.6575  16.9415  16.9708

     occupation numbers 
     1.0000   1.0000   1.0000   1.0000   1.0000   1.0000   1.0000   1.0000
     1.0000   1.0000   1.0000   1.0000   1.0000   1.0000   1.0000   1.0000
     1.0000   1.0000   1.0000   1.0000   1.0000   1.0000   1.0000   1.0000
     1.0000   1.0000   1.0000   1.0000   1.0000   1.0000   1.0000   1.0000
     1.0000   1.0000   1.0000   1.0000   1.0000   1.0000   1.0000   1.0000
     1.0000   1.0000   1.0000   1.0000   1.0000   1.0000   1.0000   1.0000
     1.0000   1.0000   1.0000   1.0000   1.0000   1.0000   1.0000   1.0000
     1.0000   1.0000   1.0000   1.0000   1.0000   1.0000   1.0000   1.0000
     1.0000   1.0000   1.0000   1.0000   1.0000   1.0000  -0.0303  -0.0284
    -0.0225  -0.0209  -0.0013  -0.0012  -0.0002  -0.0002  -0.0001  -0.0000
    -0.0000  -0.0000  -0.0000  -0.0000  -0.0000  -0.0000

          k = 0.0000 0.1250 0.2500 ( 14871 PWs)   bands (ev):

   -56.5042 -56.5042 -56.4838 -56.4838 -56.4737 -56.4737 -56.4700 -56.4700
   -28.5852 -28.5794 -28.5721 -28.5707 -28.5480 -28.5448 -28.4920 -28.4919
   -27.6300 -27.6234 -27.5838 -27.5784 -27.5516 -27.5425 -27.5367 -27.5316
   -27.5167 -27.4974 -27.4705 -27.4622 -27.4557 -27.4477 -27.4384 -27.4338
     3.2314   3.2315   6.0256   6.0280   7.3754   7.3781   8.4791   8.4842
     9.7446   9.7461  10.4119  10.4157  10.8576  10.8584  11.4950  11.5003
    11.5889  11.5905  12.3120  12.3219  12.6400  12.6426  13.0370  13.0445
    13.0763  13.0875  13.2064  13.2124  13.2842  13.2854  13.3837  13.3878
    13.5229  13.5292  13.8075  13.8228  14.1029  14.1101  15.0926  15.1196
    15.3023  15.3173  15.5127  15.5273  15.6949  15.7168  15.8430  15.8685
    16.2278  16.2429  16.5312  16.5435  17.1547  17.1884

     occupation numbers 
     1.0000   1.0000   1.0000   1.0000   1.0000   1.0000   1.0000   1.0000
     1.0000   1.0000   1.0000   1.0000   1.0000   1.0000   1.0000   1.0000
     1.0000   1.0000   1.0000   1.0000   1.0000   1.0000   1.0000   1.0000
     1.0000   1.0000   1.0000   1.0000   1.0000   1.0000   1.0000   1.0000
     1.0000   1.0000   1.0000   1.0000   1.0000   1.0000   1.0000   1.0000
     1.0000   1.0000   1.0000   1.0000   1.0000   1.0000   1.0000   1.0000
     1.0000   1.0000   1.0000   1.0000   1.0000   1.0000   1.0000   1.0000
     1.0000   1.0000   1.0000   1.0000   1.0000   1.0000   1.0000   1.0000
     1.0000   1.0000   1.0000   1.0000   1.0000   1.0000   0.1332   0.0830
    -0.0352  -0.0342  -0.0071  -0.0059  -0.0004  -0.0003  -0.0000  -0.0000
    -0.0000  -0.0000  -0.0000  -0.0000  -0.0000  -0.0000

          k = 0.0000 0.1250 0.3750 ( 14852 PWs)   bands (ev):

   -56.4999 -56.4999 -56.4890 -56.4890 -56.4725 -56.4725 -56.4702 -56.4702
   -28.5846 -28.5796 -28.5761 -28.5734 -28.5339 -28.5318 -28.5041 -28.5035
   -27.6321 -27.6268 -27.5741 -27.5679 -27.5601 -27.5420 -27.5362 -27.5243
   -27.5193 -27.4876 -27.4828 -27.4653 -27.4590 -27.4520 -27.4364 -27.4330
     3.7436   3.7438   5.2126   5.2136   7.6671   7.6691   8.4239   8.4276
     9.7359   9.7391  10.2159  10.2199  11.0147  11.0207  11.1795  11.1934
    11.8680  11.8733  12.1827  12.1924  12.6406  12.6471  12.8688  12.8788
    13.0681  13.0745  13.2748  13.2795  13.3377  13.3397  13.4502  13.4531
    13.6043  13.6112  13.9705  13.9773  14.2933  14.3104  14.8282  14.8618
    15.2842  15.3001  15.3849  15.3973  15.6985  15.7247  15.8302  15.8595
    16.1514  16.1600  16.3629  16.3763  17.3073  17.3312

     occupation numbers 
     1.0000   1.0000   1.0000   1.0000   1.0000   1.0000   1.0000   1.0000
     1.0000   1.0000   1.0000   1.0000   1.0000   1.0000   1.0000   1.0000
     1.0000   1.0000   1.0000   1.0000   1.0000   1.0000   1.0000   1.0000
     1.0000   1.0000   1.0000   1.0000   1.0000   1.0000   1.0000   1.0000
     1.0000   1.0000   1.0000   1.0000   1.0000   1.0000   1.0000   1.0000
     1.0000   1.0000   1.0000   1.0000   1.0000   1.0000   1.0000   1.0000
     1.0000   1.0000   1.0000   1.0000   1.0000   1.0000   1.0000   1.0000
     1.0000   1.0000   1.0000   1.0000   1.0000   1.0000   1.0000   1.0000
     1.0000   1.0000   1.0000   1.0000   1.0015   1.0019   0.8577   0.7799
    -0.0353  -0.0353  -0.0245  -0.0224  -0.0004  -0.0003  -0.0000  -0.0000
    -0.0000  -0.0000  -0.0000  -0.0000  -0.0000  -0.0000

          k = 0.0000 0.1250-0.5000 ( 14848 PWs)   bands (ev):

   -56.4947 -56.4947 -56.4947 -56.4947 -56.4711 -56.4711 -56.4711 -56.4711
   -28.5818 -28.5818 -28.5762 -28.5762 -28.5191 -28.5191 -28.5169 -28.5169
   -27.6305 -27.6305 -27.5676 -27.5676 -27.5536 -27.5536 -27.5295 -27.5295
   -27.5042 -27.5042 -27.4730 -27.4730 -27.4565 -27.4565 -27.4344 -27.4344
     4.4208   4.4209   4.4214   4.4214   8.0581   8.0581   8.0650   8.0650
     9.9960   9.9960  10.0003  10.0003  11.0363  11.0363  11.0504  11.0504
    12.1488  12.1488  12.1543  12.1543  12.5993  12.5993  12.6157  12.6157
    13.2297  13.2297  13.2323  13.2323  13.3359  13.3359  13.3372  13.3372
    13.8320  13.8320  13.8356  13.8356  14.6019  14.6019  14.6323  14.6323
    15.3074  15.3074  15.3233  15.3233  15.7615  15.7615  15.7913  15.7913
    16.2093  16.2093  16.2203  16.2203  17.5247  17.5311

     occupation numbers 
     1.0000   1.0000   1.0000   1.0000   1.0000   1.0000   1.0000   1.0000
     1.0000   1.0000   1.0000   1.0000   1.0000   1.0000   1.0000   1.0000
     1.0000   1.0000   1.0000   1.0000   1.0000   1.0000   1.0000   1.0000
     1.0000   1.0000   1.0000   1.0000   1.0000   1.0000   1.0000   1.0000
     1.0000   1.0000   1.0000   1.0000   1.0000   1.0000   1.0000   1.0000
     1.0000   1.0000   1.0000   1.0000   1.0000   1.0000   1.0000   1.0000
     1.0000   1.0000   1.0000   1.0000   1.0000   1.0000   1.0000   1.0000
     1.0000   1.0000   1.0000   1.0000   1.0000   1.0000   1.0000   1.0000
     1.0000   1.0000   1.0000   1.0000   1.0345   1.0345   1.0353   1.0353
    -0.0350  -0.0350  -0.0337  -0.0337  -0.0001  -0.0001  -0.0001  -0.0001
    -0.0000  -0.0000  -0.0000  -0.0000  -0.0000  -0.0000

          k = 0.0000 0.2500 0.2500 ( 14850 PWs)   bands (ev):

   -56.5017 -56.5017 -56.4855 -56.4855 -56.4743 -56.4743 -56.4701 -56.4701
   -28.5846 -28.5796 -28.5699 -28.5691 -28.5444 -28.5412 -28.4993 -28.4989
   -27.6274 -27.6242 -27.5767 -27.5745 -27.5509 -27.5478 -27.5387 -27.5333
   -27.5133 -27.4917 -27.4805 -27.4701 -27.4612 -27.4440 -27.4344 -27.4303
     3.5416   3.5418   5.9641   5.9673   6.9404   6.9444   8.4360   8.4410
     9.7514   9.7546  10.1863  10.1915  10.9268  10.9293  11.3513  11.3524
    11.8603  11.8641  12.2874  12.2909  12.5073  12.5165  12.9061  12.9137
    13.1512  13.1605  13.2731  13.2826  13.4448  13.4463  13.5223  13.5316
    13.5734  13.5841  13.9874  13.9997  14.2222  14.2278  15.0497  15.0701
    15.1440  15.1687  15.2992  15.3107  15.6209  15.6460  15.7670  15.7958
    16.1639  16.1748  16.5160  16.5267  17.1888  17.2319

     occupation numbers 
     1.0000   1.0000   1.0000   1.0000   1.0000   1.0000   1.0000   1.0000
     1.0000   1.0000   1.0000   1.0000   1.0000   1.0000   1.0000   1.0000
     1.0000   1.0000   1.0000   1.0000   1.0000   1.0000   1.0000   1.0000
     1.0000   1.0000   1.0000   1.0000   1.0000   1.0000   1.0000   1.0000
     1.0000   1.0000   1.0000   1.0000   1.0000   1.0000   1.0000   1.0000
     1.0000   1.0000   1.0000   1.0000   1.0000   1.0000   1.0000   1.0000
     1.0000   1.0000   1.0000   1.0000   1.0000   1.0000   1.0000   1.0000
     1.0000   1.0000   1.0000   1.0000   1.0000   1.0000   1.0000   1.0000
     1.0000   1.0000   1.0000   1.0000   1.0004   1.0005   0.2324   0.1825
     0.0463   0.0170  -0.0353  -0.0348  -0.0015  -0.0010  -0.0001  -0.0001
    -0.0000  -0.0000  -0.0000  -0.0000  -0.0000  -0.0000

          k = 0.0000 0.2500 0.3750 ( 14854 PWs)   bands (ev):

   -56.4979 -56.4979 -56.4890 -56.4890 -56.4737 -56.4737 -56.4710 -56.4710
   -28.5820 -28.5778 -28.5721 -28.5702 -28.5351 -28.5331 -28.5099 -28.5095
   -27.6256 -27.6228 -27.5755 -27.5683 -27.5562 -27.5458 -27.5356 -27.5276
   -27.5177 -27.4957 -27.4878 -27.4771 -27.4571 -27.4445 -27.4314 -27.4287
     4.0398   4.0402   5.4161   5.4180   7.0440   7.0472   8.0204   8.0238
     9.9169   9.9202  10.1873  10.1906  11.0290  11.0328  11.3807  11.3883
    11.8904  11.8924  12.0262  12.0305  12.4345  12.4455  12.6541  12.6640
    13.2384  13.2478  13.3324  13.3378  13.4420  13.4458  13.6564  13.6592
    13.7924  13.7958  14.0691  14.0786  14.4567  14.4820  14.8338  14.8607
    15.0760  15.0973  15.1524  15.1577  15.5818  15.6063  15.6841  15.7161
    16.2047  16.2117  16.4580  16.4685  17.1944  17.2234

     occupation numbers 
     1.0000   1.0000   1.0000   1.0000   1.0000   1.0000   1.0000   1.0000
     1.0000   1.0000   1.0000   1.0000   1.0000   1.0000   1.0000   1.0000
     1.0000   1.0000   1.0000   1.0000   1.0000   1.0000   1.0000   1.0000
     1.0000   1.0000   1.0000   1.0000   1.0000   1.0000   1.0000   1.0000
     1.0000   1.0000   1.0000   1.0000   1.0000   1.0000   1.0000   1.0000
     1.0000   1.0000   1.0000   1.0000   1.0000   1.0000   1.0000   1.0000
     1.0000   1.0000   1.0000   1.0000   1.0000   1.0000   1.0000   1.0000
     1.0000   1.0000   1.0000   1.0000   1.0000   1.0000   1.0000   1.0000
     1.0000   1.0000   1.0000   1.0000   1.0128   1.0164   0.8457   0.7828
     0.1690   0.1238   0.0355   0.0291  -0.0028  -0.0019  -0.0005  -0.0003
    -0.0000  -0.0000  -0.0000  -0.0000  -0.0000  -0.0000

          k = 0.0000 0.2500-0.5000 ( 14858 PWs)   bands (ev):

   -56.4935 -56.4935 -56.4935 -56.4935 -56.4723 -56.4723 -56.4723 -56.4723
   -28.5782 -28.5782 -28.5730 -28.5730 -28.5237 -28.5237 -28.5206 -28.5206
   -27.6235 -27.6235 -27.5720 -27.5720 -27.5507 -27.5507 -27.5283 -27.5283
   -27.5117 -27.5117 -27.4834 -27.4834 -27.4496 -27.4496 -27.4292 -27.4292
     4.6906   4.6906   4.6916   4.6916   7.4829   7.4829   7.4891   7.4891
    10.1296  10.1296  10.1327  10.1327  11.2001  11.2001  11.2119  11.2119
    11.9566  11.9566  11.9586  11.9586  12.4200  12.4200  12.4324  12.4324
    13.3504  13.3504  13.3569  13.3569  13.5184  13.5184  13.5245  13.5245
    13.9898  13.9898  13.9954  13.9954  14.6575  14.6575  14.6880  14.6880
    15.0895  15.0895  15.1012  15.1012  15.6079  15.6080  15.6367  15.6367
    16.3368  16.3368  16.3478  16.3478  17.3619  17.3672

     occupation numbers 
     1.0000   1.0000   1.0000   1.0000   1.0000   1.0000   1.0000   1.0000
     1.0000   1.0000   1.0000   1.0000   1.0000   1.0000   1.0000   1.0000
     1.0000   1.0000   1.0000   1.0000   1.0000   1.0000   1.0000   1.0000
     1.0000   1.0000   1.0000   1.0000   1.0000   1.0000   1.0000   1.0000
     1.0000   1.0000   1.0000   1.0000   1.0000   1.0000   1.0000   1.0000
     1.0000   1.0000   1.0000   1.0000   1.0000   1.0000   1.0000   1.0000
     1.0000   1.0000   1.0000   1.0000   1.0000   1.0000   1.0000   1.0000
     1.0000   1.0000   1.0000   1.0000   1.0000   1.0000   1.0000   1.0000
     1.0000   1.0000   1.0000   1.0000   1.0329   1.0329   1.0244   1.0244
     0.1397   0.1397   0.1162   0.1162  -0.0019  -0.0019  -0.0012  -0.0012
    -0.0000  -0.0000  -0.0000  -0.0000  -0.0000  -0.0000

          k = 0.0000 0.3750 0.3750 ( 14878 PWs)   bands (ev):

   -56.4951 -56.4951 -56.4899 -56.4899 -56.4743 -56.4743 -56.4723 -56.4723
   -28.5777 -28.5745 -28.5697 -28.5688 -28.5338 -28.5320 -28.5185 -28.5177
   -27.6172 -27.6168 -27.5810 -27.5768 -27.5481 -27.5425 -27.5308 -27.5290
   -27.5190 -27.5021 -27.5000 -27.4903 -27.4475 -27.4380 -27.4300 -27.4272
     4.5087   4.5093   5.5221   5.5237   6.5721   6.5742   7.4019   7.4049
    10.2466  10.2478  10.4521  10.4532  10.9124  10.9132  11.2399  11.2429
    11.7877  11.7907  12.0569  12.0607  12.2649  12.2673  12.4698  12.4774
    13.2364  13.2440  13.3920  13.3935  13.6762  13.6767  13.8226  13.8275
    14.0583  14.0705  14.1525  14.1634  14.5600  14.5801  14.7443  14.7561
    14.8566  14.8757  14.9595  14.9827  15.4825  15.5020  15.5221  15.5492
    16.3260  16.3365  16.5143  16.5199  17.0942  17.1164

     occupation numbers 
     1.0000   1.0000   1.0000   1.0000   1.0000   1.0000   1.0000   1.0000
     1.0000   1.0000   1.0000   1.0000   1.0000   1.0000   1.0000   1.0000
     1.0000   1.0000   1.0000   1.0000   1.0000   1.0000   1.0000   1.0000
     1.0000   1.0000   1.0000   1.0000   1.0000   1.0000   1.0000   1.0000
     1.0000   1.0000   1.0000   1.0000   1.0000   1.0000   1.0000   1.0000
     1.0000   1.0000   1.0000   1.0000   1.0000   1.0000   1.0000   1.0000
     1.0000   1.0000   1.0000   1.0000   1.0000   1.0000   1.0000   1.0000
     1.0000   1.0000   1.0000   1.0000   1.0000   1.0000   1.0000   1.0000
     1.0000   1.0000   1.0001   1.0001   1.0292   1.0321   0.9864   0.9739
     0.7929   0.7439   0.4960   0.4242  -0.0101  -0.0080  -0.0063  -0.0044
    -0.0000  -0.0000  -0.0000  -0.0000  -0.0000  -0.0000

          k = 0.0000 0.3750-0.5000 ( 14870 PWs)   bands (ev):

   -56.4921 -56.4921 -56.4921 -56.4921 -56.4737 -56.4737 -56.4737 -56.4737
   -28.5733 -28.5733 -28.5699 -28.5699 -28.5281 -28.5281 -28.5256 -28.5256
   -27.6125 -27.6125 -27.5842 -27.5842 -27.5415 -27.5415 -27.5271 -27.5271
   -27.5159 -27.5159 -27.4989 -27.4989 -27.4395 -27.4395 -27.4283 -27.4283
     5.0887   5.0887   5.0901   5.0901   6.8107   6.8107   6.8149   6.8149
    10.4502  10.4502  10.4516  10.4517  11.2424  11.2424  11.2504  11.2504
    11.6415  11.6415  11.6494  11.6494  12.3110  12.3110  12.3160  12.3160
    13.3678  13.3678  13.3735  13.3735  13.7716  13.7716  13.7807  13.7807
    14.2750  14.2750  14.2778  14.2778  14.5476  14.5476  14.5585  14.5585
    14.8884  14.8884  14.9074  14.9074  15.4630  15.4630  15.4827  15.4827
    16.4960  16.4960  16.5061  16.5061  17.1185  17.1218

     occupation numbers 
     1.0000   1.0000   1.0000   1.0000   1.0000   1.0000   1.0000   1.0000
     1.0000   1.0000   1.0000   1.0000   1.0000   1.0000   1.0000   1.0000
     1.0000   1.0000   1.0000   1.0000   1.0000   1.0000   1.0000   1.0000
     1.0000   1.0000   1.0000   1.0000   1.0000   1.0000   1.0000   1.0000
     1.0000   1.0000   1.0000   1.0000   1.0000   1.0000   1.0000   1.0000
     1.0000   1.0000   1.0000   1.0000   1.0000   1.0000   1.0000   1.0000
     1.0000   1.0000   1.0000   1.0000   1.0000   1.0000   1.0000   1.0000
     1.0000   1.0000   1.0000   1.0000   1.0000   1.0000   1.0000   1.0000
     1.0011   1.0011   1.0012   1.0012   1.0273   1.0273   1.0290   1.0290
     0.7092   0.7092   0.6550   0.6550  -0.0124  -0.0124  -0.0100  -0.0100
    -0.0000  -0.0000  -0.0000  -0.0000  -0.0000  -0.0000

          k = 0.0000-0.5000-0.5000 ( 14932 PWs)   bands (ev):

   -56.4915 -56.4915 -56.4915 -56.4915 -56.4743 -56.4743 -56.4743 -56.4743
   -28.5697 -28.5697 -28.5697 -28.5697 -28.5290 -28.5290 -28.5290 -28.5290
   -27.5988 -27.5988 -27.5988 -27.5988 -27.5315 -27.5315 -27.5315 -27.5315
   -27.5116 -27.5116 -27.5116 -27.5116 -27.4319 -27.4319 -27.4319 -27.4319
     5.3703   5.3703   5.3703   5.3703   6.4271   6.4271   6.4271   6.4271
    10.7062  10.7062  10.7062  10.7062  11.2438  11.2438  11.2438  11.2438
    11.3854  11.3854  11.3854  11.3854  12.2856  12.2856  12.2856  12.2856
    13.3642  13.3642  13.3642  13.3642  14.0099  14.0099  14.0099  14.0099
    14.2973  14.2973  14.2973  14.2973  14.5283  14.5283  14.5283  14.5283
    14.7607  14.7607  14.7607  14.7607  15.4215  15.4215  15.4215  15.4215
    16.5909  16.5909  16.5909  16.5910  16.9880  16.9880

     occupation numbers 
     1.0000   1.0000   1.0000   1.0000   1.0000   1.0000   1.0000   1.0000
     1.0000   1.0000   1.0000   1.0000   1.0000   1.0000   1.0000   1.0000
     1.0000   1.0000   1.0000   1.0000   1.0000   1.0000   1.0000   1.0000
     1.0000   1.0000   1.0000   1.0000   1.0000   1.0000   1.0000   1.0000
     1.0000   1.0000   1.0000   1.0000   1.0000   1.0000   1.0000   1.0000
     1.0000   1.0000   1.0000   1.0000   1.0000   1.0000   1.0000   1.0000
     1.0000   1.0000   1.0000   1.0000   1.0000   1.0000   1.0000   1.0000
     1.0000   1.0000   1.0000   1.0000   1.0000   1.0000   1.0000   1.0000
     1.0016   1.0016   1.0016   1.0016   1.0240   1.0240   1.0240   1.0240
     0.9685   0.9685   0.9685   0.9685  -0.0184  -0.0184  -0.0184  -0.0184
    -0.0000  -0.0000  -0.0000  -0.0000  -0.0000  -0.0000

          k = 0.1250 0.1250 0.1250 ( 14879 PWs)   bands (ev):

   -56.5060 -56.5060 -56.4808 -56.4808 -56.4746 -56.4746 -56.4702 -56.4702
   -28.5845 -28.5787 -28.5690 -28.5685 -28.5562 -28.5521 -28.4869 -28.4867
   -27.6249 -27.6233 -27.5899 -27.5844 -27.5463 -27.5405 -27.5392 -27.5361
   -27.5149 -27.5046 -27.4660 -27.4576 -27.4503 -27.4499 -27.4373 -27.4356
     3.0204   3.0205   6.5625   6.5691   7.1829   7.1902   8.2850   8.2891
     9.9225   9.9273  10.6120  10.6122  10.6509  10.6509  11.2998  11.3054
    11.9447  11.9458  12.3508  12.3620  12.7377  12.7396  12.8173  12.8263
    13.0640  13.0676  13.1673  13.1678  13.2458  13.2516  13.3446  13.3533
    13.4581  13.4662  13.7061  13.7106  14.0658  14.0732  15.3245  15.3288
    15.3593  15.3606  15.5789  15.5801  15.6431  15.6575  15.8169  15.8287
    16.3174  16.3370  16.6514  16.6598  16.9649  17.0003

     occupation numbers 
     1.0000   1.0000   1.0000   1.0000   1.0000   1.0000   1.0000   1.0000
     1.0000   1.0000   1.0000   1.0000   1.0000   1.0000   1.0000   1.0000
     1.0000   1.0000   1.0000   1.0000   1.0000   1.0000   1.0000   1.0000
     1.0000   1.0000   1.0000   1.0000   1.0000   1.0000   1.0000   1.0000
     1.0000   1.0000   1.0000   1.0000   1.0000   1.0000   1.0000   1.0000
     1.0000   1.0000   1.0000   1.0000   1.0000   1.0000   1.0000   1.0000
     1.0000   1.0000   1.0000   1.0000   1.0000   1.0000   1.0000   1.0000
     1.0000   1.0000   1.0000   1.0000   1.0000   1.0000   1.0000   1.0000
     1.0000   1.0000   1.0000   1.0000   1.0000   1.0000  -0.0335  -0.0331
    -0.0288  -0.0286  -0.0029  -0.0029  -0.0011  -0.0008  -0.0000  -0.0000
    -0.0000  -0.0000  -0.0000  -0.0000  -0.0000  -0.0000

          k = 0.1250 0.1250 0.2500 ( 14837 PWs)   bands (ev):

   -56.5033 -56.5033 -56.4841 -56.4841 -56.4743 -56.4743 -56.4699 -56.4699
   -28.5852 -28.5797 -28.5702 -28.5693 -28.5478 -28.5443 -28.4946 -28.4942
   -27.6287 -27.6237 -27.5824 -27.5751 -27.5506 -27.5435 -27.5390 -27.5363
   -27.5125 -27.4951 -27.4755 -27.4621 -27.4571 -27.4506 -27.4347 -27.4327
     3.3358   3.3358   6.0614   6.0646   7.2194   7.2238   8.4039   8.4080
     9.6714   9.6734  10.4339  10.4378  10.6897  10.6936  11.4169  11.4209
    11.8420  11.8470  12.3005  12.3039  12.7381  12.7433  13.0090  13.0141
    13.0847  13.0915  13.1166  13.1244  13.2840  13.2886  13.4414  13.4507
    13.6270  13.6354  13.8410  13.8497  14.1539  14.1599  15.0850  15.1102
    15.2872  15.3024  15.4498  15.4635  15.5935  15.6108  15.8142  15.8332
    16.2052  16.2209  16.5463  16.5601  17.1197  17.1555

     occupation numbers 
     1.0000   1.0000   1.0000   1.0000   1.0000   1.0000   1.0000   1.0000
     1.0000   1.0000   1.0000   1.0000   1.0000   1.0000   1.0000   1.0000
     1.0000   1.0000   1.0000   1.0000   1.0000   1.0000   1.0000   1.0000
     1.0000   1.0000   1.0000   1.0000   1.0000   1.0000   1.0000   1.0000
     1.0000   1.0000   1.0000   1.0000   1.0000   1.0000   1.0000   1.0000
     1.0000   1.0000   1.0000   1.0000   1.0000   1.0000   1.0000   1.0000
     1.0000   1.0000   1.0000   1.0000   1.0000   1.0000   1.0000   1.0000
     1.0000   1.0000   1.0000   1.0000   1.0000   1.0000   1.0000   1.0000
     1.0000   1.0000   1.0000   1.0000   1.0001   1.0001   0.1492   0.0994
    -0.0354  -0.0352  -0.0142  -0.0123  -0.0023  -0.0018  -0.0000  -0.0000
    -0.0000  -0.0000  -0.0000  -0.0000  -0.0000  -0.0000

          k = 0.1250 0.1250 0.3750 ( 14846 PWs)   bands (ev):

   -56.4992 -56.4992 -56.4889 -56.4889 -56.4731 -56.4731 -56.4705 -56.4705
   -28.5837 -28.5792 -28.5742 -28.5719 -28.5349 -28.5325 -28.5063 -28.5055
   -27.6300 -27.6254 -27.5732 -27.5671 -27.5589 -27.5450 -27.5370 -27.5278
   -27.5165 -27.4948 -27.4775 -27.4650 -27.4615 -27.4543 -27.4331 -27.4314
     3.8435   3.8437   5.2892   5.2903   7.5126   7.5149   8.3085   8.3129
     9.5580   9.5590  10.2042  10.2075  10.9208  10.9252  11.4071  11.4131
    11.7861  11.7895  12.2132  12.2170  12.7436  12.7493  12.9514  12.9591
    13.0606  13.0689  13.2299  13.2371  13.3283  13.3318  13.4336  13.4400
    13.6972  13.7001  13.9798  13.9872  14.3523  14.3722  14.8333  14.8661
    15.2495  15.2659  15.3221  15.3355  15.6142  15.6341  15.7716  15.7948
    16.1578  16.1672  16.3809  16.3954  17.3123  17.3359

     occupation numbers 
     1.0000   1.0000   1.0000   1.0000   1.0000   1.0000   1.0000   1.0000
     1.0000   1.0000   1.0000   1.0000   1.0000   1.0000   1.0000   1.0000
     1.0000   1.0000   1.0000   1.0000   1.0000   1.0000   1.0000   1.0000
     1.0000   1.0000   1.0000   1.0000   1.0000   1.0000   1.0000   1.0000
     1.0000   1.0000   1.0000   1.0000   1.0000   1.0000   1.0000   1.0000
     1.0000   1.0000   1.0000   1.0000   1.0000   1.0000   1.0000   1.0000
     1.0000   1.0000   1.0000   1.0000   1.0000   1.0000   1.0000   1.0000
     1.0000   1.0000   1.0000   1.0000   1.0000   1.0000   1.0000   1.0000
     1.0000   1.0000   1.0000   1.0000   1.0036   1.0047   0.8467   0.7691
    -0.0310  -0.0339  -0.0338  -0.0323  -0.0017  -0.0012  -0.0001  -0.0001
    -0.0000  -0.0000  -0.0000  -0.0000  -0.0000  -0.0000

          k = 0.1250 0.1250-0.5000 ( 14870 PWs)   bands (ev):

   -56.4942 -56.4942 -56.4942 -56.4942 -56.4716 -56.4716 -56.4716 -56.4716
   -28.5805 -28.5805 -28.5750 -28.5750 -28.5210 -28.5210 -28.5182 -28.5182
   -27.6282 -27.6282 -27.5664 -27.5664 -27.5555 -27.5555 -27.5289 -27.5289
   -27.5086 -27.5086 -27.4703 -27.4703 -27.4591 -27.4591 -27.4318 -27.4318
     4.5130   4.5130   4.5136   4.5136   7.9196   7.9196   7.9258   7.9258
     9.8403   9.8403   9.8417   9.8417  11.1809  11.1809  11.1906  11.1906
    12.0282  12.0282  12.0319  12.0319  12.7799  12.7799  12.7927  12.7927
    13.1782  13.1782  13.1864  13.1864  13.3686  13.3686  13.3715  13.3715
    13.8512  13.8512  13.8572  13.8572  14.6313  14.6313  14.6634  14.6634
    15.2508  15.2508  15.2700  15.2700  15.6885  15.6885  15.7145  15.7146
    16.2278  16.2278  16.2380  16.2380  17.6188  17.6208

     occupation numbers 
     1.0000   1.0000   1.0000   1.0000   1.0000   1.0000   1.0000   1.0000
     1.0000   1.0000   1.0000   1.0000   1.0000   1.0000   1.0000   1.0000
     1.0000   1.0000   1.0000   1.0000   1.0000   1.0000   1.0000   1.0000
     1.0000   1.0000   1.0000   1.0000   1.0000   1.0000   1.0000   1.0000
     1.0000   1.0000   1.0000   1.0000   1.0000   1.0000   1.0000   1.0000
     1.0000   1.0000   1.0000   1.0000   1.0000   1.0000   1.0000   1.0000
     1.0000   1.0000   1.0000   1.0000   1.0000   1.0000   1.0000   1.0000
     1.0000   1.0000   1.0000   1.0000   1.0000   1.0000   1.0000   1.0000
     1.0000   1.0000   1.0000   1.0000   1.0354   1.0354   1.0317   1.0317
    -0.0313  -0.0313  -0.0344  -0.0344  -0.0005  -0.0005  -0.0003  -0.0003
    -0.0000  -0.0000  -0.0000  -0.0000  -0.0000  -0.0000

          k = 0.1250 0.2500 0.2500 ( 14860 PWs)   bands (ev):

   -56.5009 -56.5009 -56.4855 -56.4855 -56.4749 -56.4749 -56.4703 -56.4703
   -28.5840 -28.5791 -28.5683 -28.5676 -28.5448 -28.5415 -28.5017 -28.5011
   -27.6262 -27.6229 -27.5785 -27.5699 -27.5509 -27.5468 -27.5406 -27.5384
   -27.5090 -27.4969 -27.4782 -27.4657 -27.4643 -27.4481 -27.4322 -27.4297
     3.6435   3.6437   6.0122   6.0166   6.9136   6.9199   8.2967   8.3004
     9.4081   9.4109  10.4289  10.4306  10.6905  10.6930  11.4600  11.4649
    11.9047  11.9073  12.3035  12.3054  12.6226  12.6290  12.9587  12.9650
    13.1199  13.1250  13.1960  13.2066  13.2857  13.2911  13.5826  13.5894
    13.7525  13.7601  13.9737  13.9828  14.2892  14.2962  15.0286  15.0458
    15.1632  15.1838  15.2897  15.3024  15.5039  15.5159  15.7248  15.7453
    16.1731  16.1841  16.5209  16.5334  17.1496  17.1903

     occupation numbers 
     1.0000   1.0000   1.0000   1.0000   1.0000   1.0000   1.0000   1.0000
     1.0000   1.0000   1.0000   1.0000   1.0000   1.0000   1.0000   1.0000
     1.0000   1.0000   1.0000   1.0000   1.0000   1.0000   1.0000   1.0000
     1.0000   1.0000   1.0000   1.0000   1.0000   1.0000   1.0000   1.0000
     1.0000   1.0000   1.0000   1.0000   1.0000   1.0000   1.0000   1.0000
     1.0000   1.0000   1.0000   1.0000   1.0000   1.0000   1.0000   1.0000
     1.0000   1.0000   1.0000   1.0000   1.0000   1.0000   1.0000   1.0000
     1.0000   1.0000   1.0000   1.0000   1.0000   1.0000   1.0000   1.0000
     1.0000   1.0000   1.0000   1.0000   1.0014   1.0016   0.2891   0.2425
     0.0229   0.0029  -0.0355  -0.0352  -0.0079  -0.0068  -0.0003  -0.0002
    -0.0000  -0.0000  -0.0000  -0.0000  -0.0000  -0.0000

          k = 0.1250 0.2500 0.3750 ( 14846 PWs)   bands (ev):

   -56.4972 -56.4972 -56.4887 -56.4887 -56.4743 -56.4743 -56.4714 -56.4714
   -28.5810 -28.5769 -28.5705 -28.5688 -28.5363 -28.5341 -28.5121 -28.5113
   -27.6239 -27.6209 -27.5749 -27.5668 -27.5579 -27.5478 -27.5358 -27.5311
   -27.5141 -27.5040 -27.4801 -27.4732 -27.4597 -27.4480 -27.4305 -27.4282
     4.1369   4.1373   5.4896   5.4917   7.0382   7.0421   7.9708   7.9740
     9.4101   9.4125  10.1457  10.1481  11.0647  11.0679  11.5745  11.5804
    11.8047  11.8121  12.0668  12.0685  12.5170  12.5271  12.7902  12.7979
    13.2117  13.2171  13.2932  13.3057  13.3550  13.3607  13.6025  13.6117
    13.8660  13.8775  14.0996  14.1110  14.5053  14.5334  14.8407  14.8675
    15.0749  15.0846  15.1515  15.1650  15.5129  15.5256  15.6376  15.6603
    16.2068  16.2136  16.4477  16.4585  17.1803  17.2070

     occupation numbers 
     1.0000   1.0000   1.0000   1.0000   1.0000   1.0000   1.0000   1.0000
     1.0000   1.0000   1.0000   1.0000   1.0000   1.0000   1.0000   1.0000
     1.0000   1.0000   1.0000   1.0000   1.0000   1.0000   1.0000   1.0000
     1.0000   1.0000   1.0000   1.0000   1.0000   1.0000   1.0000   1.0000
     1.0000   1.0000   1.0000   1.0000   1.0000   1.0000   1.0000   1.0000
     1.0000   1.0000   1.0000   1.0000   1.0000   1.0000   1.0000   1.0000
     1.0000   1.0000   1.0000   1.0000   1.0000   1.0000   1.0000   1.0000
     1.0000   1.0000   1.0000   1.0000   1.0000   1.0000   1.0000   1.0000
     1.0000   1.0000   1.0000   1.0000   1.0201   1.0249   0.8303   0.7653
     0.1715   0.1500   0.0366   0.0209  -0.0070  -0.0060  -0.0012  -0.0008
    -0.0000  -0.0000  -0.0000  -0.0000  -0.0000  -0.0000

          k = 0.1250 0.2500-0.5000 ( 14856 PWs)   bands (ev):

   -56.4929 -56.4929 -56.4929 -56.4929 -56.4729 -56.4729 -56.4729 -56.4729
   -28.5768 -28.5768 -28.5718 -28.5718 -28.5254 -28.5254 -28.5221 -28.5221
   -27.6214 -27.6214 -27.5707 -27.5707 -27.5542 -27.5542 -27.5273 -27.5273
   -27.5149 -27.5149 -27.4785 -27.4785 -27.4524 -27.4524 -27.4288 -27.4288
     4.7795   4.7795   4.7805   4.7805   7.4679   7.4679   7.4742   7.4742
     9.7442   9.7442   9.7466   9.7466  11.5286  11.5286  11.5362  11.5362
    11.7448  11.7448  11.7486  11.7486  12.6019  12.6019  12.6134  12.6134
    13.2952  13.2952  13.3016  13.3016  13.4732  13.4732  13.4848  13.4848
    14.0269  14.0269  14.0350  14.0350  14.6966  14.6966  14.7291  14.7291
    15.0713  15.0713  15.0877  15.0877  15.5607  15.5607  15.5843  15.5843
    16.3239  16.3239  16.3328  16.3328  17.3813  17.3835

     occupation numbers 
     1.0000   1.0000   1.0000   1.0000   1.0000   1.0000   1.0000   1.0000
     1.0000   1.0000   1.0000   1.0000   1.0000   1.0000   1.0000   1.0000
     1.0000   1.0000   1.0000   1.0000   1.0000   1.0000   1.0000   1.0000
     1.0000   1.0000   1.0000   1.0000   1.0000   1.0000   1.0000   1.0000
     1.0000   1.0000   1.0000   1.0000   1.0000   1.0000   1.0000   1.0000
     1.0000   1.0000   1.0000   1.0000   1.0000   1.0000   1.0000   1.0000
     1.0000   1.0000   1.0000   1.0000   1.0000   1.0000   1.0000   1.0000
     1.0000   1.0000   1.0000   1.0000   1.0000   1.0000   1.0000   1.0000
     1.0000   1.0000   1.0000   1.0000   1.0207   1.0207   1.0000   1.0000
     0.1797   0.1797   0.1434   0.1434  -0.0038  -0.0038  -0.0027  -0.0027
    -0.0000  -0.0000  -0.0000  -0.0000  -0.0000  -0.0000

          k = 0.1250 0.3750 0.3750 ( 14858 PWs)   bands (ev):

   -56.4944 -56.4944 -56.4894 -56.4894 -56.4749 -56.4749 -56.4728 -56.4728
   -28.5765 -28.5734 -28.5682 -28.5673 -28.5352 -28.5334 -28.5204 -28.5194
   -27.6161 -27.6144 -27.5799 -27.5754 -27.5532 -27.5455 -27.5345 -27.5267
   -27.5181 -27.5090 -27.4896 -27.4842 -27.4500 -27.4414 -27.4303 -27.4273
     4.6007   4.6013   5.5947   5.5970   6.6170   6.6205   7.4182   7.4213
     9.5842   9.5868  10.2023  10.2057  10.9500  10.9520  11.5414  11.5439
    11.7646  11.7691  12.1108  12.1126  12.3555  12.3600  12.6198  12.6265
    13.1949  13.2005  13.3158  13.3209  13.5637  13.5725  13.7675  13.7835
    14.0223  14.0358  14.3027  14.3117  14.5655  14.5842  14.7949  14.8095
    14.8806  14.8856  14.9955  15.0254  15.4376  15.4384  15.5082  15.5200
    16.3064  16.3158  16.4813  16.4877  17.0687  17.0899

     occupation numbers 
     1.0000   1.0000   1.0000   1.0000   1.0000   1.0000   1.0000   1.0000
     1.0000   1.0000   1.0000   1.0000   1.0000   1.0000   1.0000   1.0000
     1.0000   1.0000   1.0000   1.0000   1.0000   1.0000   1.0000   1.0000
     1.0000   1.0000   1.0000   1.0000   1.0000   1.0000   1.0000   1.0000
     1.0000   1.0000   1.0000   1.0000   1.0000   1.0000   1.0000   1.0000
     1.0000   1.0000   1.0000   1.0000   1.0000   1.0000   1.0000   1.0000
     1.0000   1.0000   1.0000   1.0000   1.0000   1.0000   1.0000   1.0000
     1.0000   1.0000   1.0000   1.0000   1.0000   1.0000   1.0000   1.0000
     1.0000   1.0000   1.0017   1.0020   1.0301   1.0327   0.9200   0.8946
     0.7308   0.7170   0.3851   0.2980  -0.0159  -0.0158  -0.0075  -0.0065
    -0.0000  -0.0000  -0.0000  -0.0000  -0.0000  -0.0000

          k = 0.1250 0.3750-0.5000 ( 14848 PWs)   bands (ev):

   -56.4915 -56.4915 -56.4915 -56.4915 -56.4743 -56.4743 -56.4743 -56.4743
   -28.5720 -28.5720 -28.5685 -28.5685 -28.5298 -28.5298 -28.5272 -28.5272
   -27.6109 -27.6109 -27.5827 -27.5827 -27.5476 -27.5476 -27.5280 -27.5280
   -27.5157 -27.5157 -27.4914 -27.4914 -27.4423 -27.4423 -27.4290 -27.4290
     5.1719   5.1719   5.1734   5.1734   6.8542   6.8542   6.8586   6.8586
     9.9261   9.9261   9.9293   9.9293  11.2690  11.2690  11.2710  11.2710
    11.8662  11.8662  11.8738  11.8738  12.4220  12.4220  12.4297  12.4297
    13.2949  13.2949  13.2987  13.2987  13.6841  13.6841  13.6983  13.6983
    14.2899  14.2899  14.2965  14.2965  14.6370  14.6370  14.6496  14.6496
    14.9053  14.9053  14.9243  14.9243  15.4353  15.4353  15.4510  15.4510
    16.4502  16.4502  16.4576  16.4577  17.0984  17.1019

     occupation numbers 
     1.0000   1.0000   1.0000   1.0000   1.0000   1.0000   1.0000   1.0000
     1.0000   1.0000   1.0000   1.0000   1.0000   1.0000   1.0000   1.0000
     1.0000   1.0000   1.0000   1.0000   1.0000   1.0000   1.0000   1.0000
     1.0000   1.0000   1.0000   1.0000   1.0000   1.0000   1.0000   1.0000
     1.0000   1.0000   1.0000   1.0000   1.0000   1.0000   1.0000   1.0000
     1.0000   1.0000   1.0000   1.0000   1.0000   1.0000   1.0000   1.0000
     1.0000   1.0000   1.0000   1.0000   1.0000   1.0000   1.0000   1.0000
     1.0000   1.0000   1.0000   1.0000   1.0000   1.0000   1.0000   1.0000
     1.0014   1.0014   1.0016   1.0016   1.0351   1.0351   1.0340   1.0340
     0.6611   0.6611   0.6045   0.6045  -0.0163  -0.0163  -0.0140  -0.0140
    -0.0000  -0.0000  -0.0000  -0.0000  -0.0000  -0.0000

          k = 0.1250-0.5000-0.5000 ( 14864 PWs)   bands (ev):

   -56.4908 -56.4908 -56.4908 -56.4908 -56.4750 -56.4750 -56.4750 -56.4750
   -28.5684 -28.5684 -28.5683 -28.5683 -28.5308 -28.5308 -28.5306 -28.5306
   -27.5999 -27.5999 -27.5945 -27.5945 -27.5431 -27.5431 -27.5305 -27.5305
   -27.5123 -27.5123 -27.4992 -27.4992 -27.4361 -27.4361 -27.4315 -27.4315
     5.4474   5.4474   5.4484   5.4484   6.4878   6.4878   6.4897   6.4897
    10.0929  10.0929  10.0965  10.0965  11.0440  11.0440  11.0457  11.0457
    11.9605  11.9605  11.9629  11.9629  12.3368  12.3368  12.3393  12.3393
    13.2770  13.2770  13.2778  13.2778  13.8493  13.8493  13.8627  13.8627
    14.3495  14.3495  14.3549  14.3549  14.6341  14.6341  14.6506  14.6506
    14.8042  14.8042  14.8062  14.8062  15.3896  15.3897  15.3899  15.3899
    16.5242  16.5243  16.5258  16.5258  16.9747  16.9761

     occupation numbers 
     1.0000   1.0000   1.0000   1.0000   1.0000   1.0000   1.0000   1.0000
     1.0000   1.0000   1.0000   1.0000   1.0000   1.0000   1.0000   1.0000
     1.0000   1.0000   1.0000   1.0000   1.0000   1.0000   1.0000   1.0000
     1.0000   1.0000   1.0000   1.0000   1.0000   1.0000   1.0000   1.0000
     1.0000   1.0000   1.0000   1.0000   1.0000   1.0000   1.0000   1.0000
     1.0000   1.0000   1.0000   1.0000   1.0000   1.0000   1.0000   1.0000
     1.0000   1.0000   1.0000   1.0000   1.0000   1.0000   1.0000   1.0000
     1.0000   1.0000   1.0000   1.0000   1.0000   1.0000   1.0000   1.0000
     1.0035   1.0035   1.0037   1.0037   1.0353   1.0353   1.0339   1.0339
     0.9042   0.9042   0.9006   0.9006  -0.0237  -0.0237  -0.0237  -0.0237
    -0.0000  -0.0000  -0.0000  -0.0000  -0.0000  -0.0000

          k = 0.2500 0.2500 0.2500 ( 14832 PWs)   bands (ev):

   -56.4987 -56.4987 -56.4860 -56.4860 -56.4758 -56.4758 -56.4711 -56.4711
   -28.5818 -28.5774 -28.5656 -28.5653 -28.5442 -28.5411 -28.5083 -28.5074
   -27.6231 -27.6193 -27.5776 -27.5655 -27.5534 -27.5504 -27.5415 -27.5385
   -27.5079 -27.5035 -27.4728 -27.4704 -27.4596 -27.4544 -27.4307 -27.4282
     3.9434   3.9435   6.0530   6.0598   6.7940   6.8043   8.0508   8.0516
     9.0661   9.0689  10.0629  10.0665  11.1547  11.1590  11.1989  11.1993
    11.9212  11.9226  12.3572  12.3588  12.8119  12.8185  12.8837  12.8846
    13.1348  13.1434  13.1437  13.1563  13.1878  13.1926  13.7609  13.7693
    13.7776  13.7897  14.0668  14.0742  14.4515  14.4688  14.9896  15.0057
    15.1339  15.1370  15.2696  15.2703  15.3099  15.3156  15.6184  15.6375
    16.1866  16.1948  16.4853  16.4966  17.1290  17.1588

     occupation numbers 
     1.0000   1.0000   1.0000   1.0000   1.0000   1.0000   1.0000   1.0000
     1.0000   1.0000   1.0000   1.0000   1.0000   1.0000   1.0000   1.0000
     1.0000   1.0000   1.0000   1.0000   1.0000   1.0000   1.0000   1.0000
     1.0000   1.0000   1.0000   1.0000   1.0000   1.0000   1.0000   1.0000
     1.0000   1.0000   1.0000   1.0000   1.0000   1.0000   1.0000   1.0000
     1.0000   1.0000   1.0000   1.0000   1.0000   1.0000   1.0000   1.0000
     1.0000   1.0000   1.0000   1.0000   1.0000   1.0000   1.0000   1.0000
     1.0000   1.0000   1.0000   1.0000   1.0000   1.0000   1.0000   1.0000
     1.0000   1.0000   1.0000   1.0000   1.0122   1.0145   0.4030   0.3546
     0.0606   0.0561  -0.0343  -0.0344  -0.0348  -0.0344  -0.0016  -0.0012
    -0.0000  -0.0000  -0.0000  -0.0000  -0.0000  -0.0000

          k = 0.2500 0.2500 0.3750 ( 14858 PWs)   bands (ev):

   -56.4953 -56.4953 -56.4880 -56.4880 -56.4757 -56.4757 -56.4725 -56.4725
   -28.5778 -28.5742 -28.5668 -28.5656 -28.5387 -28.5365 -28.5178 -28.5166
   -27.6189 -27.6157 -27.5741 -27.5656 -27.5604 -27.5555 -27.5380 -27.5281
   -27.5185 -27.5047 -27.4766 -27.4666 -27.4617 -27.4528 -27.4305 -27.4278
     4.4216   4.4219   5.6827   5.6857   6.9114   6.9174   7.7707   7.7735
     8.9806   8.9844   9.7548   9.7587  11.0338  11.0368  11.5976  11.6004
    11.6780  11.6813  12.2594  12.2641  12.7435  12.7531  12.8794  12.8866
    13.1121  13.1241  13.2146  13.2259  13.2963  13.3004  13.6247  13.6324
    13.9412  13.9512  14.2647  14.2760  14.6179  14.6503  14.8480  14.8674
    15.0245  15.0348  15.1852  15.2115  15.3306  15.3455  15.5300  15.5468
    16.2262  16.2330  16.4160  16.4241  17.1236  17.1387

     occupation numbers 
     1.0000   1.0000   1.0000   1.0000   1.0000   1.0000   1.0000   1.0000
     1.0000   1.0000   1.0000   1.0000   1.0000   1.0000   1.0000   1.0000
     1.0000   1.0000   1.0000   1.0000   1.0000   1.0000   1.0000   1.0000
     1.0000   1.0000   1.0000   1.0000   1.0000   1.0000   1.0000   1.0000
     1.0000   1.0000   1.0000   1.0000   1.0000   1.0000   1.0000   1.0000
     1.0000   1.0000   1.0000   1.0000   1.0000   1.0000   1.0000   1.0000
     1.0000   1.0000   1.0000   1.0000   1.0000   1.0000   1.0000   1.0000
     1.0000   1.0000   1.0000   1.0000   1.0000   1.0000   1.0000   1.0000
     1.0000   1.0000   1.0009   1.0011   1.0354   1.0339   0.8135   0.7657
     0.3004   0.2718   0.0017  -0.0164  -0.0329  -0.0309  -0.0057  -0.0046
    -0.0000  -0.0000  -0.0000  -0.0000  -0.0000  -0.0000

          k = 0.2500 0.2500-0.5000 ( 14826 PWs)   bands (ev):

   -56.4915 -56.4915 -56.4915 -56.4915 -56.4743 -56.4743 -56.4743 -56.4743
   -28.5732 -28.5732 -28.5684 -28.5684 -28.5298 -28.5298 -28.5261 -28.5261
   -27.6155 -27.6155 -27.5696 -27.5696 -27.5606 -27.5606 -27.5299 -27.5299
   -27.5142 -27.5142 -27.4735 -27.4735 -27.4550 -27.4550 -27.4291 -27.4291
     5.0357   5.0357   5.0370   5.0370   7.3186   7.3186   7.3246   7.3246
     9.3111   9.3111   9.3153   9.3153  11.2774  11.2774  11.2798  11.2798
    11.9776  11.9776  11.9857  11.9857  12.8057  12.8057  12.8159  12.8159
    13.1759  13.1759  13.1886  13.1886  13.4416  13.4416  13.4488  13.4488
    14.1713  14.1713  14.1809  14.1809  14.7533  14.7533  14.7807  14.7807
    15.0597  15.0597  15.0786  15.0786  15.4363  15.4363  15.4525  15.4525
    16.3153  16.3154  16.3249  16.3249  17.2603  17.2613

     occupation numbers 
     1.0000   1.0000   1.0000   1.0000   1.0000   1.0000   1.0000   1.0000
     1.0000   1.0000   1.0000   1.0000   1.0000   1.0000   1.0000   1.0000
     1.0000   1.0000   1.0000   1.0000   1.0000   1.0000   1.0000   1.0000
     1.0000   1.0000   1.0000   1.0000   1.0000   1.0000   1.0000   1.0000
     1.0000   1.0000   1.0000   1.0000   1.0000   1.0000   1.0000   1.0000
     1.0000   1.0000   1.0000   1.0000   1.0000   1.0000   1.0000   1.0000
     1.0000   1.0000   1.0000   1.0000   1.0000   1.0000   1.0000   1.0000
     1.0000   1.0000   1.0000   1.0000   1.0000   1.0000   1.0000   1.0000
     1.0002   1.0002   1.0002   1.0002   0.9770   0.9770   0.9421   0.9421
     0.2074   0.2074   0.1631   0.1631  -0.0161  -0.0161  -0.0138  -0.0138
    -0.0000  -0.0000  -0.0000  -0.0000  -0.0000  -0.0000

          k = 0.2500 0.3750 0.3750 ( 14838 PWs)   bands (ev):

   -56.4926 -56.4926 -56.4881 -56.4881 -56.4766 -56.4766 -56.4743 -56.4743
   -28.5730 -28.5701 -28.5643 -28.5636 -28.5388 -28.5371 -28.5257 -28.5243
   -27.6116 -27.6088 -27.5773 -27.5722 -27.5614 -27.5569 -27.5394 -27.5281
   -27.5180 -27.5018 -27.4811 -27.4713 -27.4550 -27.4496 -27.4322 -27.4292
     4.8688   4.8693   5.7955   5.7995   6.6814   6.6882   7.3938   7.3970
     8.9589   8.9633   9.5732   9.5786  10.6888  10.6926  11.2077  11.2095
    12.0030  12.0059  12.4224  12.4265  12.6339  12.6394  12.8223  12.8281
    13.1311  13.1394  13.1845  13.1929  13.3854  13.3950  13.5867  13.5986
    14.1458  14.1544  14.5001  14.5171  14.6878  14.7113  14.8416  14.8605
    14.9371  14.9412  15.1348  15.1672  15.2790  15.2908  15.4354  15.4488
    16.2816  16.2891  16.4085  16.4130  16.9779  16.9881

     occupation numbers 
     1.0000   1.0000   1.0000   1.0000   1.0000   1.0000   1.0000   1.0000
     1.0000   1.0000   1.0000   1.0000   1.0000   1.0000   1.0000   1.0000
     1.0000   1.0000   1.0000   1.0000   1.0000   1.0000   1.0000   1.0000
     1.0000   1.0000   1.0000   1.0000   1.0000   1.0000   1.0000   1.0000
     1.0000   1.0000   1.0000   1.0000   1.0000   1.0000   1.0000   1.0000
     1.0000   1.0000   1.0000   1.0000   1.0000   1.0000   1.0000   1.0000
     1.0000   1.0000   1.0000   1.0000   1.0000   1.0000   1.0000   1.0000
     1.0000   1.0000   1.0000   1.0000   1.0000   1.0000   1.0000   1.0000
     1.0001   1.0001   1.0193   1.0221   1.0245   1.0126   0.8284   0.7832
     0.5654   0.5528   0.0592   0.0186  -0.0351  -0.0355  -0.0163  -0.0143
    -0.0000  -0.0000  -0.0000  -0.0000  -0.0000  -0.0000

          k = 0.2500 0.3750-0.5000 ( 14862 PWs)   bands (ev):

   -56.4898 -56.4898 -56.4898 -56.4898 -56.4760 -56.4760 -56.4760 -56.4760
   -28.5682 -28.5682 -28.5648 -28.5648 -28.5345 -28.5345 -28.5316 -28.5316
   -27.6060 -27.6060 -27.5792 -27.5792 -27.5585 -27.5585 -27.5356 -27.5356
   -27.5074 -27.5074 -27.4791 -27.4791 -27.4489 -27.4489 -27.4320 -27.4320
     5.4111   5.4111   5.4130   5.4130   6.9209   6.9209   6.9263   6.9263
     9.2727   9.2727   9.2778   9.2778  10.7887  10.7887  10.7913  10.7913
    12.2825  12.2825  12.2911  12.2911  12.6885  12.6885  12.6958  12.6958
    13.1746  13.1746  13.1824  13.1824  13.4790  13.4790  13.4920  13.4920
    14.4101  14.4101  14.4189  14.4189  14.7959  14.7959  14.8134  14.8134
    14.9923  14.9923  15.0143  15.0143  15.3528  15.3528  15.3632  15.3632
    16.3702  16.3703  16.3773  16.3774  16.9900  16.9919

     occupation numbers 
     1.0000   1.0000   1.0000   1.0000   1.0000   1.0000   1.0000   1.0000
     1.0000   1.0000   1.0000   1.0000   1.0000   1.0000   1.0000   1.0000
     1.0000   1.0000   1.0000   1.0000   1.0000   1.0000   1.0000   1.0000
     1.0000   1.0000   1.0000   1.0000   1.0000   1.0000   1.0000   1.0000
     1.0000   1.0000   1.0000   1.0000   1.0000   1.0000   1.0000   1.0000
     1.0000   1.0000   1.0000   1.0000   1.0000   1.0000   1.0000   1.0000
     1.0000   1.0000   1.0000   1.0000   1.0000   1.0000   1.0000   1.0000
     1.0000   1.0000   1.0000   1.0000   1.0000   1.0000   1.0000   1.0000
     1.0076   1.0076   1.0085   1.0085   0.9184   0.9184   0.8872   0.8872
     0.3948   0.3948   0.3296   0.3296  -0.0298  -0.0298  -0.0282  -0.0282
    -0.0000  -0.0000  -0.0000  -0.0000  -0.0000  -0.0000

          k = 0.2500-0.5000-0.5000 ( 14868 PWs)   bands (ev):

   -56.4890 -56.4890 -56.4890 -56.4890 -56.4768 -56.4768 -56.4768 -56.4768
   -28.5644 -28.5644 -28.5642 -28.5642 -28.5357 -28.5357 -28.5354 -28.5354
   -27.5973 -27.5973 -27.5888 -27.5888 -27.5563 -27.5563 -27.5382 -27.5382
   -27.5027 -27.5027 -27.4842 -27.4842 -27.4433 -27.4433 -27.4355 -27.4355
     5.6721   5.6721   5.6743   5.6743   6.6202   6.6202   6.6243   6.6243
     9.3818   9.3818   9.3872   9.3872  10.5097  10.5097  10.5129  10.5129
    12.4797  12.4797  12.4829  12.4829  12.5656  12.5656  12.5677  12.5677
    13.1182  13.1182  13.1185  13.1185  13.5577  13.5577  13.5706  13.5706
    14.5134  14.5134  14.5221  14.5221  14.8393  14.8393  14.8539  14.8540
    14.9407  14.9407  14.9417  14.9417  15.3148  15.3149  15.3178  15.3178
    16.4189  16.4189  16.4197  16.4197  16.8666  16.8688

     occupation numbers 
     1.0000   1.0000   1.0000   1.0000   1.0000   1.0000   1.0000   1.0000
     1.0000   1.0000   1.0000   1.0000   1.0000   1.0000   1.0000   1.0000
     1.0000   1.0000   1.0000   1.0000   1.0000   1.0000   1.0000   1.0000
     1.0000   1.0000   1.0000   1.0000   1.0000   1.0000   1.0000   1.0000
     1.0000   1.0000   1.0000   1.0000   1.0000   1.0000   1.0000   1.0000
     1.0000   1.0000   1.0000   1.0000   1.0000   1.0000   1.0000   1.0000
     1.0000   1.0000   1.0000   1.0000   1.0000   1.0000   1.0000   1.0000
     1.0000   1.0000   1.0000   1.0000   1.0000   1.0000   1.0000   1.0000
     1.0215   1.0215   1.0229   1.0229   0.8336   0.8336   0.7993   0.7993
     0.5544   0.5544   0.5511   0.5511  -0.0344  -0.0344  -0.0342  -0.0342
    -0.0000  -0.0000  -0.0000  -0.0000  -0.0000  -0.0000

          k = 0.3750 0.3750 0.3750 ( 14856 PWs)   bands (ev):

   -56.4900 -56.4900 -56.4869 -56.4869 -56.4783 -56.4783 -56.4764 -56.4764
   -28.5678 -28.5653 -28.5601 -28.5600 -28.5421 -28.5406 -28.5328 -28.5313
   -27.6044 -27.6015 -27.5763 -27.5700 -27.5693 -27.5671 -27.5428 -27.5366
   -27.5075 -27.4957 -27.4755 -27.4609 -27.4587 -27.4563 -27.4361 -27.4336
     5.2837   5.2845   5.9989   6.0051   6.6304   6.6403   7.1881   7.1916
     8.7560   8.7618   9.2627   9.2701  10.1957  10.2007  10.6467  10.6491
    12.3249  12.3280  12.5938  12.5981  12.7715  12.7749  12.8700  12.8719
    13.1121  13.1224  13.1716  13.1768  13.2738  13.2742  13.3982  13.4030
    14.3655  14.3683  14.7265  14.7469  14.7883  14.7962  14.9266  14.9614
    15.0706  15.0772  15.1015  15.1069  15.2576  15.2881  15.3124  15.3339
    16.2894  16.2970  16.3629  16.3647  16.8149  16.8191

     occupation numbers 
     1.0000   1.0000   1.0000   1.0000   1.0000   1.0000   1.0000   1.0000
     1.0000   1.0000   1.0000   1.0000   1.0000   1.0000   1.0000   1.0000
     1.0000   1.0000   1.0000   1.0000   1.0000   1.0000   1.0000   1.0000
     1.0000   1.0000   1.0000   1.0000   1.0000   1.0000   1.0000   1.0000
     1.0000   1.0000   1.0000   1.0000   1.0000   1.0000   1.0000   1.0000
     1.0000   1.0000   1.0000   1.0000   1.0000   1.0000   1.0000   1.0000
     1.0000   1.0000   1.0000   1.0000   1.0000   1.0000   1.0000   1.0000
     1.0000   1.0000   1.0000   1.0000   1.0000   1.0000   1.0000   1.0000
     1.0043   1.0045   1.0020   0.9838   0.9307   0.9178   0.5976   0.4902
     0.1812   0.1663   0.1156   0.1055  -0.0326  -0.0354  -0.0346  -0.0325
    -0.0000  -0.0000  -0.0000  -0.0000  -0.0000  -0.0000

          k = 0.3750 0.3750-0.5000 ( 14894 PWs)   bands (ev):

   -56.4875 -56.4875 -56.4875 -56.4875 -56.4782 -56.4782 -56.4782 -56.4782
[...]
   -28.5846 -28.5798 -28.5759 -28.5734 -28.5341 -28.5316 -28.5042 -28.5034
   -27.6322 -27.6269 -27.5726 -27.5696 -27.5591 -27.5421 -27.5368 -27.5249
   -27.5185 -27.4893 -27.4805 -27.4669 -27.4580 -27.4519 -27.4362 -27.4333
     3.7436   3.7436   5.2124   5.2130   7.6676   7.6700   8.4233   8.4302
     9.7494   9.7523  10.2954  10.3015  10.9489  10.9561  10.9939  10.9972
    11.9126  11.9163  12.2315  12.2363  12.8394  12.8476  13.0374  13.0402
    13.0632  13.0654  13.1370  13.1421  13.3007  13.3052  13.3932  13.3988
    13.5827  13.5828  13.9450  13.9519  14.2845  14.3009  14.8178  14.8518
    15.3129  15.3288  15.3888  15.4075  15.6879  15.7159  15.8063  15.8310
    16.1519  16.1651  16.3467  16.3615  17.3408  17.3601

     occupation numbers 
     1.0000   1.0000   1.0000   1.0000   1.0000   1.0000   1.0000   1.0000
     1.0000   1.0000   1.0000   1.0000   1.0000   1.0000   1.0000   1.0000
     1.0000   1.0000   1.0000   1.0000   1.0000   1.0000   1.0000   1.0000
     1.0000   1.0000   1.0000   1.0000   1.0000   1.0000   1.0000   1.0000
     1.0000   1.0000   1.0000   1.0000   1.0000   1.0000   1.0000   1.0000
     1.0000   1.0000   1.0000   1.0000   1.0000   1.0000   1.0000   1.0000
     1.0000   1.0000   1.0000   1.0000   1.0000   1.0000   1.0000   1.0000
     1.0000   1.0000   1.0000   1.0000   1.0000   1.0000   1.0000   1.0000
     1.0000   1.0000   1.0000   1.0000   1.0013   1.0017   0.8787   0.8044
    -0.0346  -0.0331  -0.0239  -0.0207  -0.0005  -0.0003  -0.0000  -0.0000
    -0.0000  -0.0000  -0.0000  -0.0000  -0.0000  -0.0000

          k = 0.0000-0.5000 0.1250 ( 14848 PWs)   bands (ev):

   -56.4947 -56.4947 -56.4947 -56.4947 -56.4711 -56.4711 -56.4711 -56.4711
   -28.5818 -28.5818 -28.5762 -28.5762 -28.5192 -28.5192 -28.5168 -28.5168
   -27.6306 -27.6306 -27.5669 -27.5669 -27.5540 -27.5540 -27.5296 -27.5296
   -27.5043 -27.5043 -27.4730 -27.4730 -27.4562 -27.4562 -27.4345 -27.4345
     4.4207   4.4207   4.4211   4.4211   8.0591   8.0591   8.0644   8.0644
    10.0563  10.0563  10.0612  10.0612  10.8857  10.8857  10.8944  10.8944
    12.1701  12.1701  12.1751  12.1751  12.8630  12.8630  12.8704  12.8704
    13.1038  13.1038  13.1093  13.1093  13.3117  13.3117  13.3190  13.3190
    13.7957  13.7957  13.8002  13.8002  14.5937  14.5937  14.6237  14.6237
    15.3243  15.3243  15.3451  15.3451  15.7364  15.7365  15.7655  15.7655
    16.1954  16.1954  16.2077  16.2077  17.6063  17.6083

     occupation numbers 
     1.0000   1.0000   1.0000   1.0000   1.0000   1.0000   1.0000   1.0000
     1.0000   1.0000   1.0000   1.0000   1.0000   1.0000   1.0000   1.0000
     1.0000   1.0000   1.0000   1.0000   1.0000   1.0000   1.0000   1.0000
     1.0000   1.0000   1.0000   1.0000   1.0000   1.0000   1.0000   1.0000
     1.0000   1.0000   1.0000   1.0000   1.0000   1.0000   1.0000   1.0000
     1.0000   1.0000   1.0000   1.0000   1.0000   1.0000   1.0000   1.0000
     1.0000   1.0000   1.0000   1.0000   1.0000   1.0000   1.0000   1.0000
     1.0000   1.0000   1.0000   1.0000   1.0000   1.0000   1.0000   1.0000
     1.0000   1.0000   1.0000   1.0000   1.0337   1.0337   1.0355   1.0355
    -0.0336  -0.0336  -0.0309  -0.0309  -0.0002  -0.0002  -0.0001  -0.0001
    -0.0000  -0.0000  -0.0000  -0.0000  -0.0000  -0.0000

          k = 0.0000 0.3750 0.2500 ( 14854 PWs)   bands (ev):

   -56.4979 -56.4979 -56.4890 -56.4890 -56.4737 -56.4737 -56.4710 -56.4710
   -28.5820 -28.5780 -28.5718 -28.5703 -28.5354 -28.5329 -28.5102 -28.5092
   -27.6258 -27.6230 -27.5737 -27.5697 -27.5550 -27.5466 -27.5364 -27.5280
   -27.5168 -27.4975 -27.4857 -27.4778 -27.4571 -27.4442 -27.4315 -27.4288
     4.0397   4.0399   5.4156   5.4164   7.0474   7.0483   8.0205   8.0251
     9.9594   9.9628  10.2699  10.2752  10.9117  10.9156  11.0727  11.0749
    11.9262  11.9307  12.2428  12.2465  12.5559  12.5601  12.8002  12.8053
    13.1031  13.1096  13.3354  13.3403  13.5347  13.5397  13.6309  13.6373
    13.7309  13.7420  14.0011  14.0124  14.4365  14.4607  14.8109  14.8420
    15.1091  15.1276  15.1533  15.1711  15.5656  15.5924  15.6581  15.6864
    16.1921  16.2017  16.4177  16.4289  17.2889  17.3207

     occupation numbers 
     1.0000   1.0000   1.0000   1.0000   1.0000   1.0000   1.0000   1.0000
     1.0000   1.0000   1.0000   1.0000   1.0000   1.0000   1.0000   1.0000
     1.0000   1.0000   1.0000   1.0000   1.0000   1.0000   1.0000   1.0000
     1.0000   1.0000   1.0000   1.0000   1.0000   1.0000   1.0000   1.0000
     1.0000   1.0000   1.0000   1.0000   1.0000   1.0000   1.0000   1.0000
     1.0000   1.0000   1.0000   1.0000   1.0000   1.0000   1.0000   1.0000
     1.0000   1.0000   1.0000   1.0000   1.0000   1.0000   1.0000   1.0000
     1.0000   1.0000   1.0000   1.0000   1.0000   1.0000   1.0000   1.0000
     1.0000   1.0000   1.0000   1.0000   1.0104   1.0134   0.8920   0.8274
     0.1015   0.0700   0.0344   0.0146  -0.0035  -0.0024  -0.0008  -0.0005
    -0.0000  -0.0000  -0.0000  -0.0000  -0.0000  -0.0000

          k = 0.0000-0.5000 0.2500 ( 14858 PWs)   bands (ev):

   -56.4935 -56.4935 -56.4935 -56.4935 -56.4723 -56.4723 -56.4723 -56.4723
   -28.5782 -28.5782 -28.5730 -28.5730 -28.5238 -28.5238 -28.5205 -28.5205
   -27.6237 -27.6237 -27.5709 -27.5709 -27.5516 -27.5516 -27.5282 -27.5282
   -27.5122 -27.5122 -27.4831 -27.4831 -27.4494 -27.4494 -27.4294 -27.4294
     4.6901   4.6901   4.6908   4.6908   7.4863   7.4863   7.4898   7.4898
    10.2662  10.2662  10.2709  10.2709  10.8447  10.8447  10.8491  10.8491
    12.0967  12.0967  12.1023  12.1023  12.6624  12.6624  12.6730  12.6730
    13.1906  13.1906  13.1977  13.1977  13.6651  13.6651  13.6749  13.6749
    13.8579  13.8579  13.8651  13.8651  14.6411  14.6411  14.6743  14.6743
    15.0949  15.0949  15.1215  15.1215  15.5742  15.5742  15.6013  15.6013
    16.2890  16.2890  16.3002  16.3002  17.4802  17.4907

     occupation numbers 
     1.0000   1.0000   1.0000   1.0000   1.0000   1.0000   1.0000   1.0000
     1.0000   1.0000   1.0000   1.0000   1.0000   1.0000   1.0000   1.0000
     1.0000   1.0000   1.0000   1.0000   1.0000   1.0000   1.0000   1.0000
     1.0000   1.0000   1.0000   1.0000   1.0000   1.0000   1.0000   1.0000
     1.0000   1.0000   1.0000   1.0000   1.0000   1.0000   1.0000   1.0000
     1.0000   1.0000   1.0000   1.0000   1.0000   1.0000   1.0000   1.0000
     1.0000   1.0000   1.0000   1.0000   1.0000   1.0000   1.0000   1.0000
     1.0000   1.0000   1.0000   1.0000   1.0000   1.0000   1.0000   1.0000
     1.0000   1.0000   1.0000   1.0000   1.0349   1.0349   1.0291   1.0291
     0.1287   0.1286   0.0799   0.0799  -0.0031  -0.0031  -0.0021  -0.0021
    -0.0000  -0.0000  -0.0000  -0.0000  -0.0000  -0.0000

          k = 0.0000-0.5000 0.3750 ( 14870 PWs)   bands (ev):

   -56.4921 -56.4921 -56.4921 -56.4921 -56.4737 -56.4737 -56.4737 -56.4737
   -28.5733 -28.5733 -28.5699 -28.5699 -28.5282 -28.5282 -28.5255 -28.5255
   -27.6128 -27.6128 -27.5836 -27.5836 -27.5421 -27.5421 -27.5261 -27.5261
   -27.5171 -27.5171 -27.4984 -27.4984 -27.4394 -27.4394 -27.4284 -27.4284
     5.0884   5.0884   5.0893   5.0893   6.8132   6.8132   6.8153   6.8153
    10.6247  10.6247  10.6270  10.6270  10.8530  10.8531  10.8566  10.8566
    11.8743  11.8743  11.8775  11.8775  12.3363  12.3363  12.3441  12.3441
    13.3043  13.3043  13.3098  13.3098  13.9522  13.9522  13.9587  13.9587
    14.0818  14.0818  14.0898  14.0898  14.6249  14.6249  14.6568  14.6568
    14.8257  14.8257  14.8660  14.8660  15.4511  15.4511  15.4703  15.4703
    16.4479  16.4480  16.4602  16.4602  17.1926  17.2049

     occupation numbers 
     1.0000   1.0000   1.0000   1.0000   1.0000   1.0000   1.0000   1.0000
     1.0000   1.0000   1.0000   1.0000   1.0000   1.0000   1.0000   1.0000
     1.0000   1.0000   1.0000   1.0000   1.0000   1.0000   1.0000   1.0000
     1.0000   1.0000   1.0000   1.0000   1.0000   1.0000   1.0000   1.0000
     1.0000   1.0000   1.0000   1.0000   1.0000   1.0000   1.0000   1.0000
     1.0000   1.0000   1.0000   1.0000   1.0000   1.0000   1.0000   1.0000
     1.0000   1.0000   1.0000   1.0000   1.0000   1.0000   1.0000   1.0000
     1.0000   1.0000   1.0000   1.0000   1.0000   1.0000   1.0000   1.0000
     1.0000   1.0000   1.0000   1.0000   1.0355   1.0355   1.0330   1.0330
     0.8628   0.8628   0.7694   0.7694  -0.0140  -0.0140  -0.0115  -0.0115
    -0.0000  -0.0000  -0.0000  -0.0000  -0.0000  -0.0000

          k =-0.1250 0.3750 0.2500 ( 14846 PWs)   bands (ev):

   -56.4972 -56.4972 -56.4887 -56.4887 -56.4743 -56.4743 -56.4714 -56.4714
   -28.5809 -28.5770 -28.5704 -28.5689 -28.5364 -28.5340 -28.5122 -28.5112
   -27.6240 -27.6210 -27.5738 -27.5679 -27.5566 -27.5489 -27.5361 -27.5311
   -27.5136 -27.5047 -27.4796 -27.4733 -27.4599 -27.4477 -27.4305 -27.4282
     4.1369   4.1372   5.4892   5.4907   7.0403   7.0431   7.9708   7.9751
     9.4172   9.4198  10.2018  10.2032  10.9150  10.9165  11.5457  11.5493
    11.7473  11.7495  12.1905  12.1942  12.6601  12.6646  12.8625  12.8680
    13.0860  13.0906  13.2605  13.2723  13.4162  13.4193  13.6484  13.6597
    13.7982  13.8071  14.0803  14.0893  14.4908  14.5177  14.8225  14.8504
    15.0891  15.1083  15.1682  15.1858  15.4888  15.5009  15.6282  15.6466
    16.1999  16.2081  16.4203  16.4319  17.2574  17.2868

     occupation numbers 
     1.0000   1.0000   1.0000   1.0000   1.0000   1.0000   1.0000   1.0000
     1.0000   1.0000   1.0000   1.0000   1.0000   1.0000   1.0000   1.0000
     1.0000   1.0000   1.0000   1.0000   1.0000   1.0000   1.0000   1.0000
     1.0000   1.0000   1.0000   1.0000   1.0000   1.0000   1.0000   1.0000
     1.0000   1.0000   1.0000   1.0000   1.0000   1.0000   1.0000   1.0000
     1.0000   1.0000   1.0000   1.0000   1.0000   1.0000   1.0000   1.0000
     1.0000   1.0000   1.0000   1.0000   1.0000   1.0000   1.0000   1.0000
     1.0000   1.0000   1.0000   1.0000   1.0000   1.0000   1.0000   1.0000
     1.0000   1.0000   1.0000   1.0000   1.0178   1.0222   0.8694   0.8079
     0.1406   0.1029   0.0175   0.0012  -0.0094  -0.0081  -0.0014  -0.0010
    -0.0000  -0.0000  -0.0000  -0.0000  -0.0000  -0.0000

          k =-0.1250-0.5000 0.2500 ( 14856 PWs)   bands (ev):

   -56.4929 -56.4929 -56.4929 -56.4929 -56.4729 -56.4729 -56.4729 -56.4729
   -28.5768 -28.5768 -28.5718 -28.5718 -28.5255 -28.5255 -28.5220 -28.5220
   -27.6216 -27.6216 -27.5698 -27.5698 -27.5550 -27.5550 -27.5270 -27.5270
   -27.5153 -27.5153 -27.4783 -27.4783 -27.4523 -27.4523 -27.4288 -27.4288
     4.7792   4.7792   4.7800   4.7800   7.4702   7.4702   7.4747   7.4747
     9.7732   9.7732   9.7742   9.7742  11.2725  11.2725  11.2776  11.2776
    11.9381  11.9381  11.9431  11.9431  12.7559  12.7559  12.7659  12.7659
    13.1606  13.1606  13.1693  13.1693  13.5621  13.5621  13.5704  13.5704
    13.9660  13.9660  13.9753  13.9753  14.6823  14.6823  14.7158  14.7158
    15.0830  15.0830  15.1081  15.1081  15.5359  15.5359  15.5578  15.5578
    16.2931  16.2931  16.3036  16.3036  17.4722  17.4773

     occupation numbers 
     1.0000   1.0000   1.0000   1.0000   1.0000   1.0000   1.0000   1.0000
     1.0000   1.0000   1.0000   1.0000   1.0000   1.0000   1.0000   1.0000
     1.0000   1.0000   1.0000   1.0000   1.0000   1.0000   1.0000   1.0000
     1.0000   1.0000   1.0000   1.0000   1.0000   1.0000   1.0000   1.0000
     1.0000   1.0000   1.0000   1.0000   1.0000   1.0000   1.0000   1.0000
     1.0000   1.0000   1.0000   1.0000   1.0000   1.0000   1.0000   1.0000
     1.0000   1.0000   1.0000   1.0000   1.0000   1.0000   1.0000   1.0000
     1.0000   1.0000   1.0000   1.0000   1.0000   1.0000   1.0000   1.0000
     1.0000   1.0000   1.0000   1.0000   1.0265   1.0265   1.0097   1.0097
     0.1534   0.1534   0.1033   0.1033  -0.0053  -0.0053  -0.0039  -0.0039
    -0.0000  -0.0000  -0.0000  -0.0000  -0.0000  -0.0000

          k =-0.1250-0.5000 0.3750 ( 14848 PWs)   bands (ev):

   -56.4915 -56.4915 -56.4915 -56.4915 -56.4743 -56.4743 -56.4743 -56.4743
   -28.5720 -28.5720 -28.5685 -28.5685 -28.5299 -28.5299 -28.5271 -28.5271
   -27.6111 -27.6111 -27.5822 -27.5822 -27.5479 -27.5479 -27.5275 -27.5275
   -27.5162 -27.5162 -27.4912 -27.4912 -27.4422 -27.4422 -27.4290 -27.4290
     5.1716   5.1716   5.1727   5.1727   6.8561   6.8561   6.8590   6.8590
     9.9475   9.9475   9.9501   9.9501  11.1556  11.1556  11.1588  11.1588
    11.9558  11.9558  11.9612  11.9612  12.4587  12.4587  12.4680  12.4680
    13.2347  13.2347  13.2406  13.2406  13.7825  13.7825  13.7956  13.7956
    14.1947  14.1947  14.2033  14.2033  14.6807  14.6807  14.7076  14.7076
    14.8705  14.8705  14.9093  14.9093  15.4218  15.4218  15.4381  15.4381
    16.4166  16.4167  16.4279  16.4279  17.1533  17.1538

     occupation numbers 
     1.0000   1.0000   1.0000   1.0000   1.0000   1.0000   1.0000   1.0000
     1.0000   1.0000   1.0000   1.0000   1.0000   1.0000   1.0000   1.0000
     1.0000   1.0000   1.0000   1.0000   1.0000   1.0000   1.0000   1.0000
     1.0000   1.0000   1.0000   1.0000   1.0000   1.0000   1.0000   1.0000
     1.0000   1.0000   1.0000   1.0000   1.0000   1.0000   1.0000   1.0000
     1.0000   1.0000   1.0000   1.0000   1.0000   1.0000   1.0000   1.0000
     1.0000   1.0000   1.0000   1.0000   1.0000   1.0000   1.0000   1.0000
     1.0000   1.0000   1.0000   1.0000   1.0000   1.0000   1.0000   1.0000
     1.0003   1.0003   1.0003   1.0003   1.0270   1.0270   1.0149   1.0149
     0.7576   0.7575   0.6493   0.6493  -0.0184  -0.0184  -0.0159  -0.0159
    -0.0000  -0.0000  -0.0000  -0.0000  -0.0000  -0.0000

          k =-0.2500-0.5000 0.3750 ( 14862 PWs)   bands (ev):

   -56.4898 -56.4898 -56.4898 -56.4898 -56.4760 -56.4760 -56.4760 -56.4760
   -28.5682 -28.5682 -28.5648 -28.5648 -28.5345 -28.5345 -28.5316 -28.5316
   -27.6061 -27.6061 -27.5790 -27.5790 -27.5587 -27.5587 -27.5355 -27.5355
   -27.5075 -27.5075 -27.4790 -27.4790 -27.4489 -27.4489 -27.4320 -27.4320
     5.4110   5.4110   5.4126   5.4126   6.9217   6.9217   6.9264   6.9264
     9.2751   9.2751   9.2799   9.2799  10.7789  10.7789  10.7815  10.7815
    12.2816  12.2816  12.2898  12.2898  12.7243  12.7243  12.7343  12.7343
    13.1124  13.1124  13.1213  13.1213  13.5305  13.5305  13.5423  13.5423
    14.3848  14.3848  14.3920  14.3920  14.8017  14.8017  14.8201  14.8201
    14.9986  14.9986  15.0302  15.0302  15.3386  15.3386  15.3527  15.3527
    16.3593  16.3594  16.3692  16.3692  17.0067  17.0077

     occupation numbers 
     1.0000   1.0000   1.0000   1.0000   1.0000   1.0000   1.0000   1.0000
     1.0000   1.0000   1.0000   1.0000   1.0000   1.0000   1.0000   1.0000
     1.0000   1.0000   1.0000   1.0000   1.0000   1.0000   1.0000   1.0000
     1.0000   1.0000   1.0000   1.0000   1.0000   1.0000   1.0000   1.0000
     1.0000   1.0000   1.0000   1.0000   1.0000   1.0000   1.0000   1.0000
     1.0000   1.0000   1.0000   1.0000   1.0000   1.0000   1.0000   1.0000
     1.0000   1.0000   1.0000   1.0000   1.0000   1.0000   1.0000   1.0000
     1.0000   1.0000   1.0000   1.0000   1.0000   1.0000   1.0000   1.0000
     1.0056   1.0056   1.0061   1.0061   0.9085   0.9085   0.8742   0.8742
     0.3758   0.3758   0.2845   0.2845  -0.0318  -0.0318  -0.0298  -0.0298
    -0.0000  -0.0000  -0.0000  -0.0000  -0.0000  -0.0000

     the Fermi energy is    14.9582 ev

!    total energy              =   -1180.35222280 Ry

     total all-electron energy =    -10727.813059 Ry
     estimated scf accuracy    <       0.00000088 Ry
     smearing contrib. (-TS)   =      -0.00080471 Ry
     internal energy E=F+TS    =   -1180.35141809 Ry

     The total energy is F=E-TS. E is the sum of the following terms:
     one-electron contribution =    -336.81565219 Ry
     hartree contribution      =     207.05992435 Ry
     xc contribution           =    -114.36328139 Ry
     ewald contribution        =    -496.51183961 Ry
     one-center paw contrib.   =    -439.72056926 Ry
      -> PAW hartree energy AE =     126.74508092 Ry
      -> PAW hartree energy PS =    -125.77768621 Ry
      -> PAW xc energy AE      =     -96.24222416 Ry
      -> PAW xc energy PS      =      20.93484556 Ry
      -> total E_H with PAW    =     208.02731906 Ry
      -> total E_XC with PAW   =    -189.67065999 Ry

     convergence has been achieved in   6 iterations

     Writing output data file /zfs_data/vergnior/martin/Scratch/OAL/CrSi/convergence/cutoff/8x8x8/120/tmp/CrSi.save/
 
     init_run     :      9.87s CPU     10.20s WALL (       1 calls)
     electrons    :    219.95s CPU    224.46s WALL (       1 calls)

     Called by init_run:
     wfcinit      :      8.02s CPU      8.21s WALL (       1 calls)
     wfcinit:atom :      0.09s CPU      0.09s WALL (      45 calls)
     wfcinit:wfcr :      7.54s CPU      7.72s WALL (      45 calls)
     potinit      :      0.21s CPU      0.23s WALL (       1 calls)
     hinit0       :      0.23s CPU      0.24s WALL (       1 calls)

     Called by electrons:
     c_bands      :    170.42s CPU    172.83s WALL (       7 calls)
     sum_band     :     44.34s CPU     45.75s WALL (       7 calls)
     v_of_rho     :      0.26s CPU      0.27s WALL (       7 calls)
     v_h          :      0.02s CPU      0.02s WALL (       7 calls)
     v_xc         :      0.24s CPU      0.25s WALL (       7 calls)
     newd         :      4.62s CPU      5.32s WALL (       7 calls)
     PAW_pot      :      0.87s CPU      0.89s WALL (       7 calls)
     mix_rho      :      0.14s CPU      0.14s WALL (       7 calls)

     Called by c_bands:
     init_us_2    :      1.26s CPU      1.28s WALL (     675 calls)
     cegterg      :    151.60s CPU    153.89s WALL (     315 calls)

     Called by sum_band:
     sum_band:wei :      0.04s CPU      0.04s WALL (       7 calls)
     sum_band:loo :     40.35s CPU     40.86s WALL (       7 calls)
     sum_band:buf :      0.33s CPU      0.38s WALL (     315 calls)
     sum_band:ini :      0.61s CPU      0.62s WALL (     315 calls)
     sum_band:cal :      2.66s CPU      2.66s WALL (     315 calls)
     sum_band:bec :      4.01s CPU      4.02s WALL (     315 calls)
     addusdens    :      3.84s CPU      4.74s WALL (       7 calls)
     addusd:skk   :      0.01s CPU      0.01s WALL (      14 calls)
     addusd:dgemm :      1.43s CPU      2.30s WALL (      14 calls)
     addusd:qvan2 :      2.36s CPU      2.37s WALL (      14 calls)

     Called by *egterg:
     cdiaghg      :     11.41s CPU     11.50s WALL (    1596 calls)
     cegterg:over :      8.67s CPU      8.70s WALL (    1326 calls)
     cegterg:upda :      5.12s CPU      5.14s WALL (    1326 calls)
     cegterg:last :      8.64s CPU      8.67s WALL (     823 calls)
     h_psi        :    105.63s CPU    107.84s WALL (    1686 calls)
     s_psi        :     14.75s CPU     14.81s WALL (    1686 calls)
     g_psi        :      0.33s CPU      0.33s WALL (    1326 calls)

     Called by h_psi:
     h_psi:calbec :      9.01s CPU      9.06s WALL (    1686 calls)
     vloc_psi     :     82.00s CPU     84.05s WALL (    1686 calls)
     add_vuspsi   :     13.87s CPU     13.96s WALL (    1686 calls)

     General routines
     calbec       :     11.65s CPU     11.72s WALL (    2001 calls)
     fft          :      0.26s CPU      0.26s WALL (     144 calls)
     ffts         :      0.02s CPU      0.02s WALL (      56 calls)
     fftw         :     61.02s CPU     62.38s WALL (  415688 calls)
     interpolate  :      0.06s CPU      0.07s WALL (      28 calls)
 
     Parallel routines
     fft_scatt_xy :     11.85s CPU     12.09s WALL (  415888 calls)
     fft_scatt_yz :     28.47s CPU     29.20s WALL (  415888 calls)

     PAW routines
     PAW_pot      :      0.87s CPU      0.89s WALL (       7 calls)
     PAW_symme    :      0.01s CPU      0.01s WALL (      14 calls)
 
     PWSCF        :   3m53.64s CPU   4m 1.02s WALL

 
   This run was terminated on:  18:54:32  30Jul2021            

=------------------------------------------------------------------------------=
   JOB DONE.
=------------------------------------------------------------------------------=
