
     Program PWSCF v.6.7MaX starts on 18May2022 at 15:58: 6 

     This program is part of the open-source Quantum ESPRESSO suite
     for quantum simulation of materials; please cite
         "P. Giannozzi et al., J. Phys.:Condens. Matter 21 395502 (2009);
         "P. Giannozzi et al., J. Phys.:Condens. Matter 29 465901 (2017);
          URL http://www.quantum-espresso.org", 
     in publications or presentations arising from this work. More details at
     http://www.quantum-espresso.org/quote

     Parallel version (MPI), running on    48 processors

     MPI processes distributed on     1 nodes
     R & G space division:  proc/nbgrp/npool/nimage =      48
     Waiting for input...
     Reading input from standard input

     Current dimensions of program PWSCF are:
     Max number of different atomic species (ntypx) = 10
     Max number of k-points (npk) =  40000
     Max angular momentum in pseudopotentials (lmaxx) =  3
     file O.pbe-nl-kjpaw_psl.1.0.0.UPF: wavefunction(s)  2S 2P renormalized
     file Cl.pbe-nl-kjpaw_psl.1.0.0.UPF: wavefunction(s)  3S renormalized
     file Nb.pbe-spn-kjpaw_psl.1.0.0.UPF: wavefunction(s)  4S 4P 4D renormalized

     Subspace diagonalization in iterative solution of the eigenvalue problem:
     a serial algorithm will be used

     Message from routine setup:
     using ibrav=0 with symmetry is DISCOURAGED, use correct ibrav instead
 
     Parallelization info
     --------------------
     sticks:   dense  smooth     PW     G-vecs:    dense   smooth      PW
     Min         150      60     19                 4360     1102     208
     Max         151      61     20                 4363     1104     211
     Sum        7247    2901    949               209365    52925   10049
 


     bravais-lattice index     =            0
     lattice parameter (alat)  =      12.6717  a.u.
     unit-cell volume          =     547.9313 (a.u.)^3
     number of atoms/cell      =            4
     number of atomic types    =            3
     number of electrons       =        33.00
     number of Kohn-Sham states=           21
     kinetic-energy cutoff     =      80.0000  Ry
     charge density cutoff     =     800.0000  Ry
     scf convergence threshold =      1.0E-10
     mixing beta               =       0.7000
     number of iterations used =            8  plain     mixing
     Exchange-correlation= SLA  PW   PBX  PBC
                           (   1   4   3   4   0   0   0)

     celldm(1)=  12.671676  celldm(2)=   0.000000  celldm(3)=   0.000000
     celldm(4)=   0.000000  celldm(5)=   0.000000  celldm(6)=   0.000000

     crystal axes: (cart. coord. in units of alat)
               a(1) = (  -0.250426   0.291161   0.923316 )  
               a(2) = (   0.250426  -0.291161   0.923316 )  
               a(3) = (   0.250426   0.291161  -0.923316 )  

     reciprocal axes: (cart. coord. in units 2 pi/alat)
               b(1) = (  0.000000  1.717261  0.541527 )  
               b(2) = (  1.996594  0.000000  0.541527 )  
               b(3) = (  1.996594  1.717261  0.000000 )  


     PseudoPot. # 1 for O  read from file:
     /zfs_data/gutierre/Scratch/Cl2NbO/convergence/cutoff/14x14x14/80/pseudo/O.pbe-nl-kjpaw_psl.1.0.0.UPF
     MD5 check sum: df3ddea38124b4e5de5e1084591730e4
     Pseudo is Projector augmented-wave + core cor, Zval =  6.0
     Generated using 'atomic' code by A. Dal Corso  v.6.7MaX
     Shape of augmentation charge: PSQ
     Using radial grid of 1095 points,  4 beta functions with: 
                l(1) =   0
                l(2) =   0
                l(3) =   1
                l(4) =   1
     Q(r) pseudized with 0 coefficients 


     PseudoPot. # 2 for Cl read from file:
     /zfs_data/gutierre/Scratch/Cl2NbO/convergence/cutoff/14x14x14/80/pseudo/Cl.pbe-nl-kjpaw_psl.1.0.0.UPF
     MD5 check sum: 8cf6bde52c08f6236e0f72a8870677af
     Pseudo is Projector augmented-wave + core cor, Zval =  7.0
     Generated using 'atomic' code by A. Dal Corso  v.6.7MaX
     Shape of augmentation charge: PSQ
     Using radial grid of 1157 points,  4 beta functions with: 
                l(1) =   0
                l(2) =   0
                l(3) =   1
                l(4) =   1
     Q(r) pseudized with 0 coefficients 


     PseudoPot. # 3 for Nb read from file:
     /zfs_data/gutierre/Scratch/Cl2NbO/convergence/cutoff/14x14x14/80/pseudo/Nb.pbe-spn-kjpaw_psl.1.0.0.UPF
     MD5 check sum: 1ec1a3aa7bf3cbf7f7e0d720422bce7a
     Pseudo is Projector augmented-wave + core cor, Zval = 13.0
     Generated using 'atomic' code by A. Dal Corso  v.6.7MaX
     Shape of augmentation charge: PSQ
     Using radial grid of 1227 points,  6 beta functions with: 
                l(1) =   0
                l(2) =   0
                l(3) =   1
                l(4) =   1
                l(5) =   2
                l(6) =   2
     Q(r) pseudized with 0 coefficients 


     atomic species   valence    mass     pseudopotential
        O              6.00    15.99940     O ( 1.00)
        Cl             7.00    35.45150     Cl( 1.00)
        Nb            13.00    92.90637     Nb( 1.00)

      8 Sym. Ops., with inversion, found


                                    s                        frac. trans.

      isym =  1     identity                                     

 cryst.   s( 1) = (     1          0          0      )
                  (     0          1          0      )
                  (     0          0          1      )

 cart.    s( 1) = (  1.0000000  0.0000000  0.0000000 )
                  (  0.0000000  1.0000000  0.0000000 )
                  (  0.0000000  0.0000000  1.0000000 )


      isym =  2     180 deg rotation - cart. axis [0,0,1]        

 cryst.   s( 2) = (     0          1          0      )
                  (     1          0          0      )
                  (    -1         -1         -1      )

 cart.    s( 2) = ( -1.0000000  0.0000000  0.0000000 )
                  (  0.0000000 -1.0000000  0.0000000 )
                  (  0.0000000  0.0000000  1.0000000 )


      isym =  3     180 deg rotation - cart. axis [0,1,0]        

 cryst.   s( 3) = (     0          0          1      )
                  (    -1         -1         -1      )
                  (     1          0          0      )

 cart.    s( 3) = ( -1.0000000  0.0000000  0.0000000 )
                  (  0.0000000  1.0000000  0.0000000 )
                  (  0.0000000  0.0000000 -1.0000000 )


      isym =  4     180 deg rotation - cart. axis [1,0,0]        

 cryst.   s( 4) = (    -1         -1         -1      )
                  (     0          0          1      )
                  (     0          1          0      )

 cart.    s( 4) = (  1.0000000  0.0000000  0.0000000 )
                  (  0.0000000 -1.0000000  0.0000000 )
                  (  0.0000000  0.0000000 -1.0000000 )


      isym =  5     inversion                                    

 cryst.   s( 5) = (    -1          0          0      )
                  (     0         -1          0      )
                  (     0          0         -1      )

 cart.    s( 5) = ( -1.0000000  0.0000000  0.0000000 )
                  (  0.0000000 -1.0000000  0.0000000 )
                  (  0.0000000  0.0000000 -1.0000000 )


      isym =  6     inv. 180 deg rotation - cart. axis [0,0,1]   

 cryst.   s( 6) = (     0         -1          0      )
                  (    -1          0          0      )
                  (     1          1          1      )

 cart.    s( 6) = (  1.0000000  0.0000000  0.0000000 )
                  (  0.0000000  1.0000000  0.0000000 )
                  (  0.0000000  0.0000000 -1.0000000 )


      isym =  7     inv. 180 deg rotation - cart. axis [0,1,0]   

 cryst.   s( 7) = (     0          0         -1      )
                  (     1          1          1      )
                  (    -1          0          0      )

 cart.    s( 7) = (  1.0000000  0.0000000  0.0000000 )
                  (  0.0000000 -1.0000000  0.0000000 )
                  (  0.0000000  0.0000000  1.0000000 )


      isym =  8     inv. 180 deg rotation - cart. axis [1,0,0]   

 cryst.   s( 8) = (     1          1          1      )
                  (     0          0         -1      )
                  (     0         -1          0      )

 cart.    s( 8) = ( -1.0000000  0.0000000  0.0000000 )
                  (  0.0000000  1.0000000  0.0000000 )
                  (  0.0000000  0.0000000  1.0000000 )


   Cartesian axes

     site n.     atom                  positions (alat units)
         1           O   tau(   1) = (   0.0000000   0.2911613   0.0000000  )
         2           Cl  tau(   2) = (  -0.0000000   0.2911613   0.6365338  )
         3           Cl  tau(   3) = (   0.2504264  -0.0000000   0.2867819  )
         4           Nb  tau(   4) = (   0.0000000   0.0000000   0.0000000  )

   Crystallographic axes

     site n.     atom                  positions (cryst. coord.)
         1           O   tau(   1) = (  0.5000000  0.0000000  0.5000000  )
         2           Cl  tau(   2) = (  0.8447000  0.3447000  0.5000000  )
         3           Cl  tau(   3) = (  0.1553000  0.6553000  0.5000000  )
         4           Nb  tau(   4) = (  0.0000000  0.0000000  0.0000000  )

     number of k points=   428  Methfessel-Paxton smearing, width (Ry)=  0.0120
                       cart. coord. in units 2pi/alat
        k(    1) = (   0.0000000   0.0000000   0.0000000), wk =   0.0007289
        k(    2) = (   0.1426139   0.1226615   0.0000000), wk =   0.0029155
        k(    3) = (   0.2852278   0.2453230   0.0000000), wk =   0.0029155
        k(    4) = (   0.4278416   0.3679846   0.0000000), wk =   0.0029155
        k(    5) = (   0.5704555   0.4906461   0.0000000), wk =   0.0029155
        k(    6) = (   0.7130694   0.6133076   0.0000000), wk =   0.0029155
        k(    7) = (   0.8556833   0.7359691   0.0000000), wk =   0.0029155
        k(    8) = (  -0.9982971  -0.8586307   0.0000000), wk =   0.0014577
        k(    9) = (   0.1426139   0.0000000   0.0386805), wk =   0.0029155
        k(   10) = (   0.2852278   0.1226615   0.0386805), wk =   0.0058309
        k(   11) = (   0.4278416   0.2453230   0.0386805), wk =   0.0058309
        k(   12) = (   0.5704555   0.3679846   0.0386805), wk =   0.0058309
        k(   13) = (   0.7130694   0.4906461   0.0386805), wk =   0.0058309
        k(   14) = (   0.8556833   0.6133076   0.0386805), wk =   0.0058309
        k(   15) = (   0.9982971   0.7359691   0.0386805), wk =   0.0058309
        k(   16) = (  -0.8556833  -0.8586307   0.0386805), wk =   0.0058309
        k(   17) = (  -0.7130694  -0.7359691   0.0386805), wk =   0.0058309
        k(   18) = (  -0.5704555  -0.6133076   0.0386805), wk =   0.0058309
        k(   19) = (  -0.4278416  -0.4906461   0.0386805), wk =   0.0058309
        k(   20) = (  -0.2852278  -0.3679846   0.0386805), wk =   0.0058309
        k(   21) = (  -0.1426139  -0.2453230   0.0386805), wk =   0.0058309
        k(   22) = (   0.0000000  -0.1226615   0.0386805), wk =   0.0029155
        k(   23) = (   0.2852278   0.0000000   0.0773609), wk =   0.0029155
        k(   24) = (   0.4278416   0.1226615   0.0773609), wk =   0.0058309
        k(   25) = (   0.5704555   0.2453230   0.0773609), wk =   0.0058309
        k(   26) = (   0.7130694   0.3679846   0.0773609), wk =   0.0058309
        k(   27) = (   0.8556833   0.4906461   0.0773609), wk =   0.0058309
        k(   28) = (   0.9982971   0.6133076   0.0773609), wk =   0.0058309
        k(   29) = (   1.1409110   0.7359691   0.0773609), wk =   0.0058309
        k(   30) = (  -0.7130694  -0.8586307   0.0773609), wk =   0.0058309
        k(   31) = (  -0.5704555  -0.7359691   0.0773609), wk =   0.0058309
        k(   32) = (  -0.4278416  -0.6133076   0.0773609), wk =   0.0058309
        k(   33) = (  -0.2852278  -0.4906461   0.0773609), wk =   0.0058309
        k(   34) = (  -0.1426139  -0.3679846   0.0773609), wk =   0.0058309
        k(   35) = (  -0.0000000  -0.2453230   0.0773609), wk =   0.0029155
        k(   36) = (   0.1426139  -0.1226615   0.0773609), wk =   0.0058309
        k(   37) = (   0.4278416   0.0000000   0.1160414), wk =   0.0029155
        k(   38) = (   0.5704555   0.1226615   0.1160414), wk =   0.0058309
        k(   39) = (   0.7130694   0.2453230   0.1160414), wk =   0.0058309
        k(   40) = (   0.8556833   0.3679846   0.1160414), wk =   0.0058309
        k(   41) = (   0.9982971   0.4906461   0.1160414), wk =   0.0058309
        k(   42) = (   1.1409110   0.6133076   0.1160414), wk =   0.0058309
        k(   43) = (   1.2835249   0.7359691   0.1160414), wk =   0.0058309
        k(   44) = (  -0.5704555  -0.8586307   0.1160414), wk =   0.0058309
        k(   45) = (  -0.4278416  -0.7359691   0.1160414), wk =   0.0058309
        k(   46) = (  -0.2852278  -0.6133076   0.1160414), wk =   0.0058309
        k(   47) = (  -0.1426139  -0.4906461   0.1160414), wk =   0.0058309
        k(   48) = (  -0.0000000  -0.3679846   0.1160414), wk =   0.0029155
        k(   49) = (   0.1426139  -0.2453230   0.1160414), wk =   0.0058309
        k(   50) = (   0.2852278  -0.1226615   0.1160414), wk =   0.0058309
        k(   51) = (   0.5704555   0.0000000   0.1547219), wk =   0.0029155
        k(   52) = (   0.7130694   0.1226615   0.1547219), wk =   0.0058309
        k(   53) = (   0.8556833   0.2453230   0.1547219), wk =   0.0058309
        k(   54) = (   0.9982971   0.3679846   0.1547219), wk =   0.0058309
        k(   55) = (   1.1409110   0.4906461   0.1547219), wk =   0.0058309
        k(   56) = (   1.2835249   0.6133076   0.1547219), wk =   0.0058309
        k(   57) = (   1.4261388   0.7359691   0.1547219), wk =   0.0058309
        k(   58) = (  -0.4278416  -0.8586307   0.1547219), wk =   0.0058309
        k(   59) = (  -0.2852278  -0.7359691   0.1547219), wk =   0.0058309
        k(   60) = (  -0.1426139  -0.6133076   0.1547219), wk =   0.0058309
        k(   61) = (   0.0000000  -0.4906461   0.1547219), wk =   0.0029155
        k(   62) = (   0.1426139  -0.3679846   0.1547219), wk =   0.0058309
        k(   63) = (   0.2852278  -0.2453230   0.1547219), wk =   0.0058309
        k(   64) = (   0.4278416  -0.1226615   0.1547219), wk =   0.0058309
        k(   65) = (   0.7130694   0.0000000   0.1934024), wk =   0.0029155
        k(   66) = (   0.8556833   0.1226615   0.1934024), wk =   0.0058309
        k(   67) = (   0.9982971   0.2453230   0.1934024), wk =   0.0058309
        k(   68) = (   1.1409110   0.3679846   0.1934024), wk =   0.0058309
        k(   69) = (   1.2835249   0.4906461   0.1934024), wk =   0.0058309
        k(   70) = (   1.4261388   0.6133076   0.1934024), wk =   0.0058309
        k(   71) = (   1.5687527   0.7359691   0.1934024), wk =   0.0058309
        k(   72) = (  -0.2852278  -0.8586307   0.1934024), wk =   0.0058309
        k(   73) = (  -0.1426139  -0.7359691   0.1934024), wk =   0.0058309
        k(   74) = (   0.0000000  -0.6133076   0.1934024), wk =   0.0029155
        k(   75) = (   0.1426139  -0.4906461   0.1934024), wk =   0.0058309
        k(   76) = (   0.2852278  -0.3679846   0.1934024), wk =   0.0058309
        k(   77) = (   0.4278416  -0.2453230   0.1934024), wk =   0.0058309
        k(   78) = (   0.5704555  -0.1226615   0.1934024), wk =   0.0058309
        k(   79) = (   0.8556833   0.0000000   0.2320828), wk =   0.0029155
        k(   80) = (   0.9982971   0.1226615   0.2320828), wk =   0.0058309
        k(   81) = (   1.1409110   0.2453230   0.2320828), wk =   0.0058309
        k(   82) = (   1.2835249   0.3679846   0.2320828), wk =   0.0058309
        k(   83) = (   1.4261388   0.4906461   0.2320828), wk =   0.0058309
        k(   84) = (   1.5687527   0.6133076   0.2320828), wk =   0.0058309
        k(   85) = (   1.7113665   0.7359691   0.2320828), wk =   0.0058309
        k(   86) = (  -0.1426139  -0.8586307   0.2320828), wk =   0.0058309
        k(   87) = (  -0.0000000  -0.7359691   0.2320828), wk =   0.0029155
        k(   88) = (   0.1426139  -0.6133076   0.2320828), wk =   0.0058309
        k(   89) = (   0.2852278  -0.4906461   0.2320828), wk =   0.0058309
        k(   90) = (   0.4278416  -0.3679846   0.2320828), wk =   0.0058309
        k(   91) = (   0.5704555  -0.2453230   0.2320828), wk =   0.0058309
        k(   92) = (   0.7130694  -0.1226615   0.2320828), wk =   0.0058309
        k(   93) = (  -0.9982971   0.0000000  -0.2707633), wk =   0.0014577
        k(   94) = (  -0.8556833   0.1226615  -0.2707633), wk =   0.0058309
        k(   95) = (  -0.7130694   0.2453230  -0.2707633), wk =   0.0058309
        k(   96) = (  -0.5704555   0.3679846  -0.2707633), wk =   0.0058309
        k(   97) = (  -0.4278416   0.4906461  -0.2707633), wk =   0.0058309
        k(   98) = (  -0.2852278   0.6133076  -0.2707633), wk =   0.0058309
        k(   99) = (  -0.1426139   0.7359691  -0.2707633), wk =   0.0058309
        k(  100) = (  -1.9965943  -0.8586307  -0.2707633), wk =   0.0014577
        k(  101) = (   0.2852278   0.2453230   0.0773609), wk =   0.0058309
        k(  102) = (   0.4278416   0.3679846   0.0773609), wk =   0.0058309
        k(  103) = (   0.5704555   0.4906461   0.0773609), wk =   0.0058309
        k(  104) = (   0.7130694   0.6133076   0.0773609), wk =   0.0058309
        k(  105) = (   0.8556833   0.7359691   0.0773609), wk =   0.0058309
        k(  106) = (   0.9982971   0.8586307   0.0773609), wk =   0.0029155
        k(  107) = (   0.0000000   0.0000000   0.0773609), wk =   0.0014577
        k(  108) = (   0.4278416   0.2453230   0.1160414), wk =   0.0058309
        k(  109) = (   0.5704555   0.3679846   0.1160414), wk =   0.0058309
        k(  110) = (   0.7130694   0.4906461   0.1160414), wk =   0.0058309
        k(  111) = (   0.8556833   0.6133076   0.1160414), wk =   0.0058309
        k(  112) = (   0.9982971   0.7359691   0.1160414), wk =   0.0058309
        k(  113) = (   1.1409110   0.8586307   0.1160414), wk =   0.0058309
        k(  114) = (  -0.7130694  -0.7359691   0.1160414), wk =   0.0058309
        k(  115) = (  -0.5704555  -0.6133076   0.1160414), wk =   0.0058309
        k(  116) = (  -0.4278416  -0.4906461   0.1160414), wk =   0.0058309
        k(  117) = (  -0.2852278  -0.3679846   0.1160414), wk =   0.0058309
        k(  118) = (  -0.0000000  -0.1226615   0.1160414), wk =   0.0029155
        k(  119) = (   0.1426139   0.0000000   0.1160414), wk =   0.0029155
        k(  120) = (   0.5704555   0.2453230   0.1547219), wk =   0.0058309
        k(  121) = (   0.7130694   0.3679846   0.1547219), wk =   0.0058309
        k(  122) = (   0.8556833   0.4906461   0.1547219), wk =   0.0058309
        k(  123) = (   0.9982971   0.6133076   0.1547219), wk =   0.0058309
        k(  124) = (   1.1409110   0.7359691   0.1547219), wk =   0.0058309
        k(  125) = (   1.2835249   0.8586307   0.1547219), wk =   0.0058309
        k(  126) = (  -0.5704555  -0.7359691   0.1547219), wk =   0.0058309
        k(  127) = (  -0.4278416  -0.6133076   0.1547219), wk =   0.0058309
        k(  128) = (  -0.2852278  -0.4906461   0.1547219), wk =   0.0058309
        k(  129) = (  -0.0000000  -0.2453230   0.1547219), wk =   0.0029155
        k(  130) = (   0.1426139  -0.1226615   0.1547219), wk =   0.0058309
        k(  131) = (   0.2852278   0.0000000   0.1547219), wk =   0.0029155
        k(  132) = (   0.7130694   0.2453230   0.1934024), wk =   0.0058309
        k(  133) = (   0.8556833   0.3679846   0.1934024), wk =   0.0058309
        k(  134) = (   0.9982971   0.4906461   0.1934024), wk =   0.0058309
        k(  135) = (   1.1409110   0.6133076   0.1934024), wk =   0.0058309
        k(  136) = (   1.2835249   0.7359691   0.1934024), wk =   0.0058309
        k(  137) = (   1.4261388   0.8586307   0.1934024), wk =   0.0058309
        k(  138) = (  -0.4278416  -0.7359691   0.1934024), wk =   0.0058309
        k(  139) = (  -0.2852278  -0.6133076   0.1934024), wk =   0.0058309
        k(  140) = (   0.0000000  -0.3679846   0.1934024), wk =   0.0029155
        k(  141) = (   0.1426139  -0.2453230   0.1934024), wk =   0.0058309
        k(  142) = (   0.2852278  -0.1226615   0.1934024), wk =   0.0058309
        k(  143) = (   0.4278416   0.0000000   0.1934024), wk =   0.0029155
        k(  144) = (   0.8556833   0.2453230   0.2320828), wk =   0.0058309
        k(  145) = (   0.9982971   0.3679846   0.2320828), wk =   0.0058309
        k(  146) = (   1.1409110   0.4906461   0.2320828), wk =   0.0058309
        k(  147) = (   1.2835249   0.6133076   0.2320828), wk =   0.0058309
        k(  148) = (   1.4261388   0.7359691   0.2320828), wk =   0.0058309
        k(  149) = (   1.5687527   0.8586307   0.2320828), wk =   0.0058309
        k(  150) = (  -0.2852278  -0.7359691   0.2320828), wk =   0.0058309
        k(  151) = (   0.0000000  -0.4906461   0.2320828), wk =   0.0029155
        k(  152) = (   0.1426139  -0.3679846   0.2320828), wk =   0.0058309
        k(  153) = (   0.2852278  -0.2453230   0.2320828), wk =   0.0058309
        k(  154) = (   0.4278416  -0.1226615   0.2320828), wk =   0.0058309
        k(  155) = (   0.5704555   0.0000000   0.2320828), wk =   0.0029155
        k(  156) = (   0.9982971   0.2453230   0.2707633), wk =   0.0029155
        k(  157) = (   1.1409110   0.3679846   0.2707633), wk =   0.0058309
        k(  158) = (   1.2835249   0.4906461   0.2707633), wk =   0.0058309
        k(  159) = (   1.4261388   0.6133076   0.2707633), wk =   0.0058309
        k(  160) = (   1.5687527   0.7359691   0.2707633), wk =   0.0058309
        k(  161) = (   1.7113665   0.8586307   0.2707633), wk =   0.0029155
        k(  162) = (  -0.0000000  -0.6133076   0.2707633), wk =   0.0029155
        k(  163) = (   0.1426139  -0.4906461   0.2707633), wk =   0.0058309
        k(  164) = (   0.2852278  -0.3679846   0.2707633), wk =   0.0058309
        k(  165) = (   0.4278416  -0.2453230   0.2707633), wk =   0.0058309
        k(  166) = (   0.5704555  -0.1226615   0.2707633), wk =   0.0058309
        k(  167) = (   0.7130694   0.0000000   0.2707633), wk =   0.0029155
        k(  168) = (  -0.7130694   0.3679846  -0.2320828), wk =   0.0058309
        k(  169) = (  -0.5704555   0.4906461  -0.2320828), wk =   0.0058309
        k(  170) = (  -0.4278416   0.6133076  -0.2320828), wk =   0.0058309
        k(  171) = (  -1.9965943  -0.7359691  -0.2320828), wk =   0.0029155
        k(  172) = (  -1.8539804  -0.6133076  -0.2320828), wk =   0.0058309
        k(  173) = (  -1.7113665  -0.4906461  -0.2320828), wk =   0.0058309
        k(  174) = (  -1.5687527  -0.3679846  -0.2320828), wk =   0.0058309
        k(  175) = (  -1.4261388  -0.2453230  -0.2320828), wk =   0.0058309
        k(  176) = (  -1.2835249  -0.1226615  -0.2320828), wk =   0.0058309
        k(  177) = (  -1.1409110   0.0000000  -0.2320828), wk =   0.0029155
        k(  178) = (  -0.5704555   0.3679846  -0.1934024), wk =   0.0058309
        k(  179) = (  -0.4278416   0.4906461  -0.1934024), wk =   0.0058309
        k(  180) = (  -0.0000000   0.8586307  -0.1934024), wk =   0.0029155
        k(  181) = (  -1.8539804  -0.7359691  -0.1934024), wk =   0.0058309
        k(  182) = (  -1.7113665  -0.6133076  -0.1934024), wk =   0.0058309
        k(  183) = (  -1.5687527  -0.4906461  -0.1934024), wk =   0.0058309
        k(  184) = (  -1.4261388  -0.3679846  -0.1934024), wk =   0.0058309
        k(  185) = (  -1.2835249  -0.2453230  -0.1934024), wk =   0.0058309
        k(  186) = (  -1.1409110  -0.1226615  -0.1934024), wk =   0.0058309
        k(  187) = (  -0.9982971   0.0000000  -0.1934024), wk =   0.0029155
        k(  188) = (  -0.4278416   0.3679846  -0.1547219), wk =   0.0058309
        k(  189) = (   0.0000000   0.7359691  -0.1547219), wk =   0.0029155
        k(  190) = (   0.1426139   0.8586307  -0.1547219), wk =   0.0058309
        k(  191) = (  -1.7113665  -0.7359691  -0.1547219), wk =   0.0058309
        k(  192) = (  -1.5687527  -0.6133076  -0.1547219), wk =   0.0058309
        k(  193) = (  -1.4261388  -0.4906461  -0.1547219), wk =   0.0058309
        k(  194) = (  -1.2835249  -0.3679846  -0.1547219), wk =   0.0058309
        k(  195) = (  -1.1409110  -0.2453230  -0.1547219), wk =   0.0058309
        k(  196) = (  -0.9982971  -0.1226615  -0.1547219), wk =   0.0058309
        k(  197) = (  -0.8556833   0.0000000  -0.1547219), wk =   0.0029155
        k(  198) = (   0.0000000   0.6133076  -0.1160414), wk =   0.0029155
        k(  199) = (   0.1426139   0.7359691  -0.1160414), wk =   0.0058309
        k(  200) = (   0.2852278   0.8586307  -0.1160414), wk =   0.0058309
        k(  201) = (  -1.5687527  -0.7359691  -0.1160414), wk =   0.0058309
        k(  202) = (  -1.4261388  -0.6133076  -0.1160414), wk =   0.0058309
        k(  203) = (  -1.2835249  -0.4906461  -0.1160414), wk =   0.0058309
        k(  204) = (  -1.1409110  -0.3679846  -0.1160414), wk =   0.0058309
        k(  205) = (  -0.9982971  -0.2453230  -0.1160414), wk =   0.0058309
        k(  206) = (  -0.8556833  -0.1226615  -0.1160414), wk =   0.0058309
        k(  207) = (  -0.7130694   0.0000000  -0.1160414), wk =   0.0029155
        k(  208) = (  -0.0000000   0.4906461  -0.0773609), wk =   0.0029155
        k(  209) = (   0.1426139   0.6133076  -0.0773609), wk =   0.0058309
        k(  210) = (   0.2852278   0.7359691  -0.0773609), wk =   0.0058309
        k(  211) = (   0.4278416   0.8586307  -0.0773609), wk =   0.0058309
        k(  212) = (  -1.4261388  -0.7359691  -0.0773609), wk =   0.0058309
        k(  213) = (  -1.2835249  -0.6133076  -0.0773609), wk =   0.0058309
        k(  214) = (  -1.1409110  -0.4906461  -0.0773609), wk =   0.0058309
        k(  215) = (  -0.9982971  -0.3679846  -0.0773609), wk =   0.0058309
        k(  216) = (  -0.8556833  -0.2453230  -0.0773609), wk =   0.0058309
        k(  217) = (  -0.7130694  -0.1226615  -0.0773609), wk =   0.0058309
        k(  218) = (  -0.5704555   0.0000000  -0.0773609), wk =   0.0029155
        k(  219) = (  -0.0000000   0.3679846  -0.0386805), wk =   0.0029155
        k(  220) = (   0.1426139   0.4906461  -0.0386805), wk =   0.0058309
        k(  221) = (   0.2852278   0.6133076  -0.0386805), wk =   0.0058309
        k(  222) = (   0.4278416   0.7359691  -0.0386805), wk =   0.0058309
        k(  223) = (   0.5704555   0.8586307  -0.0386805), wk =   0.0058309
        k(  224) = (  -1.2835249  -0.7359691  -0.0386805), wk =   0.0058309
        k(  225) = (  -1.1409110  -0.6133076  -0.0386805), wk =   0.0058309
        k(  226) = (  -0.9982971  -0.4906461  -0.0386805), wk =   0.0058309
        k(  227) = (  -0.8556833  -0.3679846  -0.0386805), wk =   0.0058309
        k(  228) = (  -0.7130694  -0.2453230  -0.0386805), wk =   0.0058309
        k(  229) = (  -0.5704555  -0.1226615  -0.0386805), wk =   0.0058309
        k(  230) = (  -0.4278416   0.0000000  -0.0386805), wk =   0.0029155
        k(  231) = (   0.0000000   0.2453230   0.0000000), wk =   0.0014577
        k(  232) = (   0.1426139   0.3679846   0.0000000), wk =   0.0029155
        k(  233) = (   0.2852278   0.4906461   0.0000000), wk =   0.0029155
        k(  234) = (   0.4278416   0.6133076   0.0000000), wk =   0.0029155
        k(  235) = (   0.5704555   0.7359691   0.0000000), wk =   0.0029155
        k(  236) = (   0.7130694   0.8586307   0.0000000), wk =   0.0029155
        k(  237) = (  -1.1409110  -0.7359691   0.0000000), wk =   0.0029155
        k(  238) = (  -0.9982971  -0.6133076   0.0000000), wk =   0.0029155
        k(  239) = (  -0.8556833  -0.4906461   0.0000000), wk =   0.0029155
        k(  240) = (  -0.7130694  -0.3679846   0.0000000), wk =   0.0029155
        k(  241) = (  -0.5704555  -0.2453230   0.0000000), wk =   0.0029155
        k(  242) = (  -0.4278416  -0.1226615   0.0000000), wk =   0.0029155
        k(  243) = (  -0.2852278   0.0000000   0.0000000), wk =   0.0014577
        k(  244) = (   0.5704555   0.4906461   0.1547219), wk =   0.0058309
        k(  245) = (   0.7130694   0.6133076   0.1547219), wk =   0.0058309
        k(  246) = (   0.8556833   0.7359691   0.1547219), wk =   0.0058309
        k(  247) = (   0.9982971   0.8586307   0.1547219), wk =   0.0029155
        k(  248) = (  -0.0000000  -0.0000000   0.1547219), wk =   0.0014577
        k(  249) = (   0.7130694   0.4906461   0.1934024), wk =   0.0058309
        k(  250) = (   0.8556833   0.6133076   0.1934024), wk =   0.0058309
        k(  251) = (   0.9982971   0.7359691   0.1934024), wk =   0.0058309
        k(  252) = (   1.1409110   0.8586307   0.1934024), wk =   0.0058309
        k(  253) = (   1.2835249   0.9812922   0.1934024), wk =   0.0058309
        k(  254) = (  -0.5704555  -0.6133076   0.1934024), wk =   0.0058309
        k(  255) = (  -0.0000000  -0.1226615   0.1934024), wk =   0.0029155
        k(  256) = (   0.1426139  -0.0000000   0.1934024), wk =   0.0029155
        k(  257) = (   0.8556833   0.4906461   0.2320828), wk =   0.0058309
        k(  258) = (   0.9982971   0.6133076   0.2320828), wk =   0.0058309
        k(  259) = (   1.1409110   0.7359691   0.2320828), wk =   0.0058309
        k(  260) = (   1.2835249   0.8586307   0.2320828), wk =   0.0058309
        k(  261) = (   1.4261388   0.9812922   0.2320828), wk =   0.0058309
        k(  262) = (   0.0000000  -0.2453230   0.2320828), wk =   0.0029155
        k(  263) = (   0.1426139  -0.1226615   0.2320828), wk =   0.0058309
        k(  264) = (   0.2852278  -0.0000000   0.2320828), wk =   0.0029155
        k(  265) = (   0.9982971   0.4906461   0.2707633), wk =   0.0029155
        k(  266) = (   1.1409110   0.6133076   0.2707633), wk =   0.0058309
        k(  267) = (   1.2835249   0.7359691   0.2707633), wk =   0.0058309
        k(  268) = (   1.4261388   0.8586307   0.2707633), wk =   0.0029155
        k(  269) = (   0.0000000  -0.3679846   0.2707633), wk =   0.0029155
        k(  270) = (   0.1426139  -0.2453230   0.2707633), wk =   0.0058309
        k(  271) = (   0.2852278  -0.1226615   0.2707633), wk =   0.0058309
        k(  272) = (   0.4278416  -0.0000000   0.2707633), wk =   0.0029155
        k(  273) = (   1.2835249   0.6133076   0.3094438), wk =   0.0058309
        k(  274) = (  -0.0000000  -0.4906461   0.3094438), wk =   0.0029155
        k(  275) = (   0.1426139  -0.3679846   0.3094438), wk =   0.0058309
        k(  276) = (   0.2852278  -0.2453230   0.3094438), wk =   0.0058309
        k(  277) = (   0.4278416  -0.1226615   0.3094438), wk =   0.0058309
        k(  278) = (   0.5704555  -0.0000000   0.3094438), wk =   0.0029155
        k(  279) = (  -1.9965943  -0.6133076  -0.1934024), wk =   0.0029155
        k(  280) = (  -1.8539804  -0.4906461  -0.1934024), wk =   0.0058309
        k(  281) = (  -1.7113665  -0.3679846  -0.1934024), wk =   0.0058309
        k(  282) = (  -1.5687527  -0.2453230  -0.1934024), wk =   0.0058309
        k(  283) = (  -1.4261388  -0.1226615  -0.1934024), wk =   0.0058309
        k(  284) = (  -1.2835249  -0.0000000  -0.1934024), wk =   0.0029155
        k(  285) = (  -0.0000000   0.9812922  -0.1547219), wk =   0.0029155
        k(  286) = (  -1.8539804  -0.6133076  -0.1547219), wk =   0.0058309
        k(  287) = (  -1.7113665  -0.4906461  -0.1547219), wk =   0.0058309
        k(  288) = (  -1.5687527  -0.3679846  -0.1547219), wk =   0.0058309
        k(  289) = (  -1.4261388  -0.2453230  -0.1547219), wk =   0.0058309
        k(  290) = (  -1.2835249  -0.1226615  -0.1547219), wk =   0.0058309
        k(  291) = (  -1.1409110  -0.0000000  -0.1547219), wk =   0.0029155
        k(  292) = (   0.0000000   0.8586307  -0.1160414), wk =   0.0029155
        k(  293) = (   0.1426139   0.9812922  -0.1160414), wk =   0.0058309
        k(  294) = (  -1.7113665  -0.6133076  -0.1160414), wk =   0.0058309
        k(  295) = (  -1.5687527  -0.4906461  -0.1160414), wk =   0.0058309
        k(  296) = (  -1.4261388  -0.3679846  -0.1160414), wk =   0.0058309
        k(  297) = (  -1.2835249  -0.2453230  -0.1160414), wk =   0.0058309
        k(  298) = (  -1.1409110  -0.1226615  -0.1160414), wk =   0.0058309
        k(  299) = (  -0.9982971  -0.0000000  -0.1160414), wk =   0.0029155
        k(  300) = (   0.0000000   0.7359691  -0.0773609), wk =   0.0029155
        k(  301) = (   0.1426139   0.8586307  -0.0773609), wk =   0.0058309
        k(  302) = (   0.2852278   0.9812922  -0.0773609), wk =   0.0058309
        k(  303) = (  -1.5687527  -0.6133076  -0.0773609), wk =   0.0058309
        k(  304) = (  -1.4261388  -0.4906461  -0.0773609), wk =   0.0058309
        k(  305) = (  -1.2835249  -0.3679846  -0.0773609), wk =   0.0058309
        k(  306) = (  -1.1409110  -0.2453230  -0.0773609), wk =   0.0058309
        k(  307) = (  -0.9982971  -0.1226615  -0.0773609), wk =   0.0058309
        k(  308) = (  -0.8556833  -0.0000000  -0.0773609), wk =   0.0029155
        k(  309) = (  -0.0000000   0.6133076  -0.0386805), wk =   0.0029155
        k(  310) = (   0.1426139   0.7359691  -0.0386805), wk =   0.0058309
        k(  311) = (   0.2852278   0.8586307  -0.0386805), wk =   0.0058309
        k(  312) = (   0.4278416   0.9812922  -0.0386805), wk =   0.0058309
        k(  313) = (  -1.4261388  -0.6133076  -0.0386805), wk =   0.0058309
        k(  314) = (  -1.2835249  -0.4906461  -0.0386805), wk =   0.0058309
        k(  315) = (  -1.1409110  -0.3679846  -0.0386805), wk =   0.0058309
        k(  316) = (  -0.9982971  -0.2453230  -0.0386805), wk =   0.0058309
        k(  317) = (  -0.8556833  -0.1226615  -0.0386805), wk =   0.0058309
        k(  318) = (  -0.7130694  -0.0000000  -0.0386805), wk =   0.0029155
        k(  319) = (  -0.0000000   0.4906461  -0.0000000), wk =   0.0014577
        k(  320) = (   0.1426139   0.6133076  -0.0000000), wk =   0.0029155
        k(  321) = (   0.2852278   0.7359691  -0.0000000), wk =   0.0029155
        k(  322) = (   0.4278416   0.8586307  -0.0000000), wk =   0.0029155
        k(  323) = (   0.5704555   0.9812922  -0.0000000), wk =   0.0029155
        k(  324) = (  -1.2835249  -0.6133076  -0.0000000), wk =   0.0029155
        k(  325) = (  -1.1409110  -0.4906461  -0.0000000), wk =   0.0029155
        k(  326) = (  -0.9982971  -0.3679846  -0.0000000), wk =   0.0029155
        k(  327) = (  -0.8556833  -0.2453230  -0.0000000), wk =   0.0029155
        k(  328) = (  -0.7130694  -0.1226615  -0.0000000), wk =   0.0029155
        k(  329) = (  -0.5704555  -0.0000000  -0.0000000), wk =   0.0014577
        k(  330) = (   0.8556833   0.7359691   0.2320828), wk =   0.0058309
        k(  331) = (   0.9982971   0.8586307   0.2320828), wk =   0.0029155
        k(  332) = (  -0.0000000   0.0000000   0.2320828), wk =   0.0014577
        k(  333) = (   0.9982971   0.7359691   0.2707633), wk =   0.0029155
        k(  334) = (   1.1409110   0.8586307   0.2707633), wk =   0.0029155
        k(  335) = (   0.0000000  -0.1226615   0.2707633), wk =   0.0029155
        k(  336) = (   0.1426139   0.0000000   0.2707633), wk =   0.0029155
        k(  337) = (   0.0000000  -0.2453230   0.3094438), wk =   0.0029155
        k(  338) = (   0.1426139  -0.1226615   0.3094438), wk =   0.0058309
        k(  339) = (   0.2852278   0.0000000   0.3094438), wk =   0.0029155
        k(  340) = (  -0.0000000  -0.3679846   0.3481243), wk =   0.0029155
        k(  341) = (   0.1426139  -0.2453230   0.3481243), wk =   0.0058309
        k(  342) = (   0.2852278  -0.1226615   0.3481243), wk =   0.0058309
        k(  343) = (   0.4278416   0.0000000   0.3481243), wk =   0.0029155
        k(  344) = (  -1.9965943  -0.4906461  -0.1547219), wk =   0.0029155
        k(  345) = (  -1.8539804  -0.3679846  -0.1547219), wk =   0.0058309
        k(  346) = (  -1.7113665  -0.2453230  -0.1547219), wk =   0.0058309
        k(  347) = (  -1.5687527  -0.1226615  -0.1547219), wk =   0.0058309
        k(  348) = (  -1.4261388   0.0000000  -0.1547219), wk =   0.0029155
        k(  349) = (  -0.0000000   1.1039537  -0.1160414), wk =   0.0029155
        k(  350) = (  -1.8539804  -0.4906461  -0.1160414), wk =   0.0058309
        k(  351) = (  -1.7113665  -0.3679846  -0.1160414), wk =   0.0058309
        k(  352) = (  -1.5687527  -0.2453230  -0.1160414), wk =   0.0058309
        k(  353) = (  -1.4261388  -0.1226615  -0.1160414), wk =   0.0058309
        k(  354) = (  -1.2835249   0.0000000  -0.1160414), wk =   0.0029155
        k(  355) = (   0.0000000   0.9812922  -0.0773609), wk =   0.0029155
        k(  356) = (   0.1426139   1.1039537  -0.0773609), wk =   0.0058309
        k(  357) = (  -1.7113665  -0.4906461  -0.0773609), wk =   0.0058309
        k(  358) = (  -1.5687527  -0.3679846  -0.0773609), wk =   0.0058309
        k(  359) = (  -1.4261388  -0.2453230  -0.0773609), wk =   0.0058309
        k(  360) = (  -1.2835249  -0.1226615  -0.0773609), wk =   0.0058309
        k(  361) = (  -1.1409110   0.0000000  -0.0773609), wk =   0.0029155
        k(  362) = (   0.0000000   0.8586307  -0.0386805), wk =   0.0029155
        k(  363) = (   0.1426139   0.9812922  -0.0386805), wk =   0.0058309
        k(  364) = (   0.2852278   1.1039537  -0.0386805), wk =   0.0058309
        k(  365) = (  -1.5687527  -0.4906461  -0.0386805), wk =   0.0058309
        k(  366) = (  -1.4261388  -0.3679846  -0.0386805), wk =   0.0058309
        k(  367) = (  -1.2835249  -0.2453230  -0.0386805), wk =   0.0058309
        k(  368) = (  -1.1409110  -0.1226615  -0.0386805), wk =   0.0058309
        k(  369) = (  -0.9982971   0.0000000  -0.0386805), wk =   0.0029155
        k(  370) = (  -0.0000000   0.7359691  -0.0000000), wk =   0.0014577
        k(  371) = (   0.1426139   0.8586307  -0.0000000), wk =   0.0029155
        k(  372) = (   0.2852278   0.9812922  -0.0000000), wk =   0.0029155
        k(  373) = (   0.4278416   1.1039537  -0.0000000), wk =   0.0029155
        k(  374) = (  -1.4261388  -0.4906461  -0.0000000), wk =   0.0029155
        k(  375) = (  -1.2835249  -0.3679846  -0.0000000), wk =   0.0029155
        k(  376) = (  -1.1409110  -0.2453230  -0.0000000), wk =   0.0029155
        k(  377) = (  -0.9982971  -0.1226615  -0.0000000), wk =   0.0029155
        k(  378) = (  -0.8556833   0.0000000  -0.0000000), wk =   0.0014577
        k(  379) = (   0.0000000   0.0000000   0.3094438), wk =   0.0014577
        k(  380) = (   0.0000000  -0.1226615   0.3481243), wk =   0.0029155
        k(  381) = (   0.1426139   0.0000000   0.3481243), wk =   0.0029155
        k(  382) = (  -0.0000000  -0.2453230   0.3868047), wk =   0.0029155
        k(  383) = (   0.1426139  -0.1226615   0.3868047), wk =   0.0058309
        k(  384) = (   0.2852278   0.0000000   0.3868047), wk =   0.0029155
        k(  385) = (  -1.9965943  -0.3679846  -0.1160414), wk =   0.0029155
        k(  386) = (  -1.8539804  -0.2453230  -0.1160414), wk =   0.0058309
        k(  387) = (  -1.7113665  -0.1226615  -0.1160414), wk =   0.0058309
        k(  388) = (  -1.5687527   0.0000000  -0.1160414), wk =   0.0029155
        k(  389) = (  -0.0000000   1.2266152  -0.0773609), wk =   0.0029155
        k(  390) = (  -1.8539804  -0.3679846  -0.0773609), wk =   0.0058309
        k(  391) = (  -1.7113665  -0.2453230  -0.0773609), wk =   0.0058309
        k(  392) = (  -1.5687527  -0.1226615  -0.0773609), wk =   0.0058309
        k(  393) = (  -1.4261388   0.0000000  -0.0773609), wk =   0.0029155
        k(  394) = (   0.0000000   1.1039537  -0.0386805), wk =   0.0029155
        k(  395) = (   0.1426139   1.2266152  -0.0386805), wk =   0.0058309
        k(  396) = (  -1.7113665  -0.3679846  -0.0386805), wk =   0.0058309
        k(  397) = (  -1.5687527  -0.2453230  -0.0386805), wk =   0.0058309
        k(  398) = (  -1.4261388  -0.1226615  -0.0386805), wk =   0.0058309
        k(  399) = (  -1.2835249   0.0000000  -0.0386805), wk =   0.0029155
        k(  400) = (   0.0000000   0.9812922   0.0000000), wk =   0.0014577
        k(  401) = (   0.1426139   1.1039537   0.0000000), wk =   0.0029155
        k(  402) = (   0.2852278   1.2266152   0.0000000), wk =   0.0029155
        k(  403) = (  -1.5687527  -0.3679846   0.0000000), wk =   0.0029155
        k(  404) = (  -1.4261388  -0.2453230   0.0000000), wk =   0.0029155
        k(  405) = (  -1.2835249  -0.1226615   0.0000000), wk =   0.0029155
        k(  406) = (  -1.1409110   0.0000000   0.0000000), wk =   0.0014577
        k(  407) = (   0.0000000   0.0000000   0.3868047), wk =   0.0014577
        k(  408) = (  -0.0000000  -0.1226615   0.4254852), wk =   0.0029155
        k(  409) = (   0.1426139   0.0000000   0.4254852), wk =   0.0029155
        k(  410) = (  -1.9965943  -0.2453230  -0.0773609), wk =   0.0029155
        k(  411) = (  -1.8539804  -0.1226615  -0.0773609), wk =   0.0058309
        k(  412) = (  -1.7113665   0.0000000  -0.0773609), wk =   0.0029155
        k(  413) = (  -0.0000000   1.3492768  -0.0386805), wk =   0.0029155
        k(  414) = (  -1.8539804  -0.2453230  -0.0386805), wk =   0.0058309
        k(  415) = (  -1.7113665  -0.1226615  -0.0386805), wk =   0.0058309
        k(  416) = (  -1.5687527   0.0000000  -0.0386805), wk =   0.0029155
        k(  417) = (   0.0000000   1.2266152   0.0000000), wk =   0.0014577
        k(  418) = (   0.1426139   1.3492768   0.0000000), wk =   0.0029155
        k(  419) = (  -1.7113665  -0.2453230   0.0000000), wk =   0.0029155
        k(  420) = (  -1.5687527  -0.1226615   0.0000000), wk =   0.0029155
        k(  421) = (  -1.4261388   0.0000000   0.0000000), wk =   0.0014577
        k(  422) = (  -0.0000000   0.0000000   0.4641657), wk =   0.0014577
        k(  423) = (  -1.9965943  -0.1226615  -0.0386805), wk =   0.0029155
        k(  424) = (  -1.8539804   0.0000000  -0.0386805), wk =   0.0029155
        k(  425) = (  -0.0000000   1.4719383  -0.0000000), wk =   0.0014577
        k(  426) = (  -1.8539804  -0.1226615  -0.0000000), wk =   0.0029155
        k(  427) = (  -1.7113665   0.0000000  -0.0000000), wk =   0.0014577
        k(  428) = (  -1.9965943  -1.7172613  -0.5415266), wk =   0.0007289

                       cryst. coord.
        k(    1) = (   0.0000000   0.0000000   0.0000000), wk =   0.0007289
        k(    2) = (  -0.0000000   0.0000000   0.0714286), wk =   0.0029155
        k(    3) = (  -0.0000000   0.0000000   0.1428571), wk =   0.0029155
        k(    4) = (  -0.0000000   0.0000000   0.2142857), wk =   0.0029155
        k(    5) = (  -0.0000000   0.0000000   0.2857143), wk =   0.0029155
        k(    6) = (  -0.0000000   0.0000000   0.3571429), wk =   0.0029155
        k(    7) = (  -0.0000000   0.0000000   0.4285714), wk =   0.0029155
        k(    8) = (   0.0000000   0.0000000  -0.5000000), wk =   0.0014577
        k(    9) = (  -0.0000000   0.0714286   0.0000000), wk =   0.0029155
        k(   10) = (  -0.0000000   0.0714286   0.0714286), wk =   0.0058309
        k(   11) = (  -0.0000000   0.0714286   0.1428571), wk =   0.0058309
        k(   12) = (  -0.0000000   0.0714286   0.2142857), wk =   0.0058309
        k(   13) = (  -0.0000000   0.0714286   0.2857143), wk =   0.0058309
        k(   14) = (  -0.0000000   0.0714286   0.3571429), wk =   0.0058309
        k(   15) = (  -0.0000000   0.0714286   0.4285714), wk =   0.0058309
        k(   16) = (   0.0000000   0.0714286  -0.5000000), wk =   0.0058309
        k(   17) = (   0.0000000   0.0714286  -0.4285714), wk =   0.0058309
        k(   18) = (   0.0000000   0.0714286  -0.3571429), wk =   0.0058309
        k(   19) = (   0.0000000   0.0714286  -0.2857143), wk =   0.0058309
        k(   20) = (   0.0000000   0.0714286  -0.2142857), wk =   0.0058309
        k(   21) = (   0.0000000   0.0714286  -0.1428571), wk =   0.0058309
        k(   22) = (   0.0000000   0.0714286  -0.0714286), wk =   0.0029155
        k(   23) = (  -0.0000000   0.1428571   0.0000000), wk =   0.0029155
        k(   24) = (  -0.0000000   0.1428571   0.0714286), wk =   0.0058309
        k(   25) = (  -0.0000000   0.1428571   0.1428571), wk =   0.0058309
        k(   26) = (  -0.0000000   0.1428571   0.2142857), wk =   0.0058309
        k(   27) = (  -0.0000000   0.1428571   0.2857143), wk =   0.0058309
        k(   28) = (   0.0000000   0.1428571   0.3571429), wk =   0.0058309
        k(   29) = (  -0.0000000   0.1428571   0.4285714), wk =   0.0058309
        k(   30) = (   0.0000000   0.1428571  -0.5000000), wk =   0.0058309
        k(   31) = (   0.0000000   0.1428571  -0.4285714), wk =   0.0058309
        k(   32) = (   0.0000000   0.1428571  -0.3571429), wk =   0.0058309
        k(   33) = (   0.0000000   0.1428571  -0.2857143), wk =   0.0058309
        k(   34) = (   0.0000000   0.1428571  -0.2142857), wk =   0.0058309
        k(   35) = (   0.0000000   0.1428571  -0.1428571), wk =   0.0029155
        k(   36) = (   0.0000000   0.1428571  -0.0714286), wk =   0.0058309
        k(   37) = (  -0.0000000   0.2142857   0.0000000), wk =   0.0029155
        k(   38) = (  -0.0000000   0.2142857   0.0714286), wk =   0.0058309
        k(   39) = (  -0.0000000   0.2142857   0.1428571), wk =   0.0058309
        k(   40) = (  -0.0000000   0.2142857   0.2142857), wk =   0.0058309
        k(   41) = (  -0.0000000   0.2142857   0.2857143), wk =   0.0058309
        k(   42) = (  -0.0000000   0.2142857   0.3571429), wk =   0.0058309
        k(   43) = (   0.0000000   0.2142857   0.4285714), wk =   0.0058309
        k(   44) = (   0.0000000   0.2142857  -0.5000000), wk =   0.0058309
        k(   45) = (   0.0000000   0.2142857  -0.4285714), wk =   0.0058309
        k(   46) = (   0.0000000   0.2142857  -0.3571429), wk =   0.0058309
        k(   47) = (   0.0000000   0.2142857  -0.2857143), wk =   0.0058309
        k(   48) = (   0.0000000   0.2142857  -0.2142857), wk =   0.0029155
        k(   49) = (   0.0000000   0.2142857  -0.1428571), wk =   0.0058309
        k(   50) = (  -0.0000000   0.2142857  -0.0714286), wk =   0.0058309
        k(   51) = (  -0.0000000   0.2857143   0.0000000), wk =   0.0029155
        k(   52) = (  -0.0000000   0.2857143   0.0714286), wk =   0.0058309
        k(   53) = (  -0.0000000   0.2857143   0.1428571), wk =   0.0058309
        k(   54) = (   0.0000000   0.2857143   0.2142857), wk =   0.0058309
        k(   55) = (  -0.0000000   0.2857143   0.2857143), wk =   0.0058309
        k(   56) = (  -0.0000000   0.2857143   0.3571429), wk =   0.0058309
        k(   57) = (  -0.0000000   0.2857143   0.4285714), wk =   0.0058309
        k(   58) = (   0.0000000   0.2857143  -0.5000000), wk =   0.0058309
        k(   59) = (   0.0000000   0.2857143  -0.4285714), wk =   0.0058309
        k(   60) = (   0.0000000   0.2857143  -0.3571429), wk =   0.0058309
        k(   61) = (   0.0000000   0.2857143  -0.2857143), wk =   0.0029155
        k(   62) = (   0.0000000   0.2857143  -0.2142857), wk =   0.0058309
        k(   63) = (   0.0000000   0.2857143  -0.1428571), wk =   0.0058309
        k(   64) = (  -0.0000000   0.2857143  -0.0714286), wk =   0.0058309
        k(   65) = (  -0.0000000   0.3571429   0.0000000), wk =   0.0029155
        k(   66) = (  -0.0000000   0.3571429   0.0714286), wk =   0.0058309
        k(   67) = (   0.0000000   0.3571429   0.1428571), wk =   0.0058309
        k(   68) = (  -0.0000000   0.3571429   0.2142857), wk =   0.0058309
        k(   69) = (  -0.0000000   0.3571429   0.2857143), wk =   0.0058309
        k(   70) = (  -0.0000000   0.3571429   0.3571429), wk =   0.0058309
        k(   71) = (   0.0000000   0.3571429   0.4285714), wk =   0.0058309
        k(   72) = (   0.0000000   0.3571429  -0.5000000), wk =   0.0058309
        k(   73) = (   0.0000000   0.3571429  -0.4285714), wk =   0.0058309
        k(   74) = (   0.0000000   0.3571429  -0.3571429), wk =   0.0029155
        k(   75) = (   0.0000000   0.3571429  -0.2857143), wk =   0.0058309
        k(   76) = (   0.0000000   0.3571429  -0.2142857), wk =   0.0058309
        k(   77) = (  -0.0000000   0.3571429  -0.1428571), wk =   0.0058309
        k(   78) = (  -0.0000000   0.3571429  -0.0714286), wk =   0.0058309
        k(   79) = (  -0.0000000   0.4285714   0.0000000), wk =   0.0029155
        k(   80) = (  -0.0000000   0.4285714   0.0714286), wk =   0.0058309
        k(   81) = (  -0.0000000   0.4285714   0.1428571), wk =   0.0058309
        k(   82) = (   0.0000000   0.4285714   0.2142857), wk =   0.0058309
        k(   83) = (  -0.0000000   0.4285714   0.2857143), wk =   0.0058309
        k(   84) = (   0.0000000   0.4285714   0.3571429), wk =   0.0058309
        k(   85) = (  -0.0000000   0.4285714   0.4285714), wk =   0.0058309
        k(   86) = (   0.0000000   0.4285714  -0.5000000), wk =   0.0058309
        k(   87) = (   0.0000000   0.4285714  -0.4285714), wk =   0.0029155
        k(   88) = (   0.0000000   0.4285714  -0.3571429), wk =   0.0058309
        k(   89) = (   0.0000000   0.4285714  -0.2857143), wk =   0.0058309
        k(   90) = (   0.0000000   0.4285714  -0.2142857), wk =   0.0058309
        k(   91) = (  -0.0000000   0.4285714  -0.1428571), wk =   0.0058309
        k(   92) = (  -0.0000000   0.4285714  -0.0714286), wk =   0.0058309
        k(   93) = (   0.0000000  -0.5000000   0.0000000), wk =   0.0014577
        k(   94) = (   0.0000000  -0.5000000   0.0714286), wk =   0.0058309
        k(   95) = (   0.0000000  -0.5000000   0.1428571), wk =   0.0058309
        k(   96) = (   0.0000000  -0.5000000   0.2142857), wk =   0.0058309
        k(   97) = (   0.0000000  -0.5000000   0.2857143), wk =   0.0058309
        k(   98) = (   0.0000000  -0.5000000   0.3571429), wk =   0.0058309
        k(   99) = (   0.0000000  -0.5000000   0.4285714), wk =   0.0058309
        k(  100) = (   0.0000000  -0.5000000  -0.5000000), wk =   0.0014577
        k(  101) = (   0.0714286   0.0714286   0.0714286), wk =   0.0058309
        k(  102) = (   0.0714286   0.0714286   0.1428571), wk =   0.0058309
        k(  103) = (   0.0714286   0.0714286   0.2142857), wk =   0.0058309
        k(  104) = (   0.0714286   0.0714286   0.2857143), wk =   0.0058309
        k(  105) = (   0.0714286   0.0714286   0.3571429), wk =   0.0058309
        k(  106) = (   0.0714286   0.0714286   0.4285714), wk =   0.0029155
        k(  107) = (   0.0714286   0.0714286  -0.0714286), wk =   0.0014577
        k(  108) = (   0.0714286   0.1428571   0.0714286), wk =   0.0058309
        k(  109) = (   0.0714286   0.1428571   0.1428571), wk =   0.0058309
        k(  110) = (   0.0714286   0.1428571   0.2142857), wk =   0.0058309
        k(  111) = (   0.0714286   0.1428571   0.2857143), wk =   0.0058309
        k(  112) = (   0.0714286   0.1428571   0.3571429), wk =   0.0058309
        k(  113) = (   0.0714286   0.1428571   0.4285714), wk =   0.0058309
        k(  114) = (   0.0714286   0.1428571  -0.5000000), wk =   0.0058309
        k(  115) = (   0.0714286   0.1428571  -0.4285714), wk =   0.0058309
        k(  116) = (   0.0714286   0.1428571  -0.3571429), wk =   0.0058309
        k(  117) = (   0.0714286   0.1428571  -0.2857143), wk =   0.0058309
        k(  118) = (   0.0714286   0.1428571  -0.1428571), wk =   0.0029155
        k(  119) = (   0.0714286   0.1428571  -0.0714286), wk =   0.0029155
        k(  120) = (   0.0714286   0.2142857   0.0714286), wk =   0.0058309
        k(  121) = (   0.0714286   0.2142857   0.1428571), wk =   0.0058309
        k(  122) = (   0.0714286   0.2142857   0.2142857), wk =   0.0058309
        k(  123) = (   0.0714286   0.2142857   0.2857143), wk =   0.0058309
        k(  124) = (   0.0714286   0.2142857   0.3571429), wk =   0.0058309
        k(  125) = (   0.0714286   0.2142857   0.4285714), wk =   0.0058309
        k(  126) = (   0.0714286   0.2142857  -0.5000000), wk =   0.0058309
        k(  127) = (   0.0714286   0.2142857  -0.4285714), wk =   0.0058309
        k(  128) = (   0.0714286   0.2142857  -0.3571429), wk =   0.0058309
        k(  129) = (   0.0714286   0.2142857  -0.2142857), wk =   0.0029155
        k(  130) = (   0.0714286   0.2142857  -0.1428571), wk =   0.0058309
        k(  131) = (   0.0714286   0.2142857  -0.0714286), wk =   0.0029155
        k(  132) = (   0.0714286   0.2857143   0.0714286), wk =   0.0058309
        k(  133) = (   0.0714286   0.2857143   0.1428571), wk =   0.0058309
        k(  134) = (   0.0714286   0.2857143   0.2142857), wk =   0.0058309
        k(  135) = (   0.0714286   0.2857143   0.2857143), wk =   0.0058309
        k(  136) = (   0.0714286   0.2857143   0.3571429), wk =   0.0058309
        k(  137) = (   0.0714286   0.2857143   0.4285714), wk =   0.0058309
        k(  138) = (   0.0714286   0.2857143  -0.5000000), wk =   0.0058309
        k(  139) = (   0.0714286   0.2857143  -0.4285714), wk =   0.0058309
        k(  140) = (   0.0714286   0.2857143  -0.2857143), wk =   0.0029155
        k(  141) = (   0.0714286   0.2857143  -0.2142857), wk =   0.0058309
        k(  142) = (   0.0714286   0.2857143  -0.1428571), wk =   0.0058309
        k(  143) = (   0.0714286   0.2857143  -0.0714286), wk =   0.0029155
        k(  144) = (   0.0714286   0.3571429   0.0714286), wk =   0.0058309
        k(  145) = (   0.0714286   0.3571429   0.1428571), wk =   0.0058309
        k(  146) = (   0.0714286   0.3571429   0.2142857), wk =   0.0058309
        k(  147) = (   0.0714286   0.3571429   0.2857143), wk =   0.0058309
        k(  148) = (   0.0714286   0.3571429   0.3571429), wk =   0.0058309
        k(  149) = (   0.0714286   0.3571429   0.4285714), wk =   0.0058309
        k(  150) = (   0.0714286   0.3571429  -0.5000000), wk =   0.0058309
        k(  151) = (   0.0714286   0.3571429  -0.3571429), wk =   0.0029155
        k(  152) = (   0.0714286   0.3571429  -0.2857143), wk =   0.0058309
        k(  153) = (   0.0714286   0.3571429  -0.2142857), wk =   0.0058309
        k(  154) = (   0.0714286   0.3571429  -0.1428571), wk =   0.0058309
        k(  155) = (   0.0714286   0.3571429  -0.0714286), wk =   0.0029155
        k(  156) = (   0.0714286   0.4285714   0.0714286), wk =   0.0029155
        k(  157) = (   0.0714286   0.4285714   0.1428571), wk =   0.0058309
        k(  158) = (   0.0714286   0.4285714   0.2142857), wk =   0.0058309
        k(  159) = (   0.0714286   0.4285714   0.2857143), wk =   0.0058309
        k(  160) = (   0.0714286   0.4285714   0.3571429), wk =   0.0058309
        k(  161) = (   0.0714286   0.4285714   0.4285714), wk =   0.0029155
        k(  162) = (   0.0714286   0.4285714  -0.4285714), wk =   0.0029155
        k(  163) = (   0.0714286   0.4285714  -0.3571429), wk =   0.0058309
        k(  164) = (   0.0714286   0.4285714  -0.2857143), wk =   0.0058309
        k(  165) = (   0.0714286   0.4285714  -0.2142857), wk =   0.0058309
        k(  166) = (   0.0714286   0.4285714  -0.1428571), wk =   0.0058309
        k(  167) = (   0.0714286   0.4285714  -0.0714286), wk =   0.0029155
        k(  168) = (   0.0714286  -0.5000000   0.1428571), wk =   0.0058309
        k(  169) = (   0.0714286  -0.5000000   0.2142857), wk =   0.0058309
        k(  170) = (   0.0714286  -0.5000000   0.2857143), wk =   0.0058309
        k(  171) = (   0.0714286  -0.5000000  -0.5000000), wk =   0.0029155
        k(  172) = (   0.0714286  -0.5000000  -0.4285714), wk =   0.0058309
        k(  173) = (   0.0714286  -0.5000000  -0.3571429), wk =   0.0058309
        k(  174) = (   0.0714286  -0.5000000  -0.2857143), wk =   0.0058309
        k(  175) = (   0.0714286  -0.5000000  -0.2142857), wk =   0.0058309
        k(  176) = (   0.0714286  -0.5000000  -0.1428571), wk =   0.0058309
        k(  177) = (   0.0714286  -0.5000000  -0.0714286), wk =   0.0029155
        k(  178) = (   0.0714286  -0.4285714   0.1428571), wk =   0.0058309
        k(  179) = (   0.0714286  -0.4285714   0.2142857), wk =   0.0058309
        k(  180) = (   0.0714286  -0.4285714   0.4285714), wk =   0.0029155
        k(  181) = (   0.0714286  -0.4285714  -0.5000000), wk =   0.0058309
        k(  182) = (   0.0714286  -0.4285714  -0.4285714), wk =   0.0058309
        k(  183) = (   0.0714286  -0.4285714  -0.3571429), wk =   0.0058309
        k(  184) = (   0.0714286  -0.4285714  -0.2857143), wk =   0.0058309
        k(  185) = (   0.0714286  -0.4285714  -0.2142857), wk =   0.0058309
        k(  186) = (   0.0714286  -0.4285714  -0.1428571), wk =   0.0058309
        k(  187) = (   0.0714286  -0.4285714  -0.0714286), wk =   0.0029155
        k(  188) = (   0.0714286  -0.3571429   0.1428571), wk =   0.0058309
        k(  189) = (   0.0714286  -0.3571429   0.3571429), wk =   0.0029155
        k(  190) = (   0.0714286  -0.3571429   0.4285714), wk =   0.0058309
        k(  191) = (   0.0714286  -0.3571429  -0.5000000), wk =   0.0058309
        k(  192) = (   0.0714286  -0.3571429  -0.4285714), wk =   0.0058309
        k(  193) = (   0.0714286  -0.3571429  -0.3571429), wk =   0.0058309
        k(  194) = (   0.0714286  -0.3571429  -0.2857143), wk =   0.0058309
        k(  195) = (   0.0714286  -0.3571429  -0.2142857), wk =   0.0058309
        k(  196) = (   0.0714286  -0.3571429  -0.1428571), wk =   0.0058309
        k(  197) = (   0.0714286  -0.3571429  -0.0714286), wk =   0.0029155
        k(  198) = (   0.0714286  -0.2857143   0.2857143), wk =   0.0029155
        k(  199) = (   0.0714286  -0.2857143   0.3571429), wk =   0.0058309
        k(  200) = (   0.0714286  -0.2857143   0.4285714), wk =   0.0058309
        k(  201) = (   0.0714286  -0.2857143  -0.5000000), wk =   0.0058309
        k(  202) = (   0.0714286  -0.2857143  -0.4285714), wk =   0.0058309
        k(  203) = (   0.0714286  -0.2857143  -0.3571429), wk =   0.0058309
        k(  204) = (   0.0714286  -0.2857143  -0.2857143), wk =   0.0058309
        k(  205) = (   0.0714286  -0.2857143  -0.2142857), wk =   0.0058309
        k(  206) = (   0.0714286  -0.2857143  -0.1428571), wk =   0.0058309
        k(  207) = (   0.0714286  -0.2857143  -0.0714286), wk =   0.0029155
        k(  208) = (   0.0714286  -0.2142857   0.2142857), wk =   0.0029155
        k(  209) = (   0.0714286  -0.2142857   0.2857143), wk =   0.0058309
        k(  210) = (   0.0714286  -0.2142857   0.3571429), wk =   0.0058309
        k(  211) = (   0.0714286  -0.2142857   0.4285714), wk =   0.0058309
        k(  212) = (   0.0714286  -0.2142857  -0.5000000), wk =   0.0058309
        k(  213) = (   0.0714286  -0.2142857  -0.4285714), wk =   0.0058309
        k(  214) = (   0.0714286  -0.2142857  -0.3571429), wk =   0.0058309
        k(  215) = (   0.0714286  -0.2142857  -0.2857143), wk =   0.0058309
        k(  216) = (   0.0714286  -0.2142857  -0.2142857), wk =   0.0058309
        k(  217) = (   0.0714286  -0.2142857  -0.1428571), wk =   0.0058309
        k(  218) = (   0.0714286  -0.2142857  -0.0714286), wk =   0.0029155
        k(  219) = (   0.0714286  -0.1428571   0.1428571), wk =   0.0029155
        k(  220) = (   0.0714286  -0.1428571   0.2142857), wk =   0.0058309
        k(  221) = (   0.0714286  -0.1428571   0.2857143), wk =   0.0058309
        k(  222) = (   0.0714286  -0.1428571   0.3571429), wk =   0.0058309
        k(  223) = (   0.0714286  -0.1428571   0.4285714), wk =   0.0058309
        k(  224) = (   0.0714286  -0.1428571  -0.5000000), wk =   0.0058309
        k(  225) = (   0.0714286  -0.1428571  -0.4285714), wk =   0.0058309
        k(  226) = (   0.0714286  -0.1428571  -0.3571429), wk =   0.0058309
        k(  227) = (   0.0714286  -0.1428571  -0.2857143), wk =   0.0058309
        k(  228) = (   0.0714286  -0.1428571  -0.2142857), wk =   0.0058309
        k(  229) = (   0.0714286  -0.1428571  -0.1428571), wk =   0.0058309
        k(  230) = (   0.0714286  -0.1428571  -0.0714286), wk =   0.0029155
        k(  231) = (   0.0714286  -0.0714286   0.0714286), wk =   0.0014577
        k(  232) = (   0.0714286  -0.0714286   0.1428571), wk =   0.0029155
        k(  233) = (   0.0714286  -0.0714286   0.2142857), wk =   0.0029155
        k(  234) = (   0.0714286  -0.0714286   0.2857143), wk =   0.0029155
        k(  235) = (   0.0714286  -0.0714286   0.3571429), wk =   0.0029155
        k(  236) = (   0.0714286  -0.0714286   0.4285714), wk =   0.0029155
        k(  237) = (   0.0714286  -0.0714286  -0.5000000), wk =   0.0029155
        k(  238) = (   0.0714286  -0.0714286  -0.4285714), wk =   0.0029155
        k(  239) = (   0.0714286  -0.0714286  -0.3571429), wk =   0.0029155
        k(  240) = (   0.0714286  -0.0714286  -0.2857143), wk =   0.0029155
        k(  241) = (   0.0714286  -0.0714286  -0.2142857), wk =   0.0029155
        k(  242) = (   0.0714286  -0.0714286  -0.1428571), wk =   0.0029155
        k(  243) = (   0.0714286  -0.0714286  -0.0714286), wk =   0.0014577
        k(  244) = (   0.1428571   0.1428571   0.1428571), wk =   0.0058309
        k(  245) = (   0.1428571   0.1428571   0.2142857), wk =   0.0058309
        k(  246) = (   0.1428571   0.1428571   0.2857143), wk =   0.0058309
        k(  247) = (   0.1428571   0.1428571   0.3571429), wk =   0.0029155
        k(  248) = (   0.1428571   0.1428571  -0.1428571), wk =   0.0014577
        k(  249) = (   0.1428571   0.2142857   0.1428571), wk =   0.0058309
        k(  250) = (   0.1428571   0.2142857   0.2142857), wk =   0.0058309
        k(  251) = (   0.1428571   0.2142857   0.2857143), wk =   0.0058309
        k(  252) = (   0.1428571   0.2142857   0.3571429), wk =   0.0058309
        k(  253) = (   0.1428571   0.2142857   0.4285714), wk =   0.0058309
        k(  254) = (   0.1428571   0.2142857  -0.5000000), wk =   0.0058309
        k(  255) = (   0.1428571   0.2142857  -0.2142857), wk =   0.0029155
        k(  256) = (   0.1428571   0.2142857  -0.1428571), wk =   0.0029155
        k(  257) = (   0.1428571   0.2857143   0.1428571), wk =   0.0058309
        k(  258) = (   0.1428571   0.2857143   0.2142857), wk =   0.0058309
        k(  259) = (   0.1428571   0.2857143   0.2857143), wk =   0.0058309
        k(  260) = (   0.1428571   0.2857143   0.3571429), wk =   0.0058309
        k(  261) = (   0.1428571   0.2857143   0.4285714), wk =   0.0058309
        k(  262) = (   0.1428571   0.2857143  -0.2857143), wk =   0.0029155
        k(  263) = (   0.1428571   0.2857143  -0.2142857), wk =   0.0058309
        k(  264) = (   0.1428571   0.2857143  -0.1428571), wk =   0.0029155
        k(  265) = (   0.1428571   0.3571429   0.1428571), wk =   0.0029155
        k(  266) = (   0.1428571   0.3571429   0.2142857), wk =   0.0058309
        k(  267) = (   0.1428571   0.3571429   0.2857143), wk =   0.0058309
        k(  268) = (   0.1428571   0.3571429   0.3571429), wk =   0.0029155
        k(  269) = (   0.1428571   0.3571429  -0.3571429), wk =   0.0029155
        k(  270) = (   0.1428571   0.3571429  -0.2857143), wk =   0.0058309
        k(  271) = (   0.1428571   0.3571429  -0.2142857), wk =   0.0058309
        k(  272) = (   0.1428571   0.3571429  -0.1428571), wk =   0.0029155
        k(  273) = (   0.1428571   0.4285714   0.2142857), wk =   0.0058309
        k(  274) = (   0.1428571   0.4285714  -0.4285714), wk =   0.0029155
        k(  275) = (   0.1428571   0.4285714  -0.3571429), wk =   0.0058309
        k(  276) = (   0.1428571   0.4285714  -0.2857143), wk =   0.0058309
        k(  277) = (   0.1428571   0.4285714  -0.2142857), wk =   0.0058309
        k(  278) = (   0.1428571   0.4285714  -0.1428571), wk =   0.0029155
        k(  279) = (   0.1428571  -0.5000000  -0.5000000), wk =   0.0029155
        k(  280) = (   0.1428571  -0.5000000  -0.4285714), wk =   0.0058309
        k(  281) = (   0.1428571  -0.5000000  -0.3571429), wk =   0.0058309
        k(  282) = (   0.1428571  -0.5000000  -0.2857143), wk =   0.0058309
        k(  283) = (   0.1428571  -0.5000000  -0.2142857), wk =   0.0058309
        k(  284) = (   0.1428571  -0.5000000  -0.1428571), wk =   0.0029155
        k(  285) = (   0.1428571  -0.4285714   0.4285714), wk =   0.0029155
        k(  286) = (   0.1428571  -0.4285714  -0.5000000), wk =   0.0058309
        k(  287) = (   0.1428571  -0.4285714  -0.4285714), wk =   0.0058309
        k(  288) = (   0.1428571  -0.4285714  -0.3571429), wk =   0.0058309
        k(  289) = (   0.1428571  -0.4285714  -0.2857143), wk =   0.0058309
        k(  290) = (   0.1428571  -0.4285714  -0.2142857), wk =   0.0058309
        k(  291) = (   0.1428571  -0.4285714  -0.1428571), wk =   0.0029155
        k(  292) = (   0.1428571  -0.3571429   0.3571429), wk =   0.0029155
        k(  293) = (   0.1428571  -0.3571429   0.4285714), wk =   0.0058309
        k(  294) = (   0.1428571  -0.3571429  -0.5000000), wk =   0.0058309
        k(  295) = (   0.1428571  -0.3571429  -0.4285714), wk =   0.0058309
        k(  296) = (   0.1428571  -0.3571429  -0.3571429), wk =   0.0058309
        k(  297) = (   0.1428571  -0.3571429  -0.2857143), wk =   0.0058309
        k(  298) = (   0.1428571  -0.3571429  -0.2142857), wk =   0.0058309
        k(  299) = (   0.1428571  -0.3571429  -0.1428571), wk =   0.0029155
        k(  300) = (   0.1428571  -0.2857143   0.2857143), wk =   0.0029155
        k(  301) = (   0.1428571  -0.2857143   0.3571429), wk =   0.0058309
        k(  302) = (   0.1428571  -0.2857143   0.4285714), wk =   0.0058309
        k(  303) = (   0.1428571  -0.2857143  -0.5000000), wk =   0.0058309
        k(  304) = (   0.1428571  -0.2857143  -0.4285714), wk =   0.0058309
        k(  305) = (   0.1428571  -0.2857143  -0.3571429), wk =   0.0058309
        k(  306) = (   0.1428571  -0.2857143  -0.2857143), wk =   0.0058309
        k(  307) = (   0.1428571  -0.2857143  -0.2142857), wk =   0.0058309
        k(  308) = (   0.1428571  -0.2857143  -0.1428571), wk =   0.0029155
        k(  309) = (   0.1428571  -0.2142857   0.2142857), wk =   0.0029155
        k(  310) = (   0.1428571  -0.2142857   0.2857143), wk =   0.0058309
        k(  311) = (   0.1428571  -0.2142857   0.3571429), wk =   0.0058309
        k(  312) = (   0.1428571  -0.2142857   0.4285714), wk =   0.0058309
        k(  313) = (   0.1428571  -0.2142857  -0.5000000), wk =   0.0058309
        k(  314) = (   0.1428571  -0.2142857  -0.4285714), wk =   0.0058309
        k(  315) = (   0.1428571  -0.2142857  -0.3571429), wk =   0.0058309
        k(  316) = (   0.1428571  -0.2142857  -0.2857143), wk =   0.0058309
        k(  317) = (   0.1428571  -0.2142857  -0.2142857), wk =   0.0058309
        k(  318) = (   0.1428571  -0.2142857  -0.1428571), wk =   0.0029155
        k(  319) = (   0.1428571  -0.1428571   0.1428571), wk =   0.0014577
        k(  320) = (   0.1428571  -0.1428571   0.2142857), wk =   0.0029155
        k(  321) = (   0.1428571  -0.1428571   0.2857143), wk =   0.0029155
        k(  322) = (   0.1428571  -0.1428571   0.3571429), wk =   0.0029155
        k(  323) = (   0.1428571  -0.1428571   0.4285714), wk =   0.0029155
        k(  324) = (   0.1428571  -0.1428571  -0.5000000), wk =   0.0029155
        k(  325) = (   0.1428571  -0.1428571  -0.4285714), wk =   0.0029155
        k(  326) = (   0.1428571  -0.1428571  -0.3571429), wk =   0.0029155
        k(  327) = (   0.1428571  -0.1428571  -0.2857143), wk =   0.0029155
        k(  328) = (   0.1428571  -0.1428571  -0.2142857), wk =   0.0029155
        k(  329) = (   0.1428571  -0.1428571  -0.1428571), wk =   0.0014577
        k(  330) = (   0.2142857   0.2142857   0.2142857), wk =   0.0058309
        k(  331) = (   0.2142857   0.2142857   0.2857143), wk =   0.0029155
        k(  332) = (   0.2142857   0.2142857  -0.2142857), wk =   0.0014577
        k(  333) = (   0.2142857   0.2857143   0.2142857), wk =   0.0029155
        k(  334) = (   0.2142857   0.2857143   0.2857143), wk =   0.0029155
        k(  335) = (   0.2142857   0.2857143  -0.2857143), wk =   0.0029155
        k(  336) = (   0.2142857   0.2857143  -0.2142857), wk =   0.0029155
        k(  337) = (   0.2142857   0.3571429  -0.3571429), wk =   0.0029155
        k(  338) = (   0.2142857   0.3571429  -0.2857143), wk =   0.0058309
        k(  339) = (   0.2142857   0.3571429  -0.2142857), wk =   0.0029155
        k(  340) = (   0.2142857   0.4285714  -0.4285714), wk =   0.0029155
        k(  341) = (   0.2142857   0.4285714  -0.3571429), wk =   0.0058309
        k(  342) = (   0.2142857   0.4285714  -0.2857143), wk =   0.0058309
        k(  343) = (   0.2142857   0.4285714  -0.2142857), wk =   0.0029155
        k(  344) = (   0.2142857  -0.5000000  -0.5000000), wk =   0.0029155
        k(  345) = (   0.2142857  -0.5000000  -0.4285714), wk =   0.0058309
        k(  346) = (   0.2142857  -0.5000000  -0.3571429), wk =   0.0058309
        k(  347) = (   0.2142857  -0.5000000  -0.2857143), wk =   0.0058309
        k(  348) = (   0.2142857  -0.5000000  -0.2142857), wk =   0.0029155
        k(  349) = (   0.2142857  -0.4285714   0.4285714), wk =   0.0029155
        k(  350) = (   0.2142857  -0.4285714  -0.5000000), wk =   0.0058309
        k(  351) = (   0.2142857  -0.4285714  -0.4285714), wk =   0.0058309
        k(  352) = (   0.2142857  -0.4285714  -0.3571429), wk =   0.0058309
        k(  353) = (   0.2142857  -0.4285714  -0.2857143), wk =   0.0058309
        k(  354) = (   0.2142857  -0.4285714  -0.2142857), wk =   0.0029155
        k(  355) = (   0.2142857  -0.3571429   0.3571429), wk =   0.0029155
        k(  356) = (   0.2142857  -0.3571429   0.4285714), wk =   0.0058309
        k(  357) = (   0.2142857  -0.3571429  -0.5000000), wk =   0.0058309
        k(  358) = (   0.2142857  -0.3571429  -0.4285714), wk =   0.0058309
        k(  359) = (   0.2142857  -0.3571429  -0.3571429), wk =   0.0058309
        k(  360) = (   0.2142857  -0.3571429  -0.2857143), wk =   0.0058309
        k(  361) = (   0.2142857  -0.3571429  -0.2142857), wk =   0.0029155
        k(  362) = (   0.2142857  -0.2857143   0.2857143), wk =   0.0029155
        k(  363) = (   0.2142857  -0.2857143   0.3571429), wk =   0.0058309
        k(  364) = (   0.2142857  -0.2857143   0.4285714), wk =   0.0058309
        k(  365) = (   0.2142857  -0.2857143  -0.5000000), wk =   0.0058309
        k(  366) = (   0.2142857  -0.2857143  -0.4285714), wk =   0.0058309
        k(  367) = (   0.2142857  -0.2857143  -0.3571429), wk =   0.0058309
        k(  368) = (   0.2142857  -0.2857143  -0.2857143), wk =   0.0058309
        k(  369) = (   0.2142857  -0.2857143  -0.2142857), wk =   0.0029155
        k(  370) = (   0.2142857  -0.2142857   0.2142857), wk =   0.0014577
        k(  371) = (   0.2142857  -0.2142857   0.2857143), wk =   0.0029155
        k(  372) = (   0.2142857  -0.2142857   0.3571429), wk =   0.0029155
        k(  373) = (   0.2142857  -0.2142857   0.4285714), wk =   0.0029155
        k(  374) = (   0.2142857  -0.2142857  -0.5000000), wk =   0.0029155
        k(  375) = (   0.2142857  -0.2142857  -0.4285714), wk =   0.0029155
        k(  376) = (   0.2142857  -0.2142857  -0.3571429), wk =   0.0029155
        k(  377) = (   0.2142857  -0.2142857  -0.2857143), wk =   0.0029155
        k(  378) = (   0.2142857  -0.2142857  -0.2142857), wk =   0.0014577
        k(  379) = (   0.2857143   0.2857143  -0.2857143), wk =   0.0014577
        k(  380) = (   0.2857143   0.3571429  -0.3571429), wk =   0.0029155
        k(  381) = (   0.2857143   0.3571429  -0.2857143), wk =   0.0029155
        k(  382) = (   0.2857143   0.4285714  -0.4285714), wk =   0.0029155
        k(  383) = (   0.2857143   0.4285714  -0.3571429), wk =   0.0058309
        k(  384) = (   0.2857143   0.4285714  -0.2857143), wk =   0.0029155
        k(  385) = (   0.2857143  -0.5000000  -0.5000000), wk =   0.0029155
        k(  386) = (   0.2857143  -0.5000000  -0.4285714), wk =   0.0058309
        k(  387) = (   0.2857143  -0.5000000  -0.3571429), wk =   0.0058309
        k(  388) = (   0.2857143  -0.5000000  -0.2857143), wk =   0.0029155
        k(  389) = (   0.2857143  -0.4285714   0.4285714), wk =   0.0029155
        k(  390) = (   0.2857143  -0.4285714  -0.5000000), wk =   0.0058309
        k(  391) = (   0.2857143  -0.4285714  -0.4285714), wk =   0.0058309
        k(  392) = (   0.2857143  -0.4285714  -0.3571429), wk =   0.0058309
        k(  393) = (   0.2857143  -0.4285714  -0.2857143), wk =   0.0029155
        k(  394) = (   0.2857143  -0.3571429   0.3571429), wk =   0.0029155
        k(  395) = (   0.2857143  -0.3571429   0.4285714), wk =   0.0058309
        k(  396) = (   0.2857143  -0.3571429  -0.5000000), wk =   0.0058309
        k(  397) = (   0.2857143  -0.3571429  -0.4285714), wk =   0.0058309
        k(  398) = (   0.2857143  -0.3571429  -0.3571429), wk =   0.0058309
        k(  399) = (   0.2857143  -0.3571429  -0.2857143), wk =   0.0029155
        k(  400) = (   0.2857143  -0.2857143   0.2857143), wk =   0.0014577
        k(  401) = (   0.2857143  -0.2857143   0.3571429), wk =   0.0029155
        k(  402) = (   0.2857143  -0.2857143   0.4285714), wk =   0.0029155
        k(  403) = (   0.2857143  -0.2857143  -0.5000000), wk =   0.0029155
        k(  404) = (   0.2857143  -0.2857143  -0.4285714), wk =   0.0029155
        k(  405) = (   0.2857143  -0.2857143  -0.3571429), wk =   0.0029155
        k(  406) = (   0.2857143  -0.2857143  -0.2857143), wk =   0.0014577
        k(  407) = (   0.3571429   0.3571429  -0.3571429), wk =   0.0014577
        k(  408) = (   0.3571429   0.4285714  -0.4285714), wk =   0.0029155
        k(  409) = (   0.3571429   0.4285714  -0.3571429), wk =   0.0029155
        k(  410) = (   0.3571429  -0.5000000  -0.5000000), wk =   0.0029155
        k(  411) = (   0.3571429  -0.5000000  -0.4285714), wk =   0.0058309
        k(  412) = (   0.3571429  -0.5000000  -0.3571429), wk =   0.0029155
        k(  413) = (   0.3571429  -0.4285714   0.4285714), wk =   0.0029155
        k(  414) = (   0.3571429  -0.4285714  -0.5000000), wk =   0.0058309
        k(  415) = (   0.3571429  -0.4285714  -0.4285714), wk =   0.0058309
        k(  416) = (   0.3571429  -0.4285714  -0.3571429), wk =   0.0029155
        k(  417) = (   0.3571429  -0.3571429   0.3571429), wk =   0.0014577
        k(  418) = (   0.3571429  -0.3571429   0.4285714), wk =   0.0029155
        k(  419) = (   0.3571429  -0.3571429  -0.5000000), wk =   0.0029155
        k(  420) = (   0.3571429  -0.3571429  -0.4285714), wk =   0.0029155
        k(  421) = (   0.3571429  -0.3571429  -0.3571429), wk =   0.0014577
        k(  422) = (   0.4285714   0.4285714  -0.4285714), wk =   0.0014577
        k(  423) = (   0.4285714  -0.5000000  -0.5000000), wk =   0.0029155
        k(  424) = (   0.4285714  -0.5000000  -0.4285714), wk =   0.0029155
        k(  425) = (   0.4285714  -0.4285714   0.4285714), wk =   0.0014577
        k(  426) = (   0.4285714  -0.4285714  -0.5000000), wk =   0.0029155
        k(  427) = (   0.4285714  -0.4285714  -0.4285714), wk =   0.0014577
        k(  428) = (  -0.5000000  -0.5000000  -0.5000000), wk =   0.0007289

     Dense  grid:   209365 G-vectors     FFT dimensions: ( 120, 120, 120)

     Smooth grid:    52925 G-vectors     FFT dimensions: (  75,  75,  75)

     Dynamical RAM for                 wfc:       0.04 MB

     Dynamical RAM for     wfc (w. buffer):      18.83 MB

     Dynamical RAM for           str. fact:       0.20 MB

     Dynamical RAM for           local pot:       0.00 MB

     Dynamical RAM for          nlocal pot:       0.09 MB

     Dynamical RAM for                qrad:       6.81 MB

     Dynamical RAM for          rho,v,vnew:       1.19 MB

     Dynamical RAM for               rhoin:       0.40 MB

     Dynamical RAM for            rho*nmix:       1.07 MB

     Dynamical RAM for           G-vectors:       0.26 MB

     Dynamical RAM for          h,s,v(r/c):       0.08 MB

     Dynamical RAM for          <psi|beta>:       0.01 MB

     Dynamical RAM for                 psi:       0.09 MB

     Dynamical RAM for                hpsi:       0.09 MB

     Dynamical RAM for                spsi:       0.09 MB

     Dynamical RAM for      wfcinit/wfcrot:       0.12 MB

     Dynamical RAM for           addusdens:      12.52 MB

     Dynamical RAM for          addusforce:      12.69 MB

     Dynamical RAM for         addusstress:      13.38 MB

     Estimated static dynamical RAM per process >      30.75 MB

     Estimated max dynamical RAM per process >      44.13 MB

     Estimated total dynamical RAM >       2.07 GB

     Initial potential from superposition of free atoms

     starting charge   32.99867, renormalised to   33.00000
     Starting wfcs are   25 randomized atomic wfcs
     Checking if some PAW data can be deallocated... 
       PAW data deallocated on   36 nodes for type:  1
       PAW data deallocated on   24 nodes for type:  2
       PAW data deallocated on   36 nodes for type:  3

     total cpu time spent up to now is        8.7 secs

     Self-consistent Calculation

     iteration #  1     ecut=    80.00 Ry     beta= 0.70
     Davidson diagonalization with overlap
     ethr =  1.00E-02,  avg # of iterations =  2.2

     total cpu time spent up to now is       27.5 secs

     total energy              =    -534.52738950 Ry
     estimated scf accuracy    <       0.76112854 Ry

     iteration #  2     ecut=    80.00 Ry     beta= 0.70
     Davidson diagonalization with overlap
     ethr =  2.31E-03,  avg # of iterations =  3.7

     total cpu time spent up to now is       49.7 secs

     total energy              =    -533.62867945 Ry
     estimated scf accuracy    <       8.37403895 Ry

     iteration #  3     ecut=    80.00 Ry     beta= 0.70
     Davidson diagonalization with overlap
     ethr =  2.31E-03,  avg # of iterations =  3.5

     total cpu time spent up to now is       70.6 secs

     total energy              =    -534.97352190 Ry
     estimated scf accuracy    <       0.12441660 Ry

     iteration #  4     ecut=    80.00 Ry     beta= 0.70
     Davidson diagonalization with overlap
     ethr =  3.77E-04,  avg # of iterations =  1.3

     total cpu time spent up to now is       87.4 secs

     total energy              =    -534.96676178 Ry
     estimated scf accuracy    <       0.05965253 Ry

     iteration #  5     ecut=    80.00 Ry     beta= 0.70
     Davidson diagonalization with overlap
     ethr =  1.81E-04,  avg # of iterations =  1.5

     total cpu time spent up to now is      104.2 secs

     total energy              =    -534.96322505 Ry
     estimated scf accuracy    <       0.02352378 Ry

     iteration #  6     ecut=    80.00 Ry     beta= 0.70
     Davidson diagonalization with overlap
     ethr =  7.13E-05,  avg # of iterations =  2.0

     total cpu time spent up to now is      121.5 secs

     total energy              =    -534.96581146 Ry
     estimated scf accuracy    <       0.00064780 Ry

     iteration #  7     ecut=    80.00 Ry     beta= 0.70
     Davidson diagonalization with overlap
     ethr =  1.96E-06,  avg # of iterations =  3.5

     total cpu time spent up to now is      144.1 secs

     total energy              =    -534.96602098 Ry
     estimated scf accuracy    <       0.00018505 Ry

     iteration #  8     ecut=    80.00 Ry     beta= 0.70
     Davidson diagonalization with overlap
     ethr =  5.61E-07,  avg # of iterations =  1.2

     total cpu time spent up to now is      160.7 secs

     total energy              =    -534.96601927 Ry
     estimated scf accuracy    <       0.00003529 Ry

     iteration #  9     ecut=    80.00 Ry     beta= 0.70
     Davidson diagonalization with overlap
     ethr =  1.07E-07,  avg # of iterations =  2.1

     total cpu time spent up to now is      179.3 secs

     total energy              =    -534.96602750 Ry
     estimated scf accuracy    <       0.00000094 Ry

     iteration # 10     ecut=    80.00 Ry     beta= 0.70
     Davidson diagonalization with overlap
     ethr =  2.84E-09,  avg # of iterations =  3.6

     total cpu time spent up to now is      200.9 secs

     total energy              =    -534.96602785 Ry
     estimated scf accuracy    <          7.7E-09 Ry

     iteration # 11     ecut=    80.00 Ry     beta= 0.70
     Davidson diagonalization with overlap
     ethr =  2.34E-11,  avg # of iterations =  5.1

     total cpu time spent up to now is      229.7 secs

     total energy              =    -534.96602786 Ry
     estimated scf accuracy    <       0.00000003 Ry

     iteration # 12     ecut=    80.00 Ry     beta= 0.70
     Davidson diagonalization with overlap
     ethr =  2.34E-11,  avg # of iterations =  2.8

[...]

   -49.8642 -26.1390 -25.7939 -25.7125 -12.3648  -9.2903  -9.0508   1.2952
     2.2524   2.6610   2.6642   2.8602   3.2930   3.5806   3.8666   4.0201
     5.5778   7.3361   7.5789   8.9754  10.0066

     occupation numbers 
     1.0000   1.0000   1.0000   1.0000   1.0000   1.0000   1.0000   1.0000
     1.0000   1.0000   1.0000   1.0000   1.0000   1.0000   1.0000   1.0000
     1.0000  -0.0000  -0.0000  -0.0000  -0.0000

          k = 0.1426 0.0000 0.4255 (  6612 PWs)   bands (ev):

   -49.8637 -26.1288 -25.7924 -25.7236 -12.4186  -9.2809  -9.0388   1.3252
     2.1299   2.6690   2.7798   3.1767   3.3466   3.4862   3.8339   3.9545
     5.7732   7.1397   7.4721   8.8820   9.8945

     occupation numbers 
     1.0000   1.0000   1.0000   1.0000   1.0000   1.0000   1.0000   1.0000
     1.0000   1.0000   1.0000   1.0000   1.0000   1.0000   1.0000   1.0000
     1.0000  -0.0009  -0.0000  -0.0000  -0.0000

          k =-1.9966-0.2453-0.0774 (  6613 PWs)   bands (ev):

   -49.8638 -26.1650 -25.7930 -25.7117 -12.1940  -9.2380  -9.0814   1.3370
     2.1193   2.2436   2.4070   2.6819   3.1648   3.3131   3.9042   4.1435
     5.5953   7.7229   7.8064   8.9881  10.3656

     occupation numbers 
     1.0000   1.0000   1.0000   1.0000   1.0000   1.0000   1.0000   1.0000
     1.0000   1.0000   1.0000   1.0000   1.0000   1.0000   1.0000   1.0000
     1.0000  -0.0000  -0.0000  -0.0000  -0.0000

          k =-1.8540-0.1227-0.0774 (  6615 PWs)   bands (ev):

   -49.8635 -26.1381 -25.7920 -25.7233 -12.3590  -9.2448  -9.0685   1.4043
     2.0436   2.5951   2.6657   3.0230   3.1494   3.5964   3.8750   3.8770
     5.7805   7.2881   7.5534   8.9019  10.0637

     occupation numbers 
     1.0000   1.0000   1.0000   1.0000   1.0000   1.0000   1.0000   1.0000
     1.0000   1.0000   1.0000   1.0000   1.0000   1.0000   1.0000   1.0000
     1.0000  -0.0000  -0.0000  -0.0000  -0.0000

          k =-1.7114 0.0000-0.0774 (  6622 PWs)   bands (ev):

   -49.8617 -26.1264 -25.7871 -25.7537 -12.4026  -9.2156  -9.0207   1.4349
     1.7988   2.6344   2.7774   2.8133   3.4574   3.6781   3.7801   3.8029
     6.2062   7.0177   7.3696   8.7274   9.9445

     occupation numbers 
     1.0000   1.0000   1.0000   1.0000   1.0000   1.0000   1.0000   1.0000
     1.0000   1.0000   1.0000   1.0000   1.0000   1.0000   1.0000   1.0000
     1.0000  -0.0141  -0.0000  -0.0000  -0.0000

          k =-0.0000 1.3493-0.0387 (  6623 PWs)   bands (ev):

   -49.8631 -26.2022 -25.7916 -25.7105 -11.9357  -9.1775  -9.1081   1.2194
     1.5968   1.8362   2.2556   2.6920   2.9659   3.0756   3.8330   4.3194
     5.6194   8.1761   8.2340   8.9851  10.6925

     occupation numbers 
     1.0000   1.0000   1.0000   1.0000   1.0000   1.0000   1.0000   1.0000
     1.0000   1.0000   1.0000   1.0000   1.0000   1.0000   1.0000   1.0000
     1.0000  -0.0000  -0.0000  -0.0000  -0.0000

          k =-1.8540-0.2453-0.0387 (  6615 PWs)   bands (ev):

   -49.8630 -26.1641 -25.7911 -25.7225 -12.1883  -9.1963  -9.0942   1.4187
     2.0017   2.2380   2.2707   2.8872   3.0039   3.3525   3.7256   4.1630
     5.7961   7.6760   7.7803   8.9145  10.4163

     occupation numbers 
     1.0000   1.0000   1.0000   1.0000   1.0000   1.0000   1.0000   1.0000
     1.0000   1.0000   1.0000   1.0000   1.0000   1.0000   1.0000   1.0000
     1.0000  -0.0000  -0.0000  -0.0000  -0.0000

          k =-1.7114-0.1227-0.0387 (  6631 PWs)   bands (ev):

   -49.8615 -26.1357 -25.7867 -25.7534 -12.3431  -9.1920  -9.0368   1.5169
     1.7036   2.5879   2.6491   2.7507   3.2648   3.5396   3.7445   3.9599
     6.2144   7.1652   7.4534   8.7388  10.1009

     occupation numbers 
     1.0000   1.0000   1.0000   1.0000   1.0000   1.0000   1.0000   1.0000
     1.0000   1.0000   1.0000   1.0000   1.0000   1.0000   1.0000   1.0000
     1.0000  -0.0004  -0.0000  -0.0000  -0.0000

          k =-1.5688 0.0000-0.0387 (  6631 PWs)   bands (ev):

   -49.8588 -26.1230 -25.7970 -25.7794 -12.3795  -9.1598  -8.9514   1.3276
     1.6265   2.2552   2.6581   2.8699   3.6011   3.6706   3.7205   3.8672
     6.7183   6.8715   7.1960   8.6634   9.9104

     occupation numbers 
     1.0000   1.0000   1.0000   1.0000   1.0000   1.0000   1.0000   1.0000
     1.0000   1.0000   1.0000   1.0000   1.0000   1.0000   1.0000   1.0000
     0.5202  -0.0138  -0.0002  -0.0000  -0.0000

          k = 0.0000 1.2266 0.0000 (  6614 PWs)   bands (ev):

   -49.8623 -26.2429 -25.7900 -25.7091 -11.6303  -9.1511  -9.0958   0.6110
     1.3451   1.4338   2.3299   2.6927   2.7464   2.9138   3.8206   4.3643
     5.6429   8.6370   8.7665   8.9669  10.8772

     occupation numbers 
     1.0000   1.0000   1.0000   1.0000   1.0000   1.0000   1.0000   1.0000
     1.0000   1.0000   1.0000   1.0000   1.0000   1.0000   1.0000   1.0000
     1.0000  -0.0000  -0.0000  -0.0000  -0.0000

          k = 0.1426 1.3493 0.0000 (  6632 PWs)   bands (ev):

   -49.8624 -26.2013 -25.7897 -25.7212 -11.9303  -9.1415  -9.1143   1.2491
     1.6344   1.8293   2.0570   2.7783   2.8667   3.1957   3.6151   4.3183
     5.8152   8.1504   8.1897   8.9184  10.7440

     occupation numbers 
     1.0000   1.0000   1.0000   1.0000   1.0000   1.0000   1.0000   1.0000
     1.0000   1.0000   1.0000   1.0000   1.0000   1.0000   1.0000   1.0000
     1.0000  -0.0000  -0.0000  -0.0000  -0.0000

          k =-1.7114-0.2453 0.0000 (  6635 PWs)   bands (ev):

   -49.8610 -26.1617 -25.7858 -25.7526 -12.1727  -9.1605  -9.0447   1.5206
     1.6578   2.2617   2.3043   2.6367   3.1197   3.2558   3.5874   4.1928
     6.2246   7.5548   7.6988   8.7599  10.4567

     occupation numbers 
     1.0000   1.0000   1.0000   1.0000   1.0000   1.0000   1.0000   1.0000
     1.0000   1.0000   1.0000   1.0000   1.0000   1.0000   1.0000   1.0000
     1.0001  -0.0000  -0.0000  -0.0000  -0.0000

          k =-1.5688-0.1227 0.0000 (  6626 PWs)   bands (ev):

   -49.8586 -26.1323 -25.7967 -25.7790 -12.3202  -9.1495  -8.9534   1.3451
     1.6046   2.2240   2.5825   2.7535   3.4309   3.4328   3.7234   4.0351
     6.7227   7.0169   7.2960   8.6712  10.0640

     occupation numbers 
     1.0000   1.0000   1.0000   1.0000   1.0000   1.0000   1.0000   1.0000
     1.0000   1.0000   1.0000   1.0000   1.0000   1.0000   1.0000   1.0000
     0.4973  -0.0142  -0.0000  -0.0000  -0.0000

          k =-1.4261 0.0000 0.0000 (  6627 PWs)   bands (ev):

   -49.8555 -26.1192 -25.8446 -25.7708 -12.3540  -9.1116  -8.8574   1.1331
     1.3451   2.0678   2.5766   2.9495   3.6426   3.6467   3.7605   3.8913
     6.7529   6.9818   7.2683   8.7978   9.8084

     occupation numbers 
     1.0000   1.0000   1.0000   1.0000   1.0000   1.0000   1.0000   1.0000
     1.0000   1.0000   1.0000   1.0000   1.0000   1.0000   1.0000   1.0000
     0.3439  -0.0235  -0.0000  -0.0000  -0.0000

          k =-0.0000 0.0000 0.4642 (  6594 PWs)   bands (ev):

   -49.8644 -26.1296 -25.7943 -25.7128 -12.4242  -9.2667  -9.0855   1.3866
     2.1981   2.6784   2.7633   3.3184   3.3363   3.3529   3.8038   4.0614
     5.5722   7.1875   7.5208   8.9983   9.8851

     occupation numbers 
     1.0000   1.0000   1.0000   1.0000   1.0000   1.0000   1.0000   1.0000
     1.0000   1.0000   1.0000   1.0000   1.0000   1.0000   1.0000   1.0000
     1.0000  -0.0002  -0.0000  -0.0000  -0.0000

          k =-1.9966-0.1227-0.0387 (  6603 PWs)   bands (ev):

   -49.8642 -26.1390 -25.7939 -25.7125 -12.3646  -9.2312  -9.1139   1.4363
     2.1427   2.6412   2.6892   2.8365   3.2766   3.6005   3.8191   3.9973
     5.5788   7.3361   7.5957   9.0085  10.0534

     occupation numbers 
     1.0000   1.0000   1.0000   1.0000   1.0000   1.0000   1.0000   1.0000
     1.0000   1.0000   1.0000   1.0000   1.0000   1.0000   1.0000   1.0000
     1.0000  -0.0000  -0.0000  -0.0000  -0.0000

          k =-1.8540 0.0000-0.0387 (  6606 PWs)   bands (ev):

   -49.8637 -26.1288 -25.7924 -25.7236 -12.4184  -9.2291  -9.0942   1.4838
     1.9744   2.6973   2.7738   3.1526   3.4036   3.4595   3.7733   3.9343
     5.7775   7.1390   7.4885   8.9126   9.9206

     occupation numbers 
     1.0000   1.0000   1.0000   1.0000   1.0000   1.0000   1.0000   1.0000
     1.0000   1.0000   1.0000   1.0000   1.0000   1.0000   1.0000   1.0000
     1.0000  -0.0009  -0.0000  -0.0000  -0.0000

          k =-0.0000 1.4719-0.0000 (  6616 PWs)   bands (ev):

   -49.8638 -26.1650 -25.7930 -25.7117 -12.1939  -9.1908  -9.1305   1.4019
     2.1479   2.2209   2.3332   2.6940   3.1596   3.2960   3.8906   4.1467
     5.5966   7.7229   7.8126   9.0038  10.3938

     occupation numbers 
     1.0000   1.0000   1.0000   1.0000   1.0000   1.0000   1.0000   1.0000
     1.0000   1.0000   1.0000   1.0000   1.0000   1.0000   1.0000   1.0000
     1.0000  -0.0000  -0.0000  -0.0000  -0.0000

          k =-1.8540-0.1227-0.0000 (  6625 PWs)   bands (ev):

   -49.8635 -26.1381 -25.7920 -25.7233 -12.3589  -9.2096  -9.1055   1.4961
     1.9571   2.6176   2.6497   3.0369   3.1245   3.6034   3.8552   3.8654
     5.7831   7.2878   7.5605   8.9172  10.0788

     occupation numbers 
     1.0000   1.0000   1.0000   1.0000   1.0000   1.0000   1.0000   1.0000
     1.0000   1.0000   1.0000   1.0000   1.0000   1.0000   1.0000   1.0000
     1.0000  -0.0000  -0.0000  -0.0000  -0.0000

          k =-1.7114 0.0000-0.0000 (  6613 PWs)   bands (ev):

   -49.8617 -26.1264 -25.7871 -25.7537 -12.4025  -9.1947  -9.0429   1.5968
     1.6305   2.6955   2.7204   2.8095   3.4935   3.7021   3.7450   3.7704
     6.2135   7.0158   7.3748   8.7330   9.9430

     occupation numbers 
     1.0000   1.0000   1.0000   1.0000   1.0000   1.0000   1.0000   1.0000
     1.0000   1.0000   1.0000   1.0000   1.0000   1.0000   1.0000   1.0000
     1.0000  -0.0145  -0.0000  -0.0000  -0.0000

          k =-1.9966-1.7173-0.5415 (  6606 PWs)   bands (ev):

   -49.8644 -26.1296 -25.7943 -25.7128 -12.4241  -9.2272  -9.1271   1.4759
     2.1106   2.6920   2.7607   3.3079   3.3189   3.3841   3.7696   4.0508
     5.5722   7.1875   7.5305   9.0157   9.9064

     occupation numbers 
     1.0000   1.0000   1.0000   1.0000   1.0000   1.0000   1.0000   1.0000
     1.0000   1.0000   1.0000   1.0000   1.0000   1.0000   1.0000   1.0000
     1.0000  -0.0002  -0.0000  -0.0000  -0.0000

     the Fermi energy is     6.7222 ev

!    total energy              =    -534.96602787 Ry

     total all-electron energy =     -9636.856270 Ry
     estimated scf accuracy    <          6.2E-12 Ry
     smearing contrib. (-TS)   =      -0.00028172 Ry
     internal energy E=F+TS    =    -534.96574615 Ry

     The total energy is F=E-TS. E is the sum of the following terms:
     one-electron contribution =     -93.93310262 Ry
     hartree contribution      =      61.20326245 Ry
     xc contribution           =     -39.53636873 Ry
     ewald contribution        =    -135.48921389 Ry
     one-center paw contrib.   =    -327.21032336 Ry
      -> PAW hartree energy AE =      29.11145676 Ry
      -> PAW hartree energy PS =     -29.08137801 Ry
      -> PAW xc energy AE      =     -17.04123563 Ry
      -> PAW xc energy PS      =       7.41705476 Ry
      -> total E_H with PAW    =      61.23334120 Ry
      -> total E_XC with PAW   =     -49.16054960 Ry

     convergence has been achieved in  13 iterations

     Forces acting on atoms (cartesian axes, Ry/au):

     atom    1 type  1   force =     0.00000000    0.00000000    0.00000000
     atom    2 type  2   force =     0.00000000    0.00000000    0.03594928
     atom    3 type  2   force =     0.00000000    0.00000000   -0.03594928
     atom    4 type  3   force =    -0.00000000   -0.00000000    0.00000000
     The non-local contrib.  to forces
     atom    1 type  1   force =     0.00000000    0.00000000    0.00000000
     atom    2 type  2   force =     0.00000000    0.00000000    0.07010002
     atom    3 type  2   force =     0.00000000    0.00000000   -0.07010002
     atom    4 type  3   force =     0.00000000    0.00000000    0.00000000
     The ionic contribution  to forces
     atom    1 type  1   force =    -0.00000000   -0.00000000    0.00000000
     atom    2 type  2   force =     0.00000001    0.00000000  -10.07462875
     atom    3 type  2   force =    -0.00000001   -0.00000000   10.07462875
     atom    4 type  3   force =    -0.00000000   -0.00000000    0.00000000
     The local contribution  to forces
     atom    1 type  1   force =     0.00000000    0.00000000    0.00000000
     atom    2 type  2   force =     0.00000002   -0.00000003   10.03907216
     atom    3 type  2   force =    -0.00000002    0.00000003  -10.03907216
     atom    4 type  3   force =     0.00000000    0.00000000    0.00000000
     The core correction contribution to forces
     atom    1 type  1   force =     0.00000000    0.00000000   -0.00000000
     atom    2 type  2   force =    -0.00000000    0.00000000    0.00140508
     atom    3 type  2   force =     0.00000000   -0.00000000   -0.00140508
     atom    4 type  3   force =     0.00000000    0.00000000    0.00000000
     The Hubbard contrib.    to forces
     atom    1 type  1   force =     0.00000000    0.00000000    0.00000000
     atom    2 type  2   force =     0.00000000    0.00000000    0.00000000
     atom    3 type  2   force =     0.00000000    0.00000000    0.00000000
     atom    4 type  3   force =     0.00000000    0.00000000    0.00000000
     The SCF correction term to forces
     atom    1 type  1   force =    -0.00000000    0.00000000   -0.00000000
     atom    2 type  2   force =     0.00000000   -0.00000000    0.00000078
     atom    3 type  2   force =    -0.00000000    0.00000000   -0.00000078
     atom    4 type  3   force =     0.00000000    0.00000000   -0.00000000

     Total force =     0.050840     Total SCF correction =     0.000001


     Computing stress (Cartesian axis) and pressure

          total   stress  (Ry/bohr**3)                   (kbar)     P=      -39.15
  -0.00027917   0.00000000   0.00000000          -41.07        0.00        0.00
   0.00000000  -0.00025754  -0.00000000            0.00      -37.89       -0.00
   0.00000000   0.00000000  -0.00026170            0.00        0.00      -38.50

     kinetic stress (kbar)  14772.34      0.00     -0.00
                                0.00  14788.57     -0.00
                                0.00      0.00  14786.28

     local   stress (kbar) -18920.56     -0.00      0.00
                               -0.00 -24160.49      0.00
                                0.00      0.00   4080.98

     nonloc. stress (kbar)   8010.04      0.00      0.00
                               -0.00   7932.67      0.00
                               -0.00     -0.00   8007.56

     hartree stress (kbar)   8382.57     -0.00      0.00
                               -0.00  10093.64      0.00
                                0.00      0.00  -2044.75

     exc-cor stress (kbar)  -1130.83      0.00     -0.00
                                0.00  -1121.90     -0.00
                               -0.00     -0.00  -1130.40

     corecor stress (kbar)  -2029.49     -0.00      0.00
                               -0.00  -2028.93      0.00
                                0.00      0.00  -2029.46

     ewald   stress (kbar)  -9125.13     -0.00     -0.00
                               -0.00  -5541.44     -0.00
                               -0.00     -0.00 -21708.70

     hubbard stress (kbar)      0.00      0.00      0.00
                                0.00      0.00      0.00
                                0.00      0.00      0.00

     DFT-D   stress (kbar)      0.00      0.00      0.00
                                0.00      0.00      0.00
                                0.00      0.00      0.00

     XDM     stress (kbar)      0.00      0.00      0.00
                                0.00      0.00      0.00
                                0.00      0.00      0.00

     dft-nl  stress (kbar)      0.00      0.00      0.00
                                0.00      0.00      0.00
                                0.00      0.00      0.00

     TS-vdW  stress (kbar)      0.00      0.00      0.00
                                0.00      0.00      0.00
                                0.00      0.00      0.00



     Writing output data file /zfs_data/gutierre/Scratch/Cl2NbO/convergence/cutoff/14x14x14/80/tmp/Cl2NbO.save/
 
     init_run     :      8.18s CPU      8.47s WALL (       1 calls)
     electrons    :    256.58s CPU    262.18s WALL (       1 calls)
     forces       :      0.72s CPU      0.73s WALL (       1 calls)
     stress       :      1.84s CPU      1.85s WALL (       1 calls)

     Called by init_run:
     wfcinit      :      7.53s CPU      7.71s WALL (       1 calls)
     wfcinit:atom :      0.04s CPU      0.04s WALL (     428 calls)
     wfcinit:wfcr :      7.35s CPU      7.52s WALL (     428 calls)
     potinit      :      0.23s CPU      0.32s WALL (       1 calls)
     hinit0       :      0.27s CPU      0.28s WALL (       1 calls)

     Called by electrons:
     c_bands      :    212.48s CPU    217.12s WALL (      13 calls)
     sum_band     :     42.11s CPU     42.99s WALL (      13 calls)
     v_of_rho     :      0.64s CPU      0.68s WALL (      14 calls)
     v_h          :      0.05s CPU      0.06s WALL (      14 calls)
     v_xc         :      0.67s CPU      0.71s WALL (      16 calls)
     newd         :      0.56s CPU      0.57s WALL (      14 calls)
     PAW_pot      :      0.73s CPU      0.74s WALL (      14 calls)
     mix_rho      :      0.09s CPU      0.10s WALL (      13 calls)

     Called by c_bands:
     init_us_2    :      1.63s CPU      1.70s WALL (   12412 calls)
     cegterg      :    208.38s CPU    212.74s WALL (    5564 calls)

     Called by sum_band:
     sum_band:wei :      0.18s CPU      0.19s WALL (      13 calls)
     sum_band:loo :     41.28s CPU     42.13s WALL (      13 calls)
     sum_band:buf :      0.16s CPU      0.16s WALL (    5564 calls)
     sum_band:ini :      0.76s CPU      0.78s WALL (    5564 calls)
     sum_band:cal :      0.73s CPU      0.74s WALL (    5564 calls)
     sum_band:bec :      0.15s CPU      0.15s WALL (    5564 calls)
     addusdens    :      0.56s CPU      0.58s WALL (      13 calls)
     addusd:skk   :      0.00s CPU      0.00s WALL (      39 calls)
     addusd:dgemm :      0.18s CPU      0.20s WALL (      39 calls)
     addusd:qvan2 :      0.35s CPU      0.35s WALL (      39 calls)

     Called by *egterg:
     cdiaghg      :     12.15s CPU     12.44s WALL (   20658 calls)
     cegterg:over :      2.34s CPU      2.40s WALL (   15094 calls)
     cegterg:upda :      0.76s CPU      0.78s WALL (   15094 calls)
     cegterg:last :      1.10s CPU      1.12s WALL (   10856 calls)
     h_psi        :    195.71s CPU    199.80s WALL (   21086 calls)
     s_psi        :      0.84s CPU      0.86s WALL (   21086 calls)
     g_psi        :      0.17s CPU      0.17s WALL (   15094 calls)

     Called by h_psi:
     h_psi:calbec :      2.73s CPU      2.79s WALL (   21086 calls)
     vloc_psi     :    191.22s CPU    195.20s WALL (   21086 calls)
     add_vuspsi   :      1.29s CPU      1.32s WALL (   21086 calls)

     General routines
     calbec       :      3.51s CPU      3.59s WALL (   28790 calls)
     fft          :      0.51s CPU      0.53s WALL (     205 calls)
     ffts         :      0.02s CPU      0.10s WALL (      27 calls)
     fftw         :    216.62s CPU    221.22s WALL (  718264 calls)
     interpolate  :      0.06s CPU      0.13s WALL (      14 calls)
 
     Parallel routines
     fft_scatt_xy :     18.06s CPU     18.31s WALL (  718496 calls)
     fft_scatt_yz :     72.08s CPU     73.59s WALL (  718496 calls)

     PAW routines
     PAW_pot      :      0.73s CPU      0.74s WALL (      14 calls)
     PAW_symme    :      0.01s CPU      0.01s WALL (      27 calls)
 
     PWSCF        :   4m29.76s CPU   4m38.50s WALL

 
   This run was terminated on:  16: 2:45  18May2022            

=------------------------------------------------------------------------------=
   JOB DONE.
=------------------------------------------------------------------------------=
