MPI startup(): Warning: I_MPI_PMI_LIBRARY will be ignored since the hydra process manager was found
MPI startup(): Warning: I_MPI_PMI_LIBRARY will be ignored since the hydra process manager was found
MPI startup(): Warning: I_MPI_PMI_LIBRARY will be ignored since the hydra process manager was found
MPI startup(): Warning: I_MPI_PMI_LIBRARY will be ignored since the hydra process manager was found
MPI startup(): Warning: I_MPI_PMI_LIBRARY will be ignored since the hydra process manager was found
MPI startup(): Warning: I_MPI_PMI_LIBRARY will be ignored since the hydra process manager was found
MPI startup(): Warning: I_MPI_PMI_LIBRARY will be ignored since the hydra process manager was found
MPI startup(): Warning: I_MPI_PMI_LIBRARY will be ignored since the hydra process manager was found
MPI startup(): Warning: I_MPI_PMI_LIBRARY will be ignored since the hydra process manager was found
MPI startup(): Warning: I_MPI_PMI_LIBRARY will be ignored since the hydra process manager was found
MPI startup(): Warning: I_MPI_PMI_LIBRARY will be ignored since the hydra process manager was found
MPI startup(): Warning: I_MPI_PMI_LIBRARY will be ignored since the hydra process manager was found
MPI startup(): Warning: I_MPI_PMI_LIBRARY will be ignored since the hydra process manager was found
MPI startup(): Warning: I_MPI_PMI_LIBRARY will be ignored since the hydra process manager was found
MPI startup(): Warning: I_MPI_PMI_LIBRARY will be ignored since the hydra process manager was found
MPI startup(): Warning: I_MPI_PMI_LIBRARY will be ignored since the hydra process manager was found
MPI startup(): Warning: I_MPI_PMI_LIBRARY will be ignored since the hydra process manager was found
MPI startup(): Warning: I_MPI_PMI_LIBRARY will be ignored since the hydra process manager was found
MPI startup(): Warning: I_MPI_PMI_LIBRARY will be ignored since the hydra process manager was found
MPI startup(): Warning: I_MPI_PMI_LIBRARY will be ignored since the hydra process manager was found
MPI startup(): Warning: I_MPI_PMI_LIBRARY will be ignored since the hydra process manager was found
MPI startup(): Warning: I_MPI_PMI_LIBRARY will be ignored since the hydra process manager was found
MPI startup(): Warning: I_MPI_PMI_LIBRARY will be ignored since the hydra process manager was found
MPI startup(): Warning: I_MPI_PMI_LIBRARY will be ignored since the hydra process manager was found

     Program PWSCF v.6.7MaX starts on  1Aug2021 at 12:42:19 

     This program is part of the open-source Quantum ESPRESSO suite
     for quantum simulation of materials; please cite
         "P. Giannozzi et al., J. Phys.:Condens. Matter 21 395502 (2009);
         "P. Giannozzi et al., J. Phys.:Condens. Matter 29 465901 (2017);
          URL http://www.quantum-espresso.org", 
     in publications or presentations arising from this work. More details at
     http://www.quantum-espresso.org/quote

     Parallel version (MPI), running on    24 processors

     MPI processes distributed on     1 nodes
     R & G space division:  proc/nbgrp/npool/nimage =      24
     Waiting for input...
     Reading input from standard input

     Current dimensions of program PWSCF are:
     Max number of different atomic species (ntypx) = 10
     Max number of k-points (npk) =  40000
     Max angular momentum in pseudopotentials (lmaxx) =  3
     file Cr.rel-pbe-spn-kjpaw_psl.1.0.0.UPF: wavefunction(s)  3S 3P 3P 3D 3D renormalized
     file Si.rel-pbe-n-kjpaw_psl.1.0.0.UPF: wavefunction(s)  3S 3P 3P renormalized

     Subspace diagonalization in iterative solution of the eigenvalue problem:
     a serial algorithm will be used

     Message from routine setup:
     using ibrav=0 with symmetry is DISCOURAGED, use correct ibrav instead
 
     Parallelization info
     --------------------
     sticks:   dense  smooth     PW     G-vecs:    dense   smooth      PW
     Min         228      91     25                12702     3210     487
     Max         229      93     26                12704     3214     492
     Sum        5473    2201    621               304867    77053   11753
 


     bravais-lattice index     =            0
     lattice parameter (alat)  =       8.7475  a.u.
     unit-cell volume          =     669.3575 (a.u.)^3
     number of atoms/cell      =            8
     number of atomic types    =            2
     number of electrons       =        72.00
     number of Kohn-Sham states=           86
     kinetic-energy cutoff     =      90.0000  Ry
     charge density cutoff     =     900.0000  Ry
     scf convergence threshold =      1.0E-06
     mixing beta               =       0.7000
     number of iterations used =            8  plain     mixing
     Exchange-correlation= SLA  PW   PBX  PBC
                           (   1   4   3   4   0   0   0)
     Non magnetic calculation with spin-orbit


     celldm(1)=   8.747542  celldm(2)=   0.000000  celldm(3)=   0.000000
     celldm(4)=   0.000000  celldm(5)=   0.000000  celldm(6)=   0.000000

     crystal axes: (cart. coord. in units of alat)
               a(1) = (   1.000000   0.000000   0.000000 )  
               a(2) = (   0.000000   1.000000   0.000000 )  
               a(3) = (   0.000000   0.000000   1.000000 )  

     reciprocal axes: (cart. coord. in units 2 pi/alat)
               b(1) = (  1.000000  0.000000  0.000000 )  
               b(2) = (  0.000000  1.000000  0.000000 )  
               b(3) = (  0.000000  0.000000  1.000000 )  


     PseudoPot. # 1 for Cr read from file:
     ../../../../pseudo/Cr.rel-pbe-spn-kjpaw_psl.1.0.0.UPF
     MD5 check sum: 1e24e2b5251376a8b945118fca0c7981
     Pseudo is Projector augmented-wave + core cor, Zval = 14.0
     Generated using &quot;atomic&quot; code by A. Dal Corso  v.6.3
     Shape of augmentation charge: PSQ
     Using radial grid of 1183 points, 10 beta functions with: 
                l(1) =   0
                l(2) =   0
                l(3) =   1
                l(4) =   1
                l(5) =   1
                l(6) =   1
                l(7) =   2
                l(8) =   2
                l(9) =   2
               l(10) =   2
     Q(r) pseudized with 0 coefficients 


     PseudoPot. # 2 for Si read from file:
     ../../../../pseudo/Si.rel-pbe-n-kjpaw_psl.1.0.0.UPF
     MD5 check sum: d74f6caf6830ea4c2076867160cab1b0
     Pseudo is Projector augmented-wave + core cor, Zval =  4.0
     Generated using &quot;atomic&quot; code by A. Dal Corso  v.6.3
     Shape of augmentation charge: PSQ
     Using radial grid of 1141 points, 10 beta functions with: 
                l(1) =   0
                l(2) =   0
                l(3) =   1
                l(4) =   1
                l(5) =   1
                l(6) =   1
                l(7) =   2
                l(8) =   2
                l(9) =   2
               l(10) =   2
     Q(r) pseudized with 0 coefficients 


     atomic species   valence    mass     pseudopotential
        Cr            14.00    51.99600     Cr( 1.00)
        Si             4.00    28.08500     Si( 1.00)

     12 Sym. Ops. (no inversion) found ( 9 have fractional translation)


                                    s                        frac. trans.

      isym =  1     identity                                     

 cryst.   s( 1) = (     1          0          0      )
                  (     0          1          0      )
                  (     0          0          1      )

 cart.    s( 1) = (  1.0000000  0.0000000  0.0000000 )
                  (  0.0000000  1.0000000  0.0000000 )
                  (  0.0000000  0.0000000  1.0000000 )


      isym =  2     180 deg rotation - cart. axis [0,0,1]        

 cryst.   s( 2) = (    -1          0          0      )    f =(  0.5000000 )
                  (     0         -1          0      )       (  0.0000000 )
                  (     0          0          1      )       ( -0.5000000 )

 cart.    s( 2) = ( -1.0000000  0.0000000  0.0000000 )    f =(  0.5000000 )
                  (  0.0000000 -1.0000000  0.0000000 )       (  0.0000000 )
                  (  0.0000000  0.0000000  1.0000000 )       ( -0.5000000 )


      isym =  3     180 deg rotation - cart. axis [0,1,0]        

 cryst.   s( 3) = (    -1          0          0      )    f =(  0.0000000 )
                  (     0          1          0      )       ( -0.5000000 )
                  (     0          0         -1      )       (  0.5000000 )

 cart.    s( 3) = ( -1.0000000  0.0000000  0.0000000 )    f =(  0.0000000 )
                  (  0.0000000  1.0000000  0.0000000 )       ( -0.5000000 )
                  (  0.0000000  0.0000000 -1.0000000 )       (  0.5000000 )


      isym =  4     180 deg rotation - cart. axis [1,0,0]        

 cryst.   s( 4) = (     1          0          0      )    f =(  0.5000000 )
                  (     0         -1          0      )       (  0.5000000 )
                  (     0          0         -1      )       (  0.0000000 )

 cart.    s( 4) = (  1.0000000  0.0000000  0.0000000 )    f =(  0.5000000 )
                  (  0.0000000 -1.0000000  0.0000000 )       (  0.5000000 )
                  (  0.0000000  0.0000000 -1.0000000 )       (  0.0000000 )


      isym =  5     120 deg rotation - cart. axis [-1,-1,-1]     

 cryst.   s( 5) = (     0          0          1      )
                  (     1          0          0      )
                  (     0          1          0      )

 cart.    s( 5) = (  0.0000000  1.0000000  0.0000000 )
                  (  0.0000000  0.0000000  1.0000000 )
                  (  1.0000000  0.0000000  0.0000000 )


      isym =  6     120 deg rotation - cart. axis [-1,1,1]       

 cryst.   s( 6) = (     0          0         -1      )    f =(  0.0000000 )
                  (    -1          0          0      )       ( -0.5000000 )
                  (     0          1          0      )       (  0.5000000 )

 cart.    s( 6) = (  0.0000000 -1.0000000  0.0000000 )    f =(  0.0000000 )
                  (  0.0000000  0.0000000  1.0000000 )       ( -0.5000000 )
                  ( -1.0000000  0.0000000  0.0000000 )       (  0.5000000 )


      isym =  7     120 deg rotation - cart. axis [1,1,-1]       

 cryst.   s( 7) = (     0          0         -1      )    f =(  0.5000000 )
                  (     1          0          0      )       (  0.5000000 )
                  (     0         -1          0      )       (  0.0000000 )

 cart.    s( 7) = (  0.0000000  1.0000000  0.0000000 )    f =(  0.5000000 )
                  (  0.0000000  0.0000000 -1.0000000 )       (  0.5000000 )
                  ( -1.0000000  0.0000000  0.0000000 )       (  0.0000000 )


      isym =  8     120 deg rotation - cart. axis [1,-1,1]       

 cryst.   s( 8) = (     0          0          1      )    f =(  0.5000000 )
                  (    -1          0          0      )       (  0.0000000 )
                  (     0         -1          0      )       ( -0.5000000 )

 cart.    s( 8) = (  0.0000000 -1.0000000  0.0000000 )    f =(  0.5000000 )
                  (  0.0000000  0.0000000 -1.0000000 )       (  0.0000000 )
                  (  1.0000000  0.0000000  0.0000000 )       ( -0.5000000 )


      isym =  9     120 deg rotation - cart. axis [1,1,1]        

 cryst.   s( 9) = (     0          1          0      )
                  (     0          0          1      )
                  (     1          0          0      )

 cart.    s( 9) = (  0.0000000  0.0000000  1.0000000 )
                  (  1.0000000  0.0000000  0.0000000 )
                  (  0.0000000  1.0000000  0.0000000 )


      isym = 10     120 deg rotation - cart. axis [-1,1,-1]      

 cryst.   s(10) = (     0         -1          0      )    f =(  0.5000000 )
                  (     0          0         -1      )       (  0.5000000 )
                  (     1          0          0      )       (  0.0000000 )

 cart.    s(10) = (  0.0000000  0.0000000  1.0000000 )    f =(  0.5000000 )
                  ( -1.0000000  0.0000000  0.0000000 )       (  0.5000000 )
                  (  0.0000000 -1.0000000  0.0000000 )       (  0.0000000 )


      isym = 11     120 deg rotation - cart. axis [1,-1,-1]      

 cryst.   s(11) = (     0         -1          0      )    f =(  0.5000000 )
                  (     0          0          1      )       (  0.0000000 )
                  (    -1          0          0      )       ( -0.5000000 )

 cart.    s(11) = (  0.0000000  0.0000000 -1.0000000 )    f =(  0.5000000 )
                  ( -1.0000000  0.0000000  0.0000000 )       (  0.0000000 )
                  (  0.0000000  1.0000000  0.0000000 )       ( -0.5000000 )


      isym = 12     120 deg rotation - cart. axis [-1,-1,1]      

 cryst.   s(12) = (     0          1          0      )    f =(  0.0000000 )
                  (     0          0         -1      )       ( -0.5000000 )
                  (    -1          0          0      )       (  0.5000000 )

 cart.    s(12) = (  0.0000000  0.0000000 -1.0000000 )    f =(  0.0000000 )
                  (  1.0000000  0.0000000  0.0000000 )       ( -0.5000000 )
                  (  0.0000000 -1.0000000  0.0000000 )       (  0.5000000 )


   Cartesian axes

     site n.     atom                  positions (alat units)
         1           Cr  tau(   1) = (   0.8640000   0.3640000   0.1360000  )
         2           Cr  tau(   2) = (   0.3640000   0.1360000   0.8640000  )
         3           Cr  tau(   3) = (   0.1360000   0.8640000   0.3640000  )
         4           Cr  tau(   4) = (   0.6360000   0.6360000   0.6360000  )
         5           Si  tau(   5) = (   0.1540000   0.6540000   0.8460000  )
         6           Si  tau(   6) = (   0.6540000   0.8460000   0.1540000  )
         7           Si  tau(   7) = (   0.8460000   0.1540000   0.6540000  )
         8           Si  tau(   8) = (   0.3460000   0.3460000   0.3460000  )

   Crystallographic axes

     site n.     atom                  positions (cryst. coord.)
         1           Cr  tau(   1) = (  0.8640000  0.3640000  0.1360000  )
         2           Cr  tau(   2) = (  0.3640000  0.1360000  0.8640000  )
         3           Cr  tau(   3) = (  0.1360000  0.8640000  0.3640000  )
         4           Cr  tau(   4) = (  0.6360000  0.6360000  0.6360000  )
         5           Si  tau(   5) = (  0.1540000  0.6540000  0.8460000  )
         6           Si  tau(   6) = (  0.6540000  0.8460000  0.1540000  )
         7           Si  tau(   7) = (  0.8460000  0.1540000  0.6540000  )
         8           Si  tau(   8) = (  0.3460000  0.3460000  0.3460000  )

     number of k points=    24  Methfessel-Paxton smearing, width (Ry)=  0.0100
                       cart. coord. in units 2pi/alat
        k(    1) = (   0.0000000   0.0000000   0.0000000), wk =   0.0046296
        k(    2) = (   0.0000000   0.0000000   0.1666667), wk =   0.0277778
        k(    3) = (   0.0000000   0.0000000   0.3333333), wk =   0.0277778
        k(    4) = (   0.0000000   0.0000000  -0.5000000), wk =   0.0138889
        k(    5) = (   0.0000000   0.1666667   0.1666667), wk =   0.0555556
        k(    6) = (   0.0000000   0.1666667   0.3333333), wk =   0.0555556
        k(    7) = (   0.0000000   0.1666667  -0.5000000), wk =   0.0277778
        k(    8) = (   0.0000000   0.3333333   0.3333333), wk =   0.0555556
        k(    9) = (   0.0000000   0.3333333  -0.5000000), wk =   0.0277778
        k(   10) = (   0.0000000  -0.5000000  -0.5000000), wk =   0.0138889
        k(   11) = (   0.1666667   0.1666667   0.1666667), wk =   0.0370370
        k(   12) = (   0.1666667   0.1666667   0.3333333), wk =   0.1111111
        k(   13) = (   0.1666667   0.1666667  -0.5000000), wk =   0.0555556
        k(   14) = (   0.1666667   0.3333333   0.3333333), wk =   0.1111111
        k(   15) = (   0.1666667   0.3333333  -0.5000000), wk =   0.0555556
        k(   16) = (   0.1666667  -0.5000000  -0.5000000), wk =   0.0277778
        k(   17) = (   0.3333333   0.3333333   0.3333333), wk =   0.0370370
        k(   18) = (   0.3333333   0.3333333  -0.5000000), wk =   0.0555556
        k(   19) = (   0.3333333  -0.5000000  -0.5000000), wk =   0.0277778
        k(   20) = (  -0.5000000  -0.5000000  -0.5000000), wk =   0.0046296
        k(   21) = (   0.0000000   0.3333333   0.1666667), wk =   0.0555556
        k(   22) = (   0.0000000  -0.5000000   0.1666667), wk =   0.0277778
        k(   23) = (   0.0000000  -0.5000000   0.3333333), wk =   0.0277778
        k(   24) = (  -0.1666667  -0.5000000   0.3333333), wk =   0.0555556

                       cryst. coord.
        k(    1) = (   0.0000000   0.0000000   0.0000000), wk =   0.0046296
        k(    2) = (   0.0000000   0.0000000   0.1666667), wk =   0.0277778
        k(    3) = (   0.0000000   0.0000000   0.3333333), wk =   0.0277778
        k(    4) = (   0.0000000   0.0000000  -0.5000000), wk =   0.0138889
        k(    5) = (   0.0000000   0.1666667   0.1666667), wk =   0.0555556
        k(    6) = (   0.0000000   0.1666667   0.3333333), wk =   0.0555556
        k(    7) = (   0.0000000   0.1666667  -0.5000000), wk =   0.0277778
        k(    8) = (   0.0000000   0.3333333   0.3333333), wk =   0.0555556
        k(    9) = (   0.0000000   0.3333333  -0.5000000), wk =   0.0277778
        k(   10) = (   0.0000000  -0.5000000  -0.5000000), wk =   0.0138889
        k(   11) = (   0.1666667   0.1666667   0.1666667), wk =   0.0370370
        k(   12) = (   0.1666667   0.1666667   0.3333333), wk =   0.1111111
        k(   13) = (   0.1666667   0.1666667  -0.5000000), wk =   0.0555556
        k(   14) = (   0.1666667   0.3333333   0.3333333), wk =   0.1111111
        k(   15) = (   0.1666667   0.3333333  -0.5000000), wk =   0.0555556
        k(   16) = (   0.1666667  -0.5000000  -0.5000000), wk =   0.0277778
        k(   17) = (   0.3333333   0.3333333   0.3333333), wk =   0.0370370
        k(   18) = (   0.3333333   0.3333333  -0.5000000), wk =   0.0555556
        k(   19) = (   0.3333333  -0.5000000  -0.5000000), wk =   0.0277778
        k(   20) = (  -0.5000000  -0.5000000  -0.5000000), wk =   0.0046296
        k(   21) = (   0.0000000   0.3333333   0.1666667), wk =   0.0555556
        k(   22) = (   0.0000000  -0.5000000   0.1666667), wk =   0.0277778
        k(   23) = (   0.0000000  -0.5000000   0.3333333), wk =   0.0277778
        k(   24) = (  -0.1666667  -0.5000000   0.3333333), wk =   0.0555556

     Dense  grid:   304867 G-vectors     FFT dimensions: (  90,  90,  90)

     Smooth grid:    77053 G-vectors     FFT dimensions: (  54,  54,  54)

     Dynamical RAM for                 wfc:       1.06 MB

     Dynamical RAM for     wfc (w. buffer):      26.38 MB

     Dynamical RAM for           str. fact:       0.39 MB

     Dynamical RAM for           local pot:       0.00 MB

     Dynamical RAM for          nlocal pot:       1.67 MB

     Dynamical RAM for                qrad:      12.61 MB

     Dynamical RAM for          rho,v,vnew:       5.29 MB

     Dynamical RAM for               rhoin:       1.76 MB

     Dynamical RAM for            rho*nmix:      12.41 MB

     Dynamical RAM for           G-vectors:       0.75 MB

     Dynamical RAM for          h,s,v(r/c):       1.35 MB

     Dynamical RAM for          <psi|beta>:       0.71 MB

     Dynamical RAM for                 psi:       2.11 MB

     Dynamical RAM for                hpsi:       2.11 MB

     Dynamical RAM for                spsi:       2.11 MB

     Dynamical RAM for      wfcinit/wfcrot:       2.35 MB

     Dynamical RAM for           addusdens:     119.02 MB

     Dynamical RAM for          addusforce:     120.34 MB

     Dynamical RAM for         addusstress:     121.74 MB

     Estimated static dynamical RAM per process >      63.81 MB

     Estimated max dynamical RAM per process >     185.55 MB

     Estimated total dynamical RAM >       4.35 GB

     Initial potential from superposition of free atoms

     starting charge   71.99469, renormalised to   72.00000
     Starting wfcs are  112 randomized atomic wfcs
     Checking if some PAW data can be deallocated... 
       PAW data deallocated on   12 nodes for type:  1
       PAW data deallocated on   12 nodes for type:  2

     total cpu time spent up to now is        7.5 secs

     Self-consistent Calculation

     iteration #  1     ecut=    90.00 Ry     beta= 0.70
     Davidson diagonalization with overlap
     ethr =  1.00E-02,  avg # of iterations =  2.0

     Threshold (ethr) on eigenvalues was too large:
     Diagonalizing with lowered threshold

     Davidson diagonalization with overlap
     ethr =  2.09E-04,  avg # of iterations =  4.5

     total cpu time spent up to now is       31.5 secs

     total energy              =   -1180.30889290 Ry
     estimated scf accuracy    <       0.18813779 Ry

     iteration #  2     ecut=    90.00 Ry     beta= 0.70
     Davidson diagonalization with overlap
     ethr =  2.61E-04,  avg # of iterations =  3.1

     total cpu time spent up to now is       43.9 secs

     total energy              =   -1180.31627288 Ry
     estimated scf accuracy    <       0.07465445 Ry

     iteration #  3     ecut=    90.00 Ry     beta= 0.70
     Davidson diagonalization with overlap
     ethr =  1.04E-04,  avg # of iterations =  5.0

     total cpu time spent up to now is       58.9 secs

     total energy              =   -1180.32566373 Ry
     estimated scf accuracy    <       0.15709095 Ry

     iteration #  4     ecut=    90.00 Ry     beta= 0.70
     Davidson diagonalization with overlap
     ethr =  1.04E-04,  avg # of iterations =  4.1

     total cpu time spent up to now is       71.3 secs

     total energy              =   -1180.34904923 Ry
     estimated scf accuracy    <       0.00051457 Ry

     iteration #  5     ecut=    90.00 Ry     beta= 0.70
     Davidson diagonalization with overlap
     ethr =  7.15E-07,  avg # of iterations =  7.2

     total cpu time spent up to now is       88.3 secs

     total energy              =   -1180.34960916 Ry
     estimated scf accuracy    <       0.00018480 Ry

     iteration #  6     ecut=    90.00 Ry     beta= 0.70
     Davidson diagonalization with overlap
     ethr =  2.57E-07,  avg # of iterations =  3.3

     total cpu time spent up to now is       99.4 secs

     End of self-consistent calculation

          k = 0.0000 0.0000 0.0000 (  9771 PWs)   bands (ev):

   -56.5089 -56.5089 -56.4742 -56.4742 -56.4742 -56.4742 -56.4742 -56.4742
   -28.5743 -28.5743 -28.5669 -28.5669 -28.5669 -28.5669 -28.4776 -28.4776
   -27.6084 -27.6084 -27.6084 -27.6084 -27.5319 -27.5319 -27.5319 -27.5319
   -27.5281 -27.5281 -27.4458 -27.4458 -27.4450 -27.4450 -27.4450 -27.4450
     2.6980   2.6980   7.4565   7.4565   7.4565   7.4565   7.4657   7.4657
    10.5375  10.5375  10.5455  10.5455  10.5455  10.5455  11.9119  11.9119
    11.9119  11.9119  11.9230  11.9230  12.6045  12.6045  12.7737  12.7737
    12.7737  12.7737  13.1473  13.1473  13.1473  13.1473  13.1484  13.1484
    13.6745  13.6745  13.6745  13.6745  13.6783  13.6783  15.5560  15.5560
    15.5873  15.5873  15.5873  15.5873  15.7719  15.7719  15.7719  15.7719
    16.6693  16.6693  16.6996  16.6996  16.6996  16.6996

     occupation numbers 
     1.0000   1.0000   1.0000   1.0000   1.0000   1.0000   1.0000   1.0000
     1.0000   1.0000   1.0000   1.0000   1.0000   1.0000   1.0000   1.0000
     1.0000   1.0000   1.0000   1.0000   1.0000   1.0000   1.0000   1.0000
     1.0000   1.0000   1.0000   1.0000   1.0000   1.0000   1.0000   1.0000
     1.0000   1.0000   1.0000   1.0000   1.0000   1.0000   1.0000   1.0000
     1.0000   1.0000   1.0000   1.0000   1.0000   1.0000   1.0000   1.0000
     1.0000   1.0000   1.0000   1.0000   1.0000   1.0000   1.0000   1.0000
     1.0000   1.0000   1.0000   1.0000   1.0000   1.0000   1.0000   1.0000
     1.0000   1.0000   1.0000   1.0000   1.0000   1.0000  -0.0000  -0.0000
    -0.0000  -0.0000  -0.0000  -0.0000  -0.0000  -0.0000  -0.0000  -0.0000
    -0.0000  -0.0000  -0.0000  -0.0000  -0.0000  -0.0000

          k = 0.0000 0.0000 0.1667 (  9663 PWs)   bands (ev):

   -56.5072 -56.5072 -56.4799 -56.4799 -56.4737 -56.4737 -56.4709 -56.4709
   -28.5820 -28.5752 -28.5712 -28.5705 -28.5564 -28.5532 -28.4826 -28.4825
   -27.6251 -27.6170 -27.5954 -27.5877 -27.5447 -27.5387 -27.5354 -27.5256
   -27.5228 -27.5111 -27.4559 -27.4537 -27.4508 -27.4438 -27.4428 -27.4377
     2.8900   2.8900   6.5395   6.5420   7.5628   7.5647   8.1196   8.1289
     9.9486   9.9528  10.6631  10.6657  11.0719  11.0748  11.2879  11.2886
    11.5007  11.5055  12.4508  12.4611  12.7405  12.7628  12.8043  12.8109
    13.0133  13.0166  13.1114  13.1139  13.2008  13.2028  13.2316  13.2319
    13.5343  13.5443  13.6346  13.6371  13.9661  13.9666  15.2978  15.3187
    15.4218  15.4292  15.6986  15.7081  15.7538  15.7722  15.7962  15.8219
    16.4111  16.4266  16.5992  16.6066  16.9939  17.0144

     occupation numbers 
     1.0000   1.0000   1.0000   1.0000   1.0000   1.0000   1.0000   1.0000
     1.0000   1.0000   1.0000   1.0000   1.0000   1.0000   1.0000   1.0000
     1.0000   1.0000   1.0000   1.0000   1.0000   1.0000   1.0000   1.0000
     1.0000   1.0000   1.0000   1.0000   1.0000   1.0000   1.0000   1.0000
     1.0000   1.0000   1.0000   1.0000   1.0000   1.0000   1.0000   1.0000
     1.0000   1.0000   1.0000   1.0000   1.0000   1.0000   1.0000   1.0000
     1.0000   1.0000   1.0000   1.0000   1.0000   1.0000   1.0000   1.0000
     1.0000   1.0000   1.0000   1.0000   1.0000   1.0000   1.0000   1.0000
     1.0000   1.0000   1.0000   1.0000   1.0000   1.0000  -0.0008  -0.0004
    -0.0000  -0.0000  -0.0000  -0.0000  -0.0000  -0.0000  -0.0000  -0.0000
    -0.0000  -0.0000  -0.0000  -0.0000  -0.0000  -0.0000

          k = 0.0000 0.0000 0.3333 (  9606 PWs)   bands (ev):

   -56.5022 -56.5022 -56.4872 -56.4872 -56.4722 -56.4722 -56.4699 -56.4699
   -28.5846 -28.5780 -28.5768 -28.5731 -28.5375 -28.5350 -28.4966 -28.4960
   -27.6329 -27.6250 -27.5771 -27.5726 -27.5573 -27.5373 -27.5321 -27.5236
   -27.5214 -27.4917 -27.4731 -27.4603 -27.4574 -27.4464 -27.4420 -27.4359
     3.4504   3.4505   5.4195   5.4202   7.8601   7.8641   8.5101   8.5197
     9.6516   9.6532  10.6591  10.6614  10.7711  10.7835  11.0449  11.0479
    11.8643  11.8663  12.1357  12.1515  12.8398  12.8560  12.9348  12.9443
    13.1180  13.1239  13.1736  13.1787  13.2615  13.2643  13.3964  13.3988
    13.4544  13.4564  13.9188  13.9226  14.1202  14.1269  14.8931  14.9273
    15.3629  15.3714  15.5414  15.5597  15.7496  15.7779  15.8587  15.8828
    16.1989  16.2147  16.3746  16.3882  17.3089  17.3249

     occupation numbers 
     1.0000   1.0000   1.0000   1.0000   1.0000   1.0000   1.0000   1.0000
     1.0000   1.0000   1.0000   1.0000   1.0000   1.0000   1.0000   1.0000
     1.0000   1.0000   1.0000   1.0000   1.0000   1.0000   1.0000   1.0000
     1.0000   1.0000   1.0000   1.0000   1.0000   1.0000   1.0000   1.0000
     1.0000   1.0000   1.0000   1.0000   1.0000   1.0000   1.0000   1.0000
     1.0000   1.0000   1.0000   1.0000   1.0000   1.0000   1.0000   1.0000
     1.0000   1.0000   1.0000   1.0000   1.0000   1.0000   1.0000   1.0000
     1.0000   1.0000   1.0000   1.0000   1.0000   1.0000   1.0000   1.0000
     1.0000   1.0000   1.0000   1.0000   1.0000   1.0000   0.8010   0.6129
    -0.0001  -0.0000  -0.0000  -0.0000  -0.0000  -0.0000  -0.0000  -0.0000
    -0.0000  -0.0000  -0.0000  -0.0000  -0.0000  -0.0000

          k = 0.0000 0.0000-0.5000 (  9658 PWs)   bands (ev):

   -56.4951 -56.4951 -56.4951 -56.4951 -56.4707 -56.4707 -56.4707 -56.4707
   -28.5822 -28.5822 -28.5766 -28.5766 -28.5162 -28.5162 -28.5148 -28.5148
   -27.6317 -27.6317 -27.5671 -27.5671 -27.5518 -27.5518 -27.5286 -27.5286
   -27.4982 -27.4982 -27.4741 -27.4741 -27.4522 -27.4522 -27.4388 -27.4388
     4.3279   4.3279   4.3281   4.3281   8.2828   8.2828   8.2892   8.2892
    10.0168  10.0168  10.0207  10.0207  10.8980  10.8980  10.9092  10.9092
    12.2489  12.2489  12.2555  12.2555  12.6870  12.6870  12.6995  12.6995
    13.1449  13.1449  13.1453  13.1453  13.2407  13.2407  13.2443  13.2443
    13.7853  13.7853  13.7884  13.7884  14.5686  14.5686  14.5971  14.5971
    15.4067  15.4067  15.4245  15.4245  15.8109  15.8110  15.8407  15.8407
    16.1701  16.1701  16.1838  16.1839  17.5481  17.5512

     occupation numbers 
     1.0000   1.0000   1.0000   1.0000   1.0000   1.0000   1.0000   1.0000
     1.0000   1.0000   1.0000   1.0000   1.0000   1.0000   1.0000   1.0000
     1.0000   1.0000   1.0000   1.0000   1.0000   1.0000   1.0000   1.0000
     1.0000   1.0000   1.0000   1.0000   1.0000   1.0000   1.0000   1.0000
     1.0000   1.0000   1.0000   1.0000   1.0000   1.0000   1.0000   1.0000
     1.0000   1.0000   1.0000   1.0000   1.0000   1.0000   1.0000   1.0000
     1.0000   1.0000   1.0000   1.0000   1.0000   1.0000   1.0000   1.0000
     1.0000   1.0000   1.0000   1.0000   1.0000   1.0000   1.0000   1.0000
     1.0000   1.0000   1.0000   1.0000   1.0003   1.0003   1.0009   1.0009
    -0.0000  -0.0000  -0.0000  -0.0000  -0.0000  -0.0000  -0.0000  -0.0000
    -0.0000  -0.0000  -0.0000  -0.0000  -0.0000  -0.0000

          k = 0.0000 0.1667 0.1667 (  9657 PWs)   bands (ev):

   -56.5055 -56.5055 -56.4817 -56.4817 -56.4743 -56.4743 -56.4701 -56.4701
   -28.5838 -28.5780 -28.5689 -28.5687 -28.5526 -28.5488 -28.4874 -28.4872
   -27.6259 -27.6218 -27.5862 -27.5822 -27.5459 -27.5426 -27.5387 -27.5311
   -27.5147 -27.5018 -27.4647 -27.4610 -27.4537 -27.4448 -27.4381 -27.4340
     3.0796   3.0797   6.3967   6.4011   7.2073   7.2117   8.4070   8.4123
     9.8329   9.8363  10.5098  10.5122  10.7878  10.7891  11.3580  11.3610
    11.7804  11.7808  12.4132  12.4189  12.5892  12.5969  12.9966  12.9978
    13.0930  13.1012  13.1753  13.1761  13.2468  13.2534  13.3391  13.3440
    13.4696  13.4775  13.7351  13.7492  14.0776  14.0850  15.2558  15.2776
    15.3054  15.3248  15.5406  15.5527  15.7009  15.7219  15.8185  15.8429
    16.2813  16.2983  16.6108  16.6205  17.0360  17.0708

     occupation numbers 
     1.0000   1.0000   1.0000   1.0000   1.0000   1.0000   1.0000   1.0000
     1.0000   1.0000   1.0000   1.0000   1.0000   1.0000   1.0000   1.0000
     1.0000   1.0000   1.0000   1.0000   1.0000   1.0000   1.0000   1.0000
     1.0000   1.0000   1.0000   1.0000   1.0000   1.0000   1.0000   1.0000
     1.0000   1.0000   1.0000   1.0000   1.0000   1.0000   1.0000   1.0000
     1.0000   1.0000   1.0000   1.0000   1.0000   1.0000   1.0000   1.0000
     1.0000   1.0000   1.0000   1.0000   1.0000   1.0000   1.0000   1.0000
     1.0000   1.0000   1.0000   1.0000   1.0000   1.0000   1.0000   1.0000
     1.0000   1.0000   1.0000   1.0000   1.0000   1.0000  -0.0029  -0.0015
    -0.0006  -0.0003  -0.0000  -0.0000  -0.0000  -0.0000  -0.0000  -0.0000
    -0.0000  -0.0000  -0.0000  -0.0000  -0.0000  -0.0000

          k = 0.0000 0.1667 0.3333 (  9647 PWs)   bands (ev):

   -56.5009 -56.5009 -56.4873 -56.4873 -56.4733 -56.4733 -56.4701 -56.4701
   -28.5837 -28.5786 -28.5726 -28.5704 -28.5381 -28.5356 -28.5005 -28.5001
   -27.6291 -27.6238 -27.5752 -27.5697 -27.5559 -27.5424 -27.5358 -27.5281
   -27.5160 -27.4879 -27.4820 -27.4663 -27.4595 -27.4479 -27.4346 -27.4308
     3.6321   3.6323   5.5371   5.5388   7.3627   7.3653   8.4329   8.4361
     9.7330   9.7362  10.1894  10.1936  10.9883  10.9913  11.3854  11.3950
    11.7534  11.7577  12.1903  12.1991  12.5959  12.6035  12.8782  12.8870
    13.1150  13.1245  13.2547  13.2605  13.3818  13.3831  13.5288  13.5388
    13.5914  13.6045  13.9914  14.0020  14.2461  14.2586  14.9129  14.9439
    15.2292  15.2479  15.3500  15.3600  15.6591  15.6841  15.8103  15.8406
    16.1558  16.1653  16.4433  16.4563  17.2396  17.2726

     occupation numbers 
     1.0000   1.0000   1.0000   1.0000   1.0000   1.0000   1.0000   1.0000
     1.0000   1.0000   1.0000   1.0000   1.0000   1.0000   1.0000   1.0000
     1.0000   1.0000   1.0000   1.0000   1.0000   1.0000   1.0000   1.0000
     1.0000   1.0000   1.0000   1.0000   1.0000   1.0000   1.0000   1.0000
     1.0000   1.0000   1.0000   1.0000   1.0000   1.0000   1.0000   1.0000
     1.0000   1.0000   1.0000   1.0000   1.0000   1.0000   1.0000   1.0000
     1.0000   1.0000   1.0000   1.0000   1.0000   1.0000   1.0000   1.0000
     1.0000   1.0000   1.0000   1.0000   1.0000   1.0000   1.0000   1.0000
     1.0000   1.0000   1.0000   1.0000   1.0000   1.0000   0.6972   0.5107
    -0.0060  -0.0037  -0.0001  -0.0001  -0.0000  -0.0000  -0.0000  -0.0000
    -0.0000  -0.0000  -0.0000  -0.0000  -0.0000  -0.0000

          k = 0.0000 0.1667-0.5000 (  9654 PWs)   bands (ev):

   -56.4943 -56.4943 -56.4943 -56.4943 -56.4715 -56.4715 -56.4715 -56.4715
   -28.5798 -28.5798 -28.5744 -28.5744 -28.5195 -28.5195 -28.5170 -28.5170
   -27.6275 -27.6275 -27.5671 -27.5671 -27.5525 -27.5525 -27.5281 -27.5281
   -27.5061 -27.5061 -27.4743 -27.4743 -27.4549 -27.4549 -27.4317 -27.4317
     4.4926   4.4926   4.4933   4.4933   7.8949   7.8949   7.9018   7.9018
    10.0151  10.0151  10.0190  10.0191  11.1033  11.1033  11.1175  11.1175
    12.0918  12.0918  12.0963  12.0963  12.5416  12.5416  12.5573  12.5573
    13.2786  13.2786  13.2795  13.2795  13.3939  13.3939  13.3951  13.3951
    13.8690  13.8690  13.8730  13.8730  14.6237  14.6237  14.6551  14.6551
    15.2424  15.2424  15.2571  15.2571  15.7189  15.7190  15.7487  15.7487
    16.2437  16.2437  16.2544  16.2544  17.4870  17.4902

     occupation numbers 
     1.0000   1.0000   1.0000   1.0000   1.0000   1.0000   1.0000   1.0000
     1.0000   1.0000   1.0000   1.0000   1.0000   1.0000   1.0000   1.0000
     1.0000   1.0000   1.0000   1.0000   1.0000   1.0000   1.0000   1.0000
     1.0000   1.0000   1.0000   1.0000   1.0000   1.0000   1.0000   1.0000
     1.0000   1.0000   1.0000   1.0000   1.0000   1.0000   1.0000   1.0000
     1.0000   1.0000   1.0000   1.0000   1.0000   1.0000   1.0000   1.0000
     1.0000   1.0000   1.0000   1.0000   1.0000   1.0000   1.0000   1.0000
     1.0000   1.0000   1.0000   1.0000   1.0000   1.0000   1.0000   1.0000
     1.0000   1.0000   1.0000   1.0000   1.0021   1.0021   1.0050   1.0050
    -0.0043  -0.0043  -0.0028  -0.0028  -0.0000  -0.0000  -0.0000  -0.0000
    -0.0000  -0.0000  -0.0000  -0.0000  -0.0000  -0.0000

          k = 0.0000 0.3333 0.3333 (  9619 PWs)   bands (ev):

   -56.4972 -56.4972 -56.4887 -56.4887 -56.4743 -56.4743 -56.4714 -56.4714
   -28.5798 -28.5758 -28.5688 -28.5679 -28.5358 -28.5335 -28.5113 -28.5106
   -27.6207 -27.6194 -27.5762 -27.5705 -27.5517 -27.5440 -27.5328 -27.5312
   -27.5148 -27.4959 -27.4936 -27.4821 -27.4534 -27.4395 -27.4302 -27.4270
     4.1577   4.1581   5.6392   5.6413   6.6781   6.6808   7.8196   7.8234
    10.0318  10.0345  10.3054  10.3084  10.9418  10.9435  11.2588  11.2610
    11.8956  11.9023  12.1592  12.1637  12.3110  12.3206  12.6298  12.6377
    13.1821  13.1904  13.3933  13.3983  13.5630  13.5658  13.7227  13.7280
    13.8862  13.8978  14.0969  14.1096  14.4908  14.5164  14.8516  14.8633
    14.9447  14.9650  15.0617  15.0783  15.5270  15.5502  15.6070  15.6369
    16.2366  16.2454  16.4936  16.5005  17.1508  17.1814

     occupation numbers 
     1.0000   1.0000   1.0000   1.0000   1.0000   1.0000   1.0000   1.0000
     1.0000   1.0000   1.0000   1.0000   1.0000   1.0000   1.0000   1.0000
     1.0000   1.0000   1.0000   1.0000   1.0000   1.0000   1.0000   1.0000
     1.0000   1.0000   1.0000   1.0000   1.0000   1.0000   1.0000   1.0000
     1.0000   1.0000   1.0000   1.0000   1.0000   1.0000   1.0000   1.0000
     1.0000   1.0000   1.0000   1.0000   1.0000   1.0000   1.0000   1.0000
     1.0000   1.0000   1.0000   1.0000   1.0000   1.0000   1.0000   1.0000
     1.0000   1.0000   1.0000   1.0000   1.0000   1.0000   1.0000   1.0000
     1.0000   1.0000   1.0000   1.0000   1.0000   1.0000   0.9565   0.9222
     0.5055   0.3805  -0.0025  -0.0224  -0.0000  -0.0000  -0.0000  -0.0000
    -0.0000  -0.0000  -0.0000  -0.0000  -0.0000  -0.0000

          k = 0.0000 0.3333-0.5000 (  9646 PWs)   bands (ev):

   -56.4925 -56.4925 -56.4925 -56.4925 -56.4733 -56.4733 -56.4733 -56.4733
   -28.5740 -28.5740 -28.5698 -28.5698 -28.5259 -28.5259 -28.5230 -28.5230
   -27.6154 -27.6154 -27.5785 -27.5785 -27.5441 -27.5441 -27.5261 -27.5261
   -27.5145 -27.5145 -27.4931 -27.4931 -27.4421 -27.4421 -27.4275 -27.4275
     4.9488   4.9488   4.9501   4.9501   7.0282   7.0282   7.0331   7.0331
    10.3311  10.3311  10.3331  10.3331  11.2384  11.2384  11.2468  11.2468
    11.7620  11.7620  11.7675  11.7675  12.3353  12.3353  12.3426  12.3426
    13.3694  13.3694  13.3765  13.3765  13.6776  13.6776  13.6863  13.6863
    14.1733  14.1733  14.1789  14.1789  14.6142  14.6142  14.6334  14.6334
    14.9471  14.9471  14.9620  14.9620  15.5025  15.5025  15.5268  15.5268
    16.4443  16.4443  16.4551  16.4551  17.1988  17.1993

     occupation numbers 
     1.0000   1.0000   1.0000   1.0000   1.0000   1.0000   1.0000   1.0000
     1.0000   1.0000   1.0000   1.0000   1.0000   1.0000   1.0000   1.0000
     1.0000   1.0000   1.0000   1.0000   1.0000   1.0000   1.0000   1.0000
     1.0000   1.0000   1.0000   1.0000   1.0000   1.0000   1.0000   1.0000
     1.0000   1.0000   1.0000   1.0000   1.0000   1.0000   1.0000   1.0000
     1.0000   1.0000   1.0000   1.0000   1.0000   1.0000   1.0000   1.0000
     1.0000   1.0000   1.0000   1.0000   1.0000   1.0000   1.0000   1.0000
     1.0000   1.0000   1.0000   1.0000   1.0000   1.0000   1.0000   1.0000
     1.0000   1.0000   1.0000   1.0000   1.0015   1.0015   1.0028   1.0028
     0.4904   0.4904   0.3986   0.3986  -0.0000  -0.0000  -0.0000  -0.0000
    -0.0000  -0.0000  -0.0000  -0.0000  -0.0000  -0.0000

          k = 0.0000-0.5000-0.5000 (  9580 PWs)   bands (ev):

   -56.4915 -56.4915 -56.4915 -56.4915 -56.4743 -56.4743 -56.4743 -56.4743
   -28.5688 -28.5688 -28.5688 -28.5688 -28.5281 -28.5281 -28.5281 -28.5281
   -27.5976 -27.5976 -27.5976 -27.5976 -27.5305 -27.5305 -27.5305 -27.5305
   -27.5110 -27.5110 -27.5110 -27.5110 -27.4312 -27.4312 -27.4312 -27.4312
     5.3706   5.3706   5.3706   5.3706   6.4274   6.4274   6.4274   6.4274
    10.7065  10.7065  10.7065  10.7065  11.2441  11.2441  11.2441  11.2441
    11.3857  11.3857  11.3857  11.3857  12.2857  12.2857  12.2857  12.2857
    13.3644  13.3644  13.3644  13.3644  14.0101  14.0101  14.0101  14.0101
    14.2978  14.2978  14.2978  14.2978  14.5283  14.5283  14.5283  14.5283
    14.7608  14.7608  14.7608  14.7608  15.4221  15.4221  15.4221  15.4221
    16.5911  16.5911  16.5911  16.5912  16.9885  16.9887

     occupation numbers 
     1.0000   1.0000   1.0000   1.0000   1.0000   1.0000   1.0000   1.0000
     1.0000   1.0000   1.0000   1.0000   1.0000   1.0000   1.0000   1.0000
     1.0000   1.0000   1.0000   1.0000   1.0000   1.0000   1.0000   1.0000
     1.0000   1.0000   1.0000   1.0000   1.0000   1.0000   1.0000   1.0000
     1.0000   1.0000   1.0000   1.0000   1.0000   1.0000   1.0000   1.0000
     1.0000   1.0000   1.0000   1.0000   1.0000   1.0000   1.0000   1.0000
     1.0000   1.0000   1.0000   1.0000   1.0000   1.0000   1.0000   1.0000
     1.0000   1.0000   1.0000   1.0000   1.0000   1.0000   1.0000   1.0000
     1.0000   1.0000   1.0000   1.0000   1.0001   1.0001   1.0001   1.0001
     1.0332   1.0332   1.0332   1.0332  -0.0000  -0.0000  -0.0000  -0.0000
    -0.0000  -0.0000  -0.0000  -0.0000  -0.0000  -0.0000

          k = 0.1667 0.1667 0.1667 (  9627 PWs)   bands (ev):

   -56.5039 -56.5039 -56.4828 -56.4828 -56.4749 -56.4749 -56.4699 -56.4699
   -28.5841 -28.5788 -28.5669 -28.5669 -28.5505 -28.5466 -28.4920 -28.4917
   -27.6253 -27.6229 -27.5837 -27.5747 -27.5463 -27.5420 -27.5415 -27.5383
   -27.5090 -27.4966 -27.4741 -27.4613 -27.4543 -27.4504 -27.4331 -27.4326
     3.2668   3.2668   6.3444   6.3511   7.0379   7.0466   8.3234   8.3256
     9.7323   9.7350  10.5182  10.5190  10.5473  10.5486  11.3862  11.3917
    11.9885  11.9891  12.3211  12.3293  12.8300  12.8353  12.8359  12.8422
    13.1047  13.1101  13.1365  13.1366  13.2126  13.2186  13.5241  13.5292
    13.6030  13.6125  13.7857  13.7912  14.1547  14.1633  15.2083  15.2230
    15.2762  15.2909  15.4749  15.4760  15.5275  15.5431  15.7964  15.8111
    16.2277  16.2445  16.6063  16.6178  17.0503  17.0905

     occupation numbers 
     1.0000   1.0000   1.0000   1.0000   1.0000   1.0000   1.0000   1.0000
     1.0000   1.0000   1.0000   1.0000   1.0000   1.0000   1.0000   1.0000
     1.0000   1.0000   1.0000   1.0000   1.0000   1.0000   1.0000   1.0000
     1.0000   1.0000   1.0000   1.0000   1.0000   1.0000   1.0000   1.0000
     1.0000   1.0000   1.0000   1.0000   1.0000   1.0000   1.0000   1.0000
     1.0000   1.0000   1.0000   1.0000   1.0000   1.0000   1.0000   1.0000
     1.0000   1.0000   1.0000   1.0000   1.0000   1.0000   1.0000   1.0000
     1.0000   1.0000   1.0000   1.0000   1.0000   1.0000   1.0000   1.0000
     1.0000   1.0000   1.0000   1.0000   1.0000   1.0000  -0.0099  -0.0070
    -0.0016  -0.0010  -0.0000  -0.0000  -0.0000  -0.0000  -0.0000  -0.0000
    -0.0000  -0.0000  -0.0000  -0.0000  -0.0000  -0.0000

          k = 0.1667 0.1667 0.3333 (  9629 PWs)   bands (ev):

   -56.4996 -56.4996 -56.4872 -56.4872 -56.4743 -56.4743 -56.4706 -56.4706
   -28.5823 -28.5777 -28.5696 -28.5680 -28.5391 -28.5364 -28.5045 -28.5038
   -27.6259 -27.6217 -27.5748 -27.5665 -27.5545 -27.5453 -27.5382 -27.5337
   -27.5107 -27.4978 -27.4754 -27.4653 -27.4630 -27.4514 -27.4308 -27.4292
     3.8110   3.8112   5.6516   5.6538   7.1823   7.1863   8.2389   8.2425
     9.3519   9.3544  10.2218  10.2243  10.9249  10.9286  11.4684  11.4717
    11.8298  11.8340  12.2188  12.2209  12.7521  12.7610  12.9463  12.9524
    13.0800  13.0887  13.1980  13.2065  13.2948  13.2983  13.5462  13.5530
    13.7643  13.7695  14.0148  14.0238  14.3544  14.3717  14.9094  14.9369
    15.1935  15.2087  15.2860  15.2960  15.5063  15.5209  15.7166  15.7374
    16.1694  16.1789  16.4562  16.4701  17.2202  17.2522

     occupation numbers 
     1.0000   1.0000   1.0000   1.0000   1.0000   1.0000   1.0000   1.0000
     1.0000   1.0000   1.0000   1.0000   1.0000   1.0000   1.0000   1.0000
     1.0000   1.0000   1.0000   1.0000   1.0000   1.0000   1.0000   1.0000
     1.0000   1.0000   1.0000   1.0000   1.0000   1.0000   1.0000   1.0000
     1.0000   1.0000   1.0000   1.0000   1.0000   1.0000   1.0000   1.0000
     1.0000   1.0000   1.0000   1.0000   1.0000   1.0000   1.0000   1.0000
     1.0000   1.0000   1.0000   1.0000   1.0000   1.0000   1.0000   1.0000
     1.0000   1.0000   1.0000   1.0000   1.0000   1.0000   1.0000   1.0000
     1.0000   1.0000   1.0000   1.0000   1.0000   1.0000   0.7163   0.5540
    -0.0136  -0.0098  -0.0011  -0.0008  -0.0000  -0.0000  -0.0000  -0.0000
    -0.0000  -0.0000  -0.0000  -0.0000  -0.0000  -0.0000

          k = 0.1667 0.1667-0.5000 (  9658 PWs)   bands (ev):

   -56.4935 -56.4935 -56.4935 -56.4935 -56.4723 -56.4723 -56.4723 -56.4723
   -28.5775 -28.5775 -28.5722 -28.5722 -28.5227 -28.5227 -28.5194 -28.5194
   -27.6236 -27.6236 -27.5652 -27.5652 -27.5562 -27.5562 -27.5269 -27.5269
   -27.5123 -27.5123 -27.4705 -27.4705 -27.4578 -27.4578 -27.4291 -27.4291
     4.6539   4.6539   4.6547   4.6547   7.7181   7.7181   7.7243   7.7243
     9.6725   9.6725   9.6738   9.6738  11.3994  11.3994  11.4076  11.4076
    11.8742  11.8742  11.8778  11.8778  12.7989  12.7989  12.8109  12.8109
    13.1831  13.1831  13.1936  13.1936  13.4197  13.4197  13.4238  13.4238
    13.9246  13.9246  13.9325  13.9325  14.6752  14.6752  14.7091  14.7091
    15.1660  15.1660  15.1860  15.1860  15.6071  15.6071  15.6297  15.6297
    16.2631  16.2631  16.2727  16.2727  17.5738  17.5746

     occupation numbers 
     1.0000   1.0000   1.0000   1.0000   1.0000   1.0000   1.0000   1.0000
     1.0000   1.0000   1.0000   1.0000   1.0000   1.0000   1.0000   1.0000
     1.0000   1.0000   1.0000   1.0000   1.0000   1.0000   1.0000   1.0000
     1.0000   1.0000   1.0000   1.0000   1.0000   1.0000   1.0000   1.0000
     1.0000   1.0000   1.0000   1.0000   1.0000   1.0000   1.0000   1.0000
     1.0000   1.0000   1.0000   1.0000   1.0000   1.0000   1.0000   1.0000
     1.0000   1.0000   1.0000   1.0000   1.0000   1.0000   1.0000   1.0000
     1.0000   1.0000   1.0000   1.0000   1.0000   1.0000   1.0000   1.0000
     1.0000   1.0000   1.0000   1.0000   1.0083   1.0083   1.0169   1.0169
    -0.0221  -0.0221  -0.0157  -0.0157  -0.0000  -0.0000  -0.0000  -0.0000
    -0.0000  -0.0000  -0.0000  -0.0000  -0.0000  -0.0000

          k = 0.1667 0.3333 0.3333 (  9651 PWs)   bands (ev):

   -56.4960 -56.4960 -56.4880 -56.4880 -56.4754 -56.4754 -56.4721 -56.4721
   -28.5778 -28.5741 -28.5662 -28.5654 -28.5378 -28.5355 -28.5149 -28.5138
   -27.6184 -27.6155 -27.5754 -27.5680 -27.5564 -27.5478 -27.5371 -27.5298
   -27.5143 -27.5048 -27.4816 -27.4733 -27.4573 -27.4457 -27.4300 -27.4267
     4.3276   4.3280   5.7574   5.7609   6.7209   6.7264   7.7765   7.7802
     9.2003   9.2037  10.0630  10.0666  10.9687  10.9710  11.5791  11.5833
    11.7455  11.7477  12.2602  12.2638  12.4944  12.5007  12.8127  12.8192
    13.1532  13.1574  13.2541  13.2663  13.4018  13.4091  13.6940  13.7092
    13.9192  13.9354  14.2306  14.2414  14.5666  14.5948  14.8663  14.8805
    14.9506  14.9617  15.1263  15.1530  15.4095  15.4122  15.5558  15.5713
    16.2317  16.2393  16.4605  16.4686  17.0999  17.1248

     occupation numbers 
     1.0000   1.0000   1.0000   1.0000   1.0000   1.0000   1.0000   1.0000
     1.0000   1.0000   1.0000   1.0000   1.0000   1.0000   1.0000   1.0000
     1.0000   1.0000   1.0000   1.0000   1.0000   1.0000   1.0000   1.0000
     1.0000   1.0000   1.0000   1.0000   1.0000   1.0000   1.0000   1.0000
     1.0000   1.0000   1.0000   1.0000   1.0000   1.0000   1.0000   1.0000
     1.0000   1.0000   1.0000   1.0000   1.0000   1.0000   1.0000   1.0000
     1.0000   1.0000   1.0000   1.0000   1.0000   1.0000   1.0000   1.0000
     1.0000   1.0000   1.0000   1.0000   1.0000   1.0000   1.0000   1.0000
     1.0000   1.0000   1.0000   1.0000   1.0003   1.0008   0.9120   0.8582
     0.4687   0.4004  -0.0340  -0.0265  -0.0000  -0.0000  -0.0000  -0.0000
    -0.0000  -0.0000  -0.0000  -0.0000  -0.0000  -0.0000

          k = 0.1667 0.3333-0.5000 (  9682 PWs)   bands (ev):

   -56.4915 -56.4915 -56.4915 -56.4915 -56.4743 -56.4743 -56.4743 -56.4743
   -28.5716 -28.5716 -28.5675 -28.5675 -28.5289 -28.5289 -28.5257 -28.5257
   -27.6122 -27.6122 -27.5762 -27.5762 -27.5519 -27.5519 -27.5283 -27.5283
   -27.5139 -27.5139 -27.4829 -27.4829 -27.4467 -27.4467 -27.4284 -27.4284
     5.0994   5.0994   5.1009   5.1009   7.0728   7.0728   7.0782   7.0782
     9.6227   9.6227   9.6264   9.6264  11.2876  11.2876  11.2894  11.2894
    11.9351  11.9351  11.9440  11.9440  12.5648  12.5648  12.5741  12.5741
    13.2669  13.2669  13.2730  13.2730  13.5507  13.5507  13.5657  13.5657
    14.2367  14.2367  14.2456  14.2456  14.7118  14.7118  14.7331  14.7331
    14.9649  14.9649  14.9828  14.9828  15.4465  15.4465  15.4633  15.4633
    16.3872  16.3873  16.3947  16.3948  17.1620  17.1649

     occupation numbers 
     1.0000   1.0000   1.0000   1.0000   1.0000   1.0000   1.0000   1.0000
     1.0000   1.0000   1.0000   1.0000   1.0000   1.0000   1.0000   1.0000
     1.0000   1.0000   1.0000   1.0000   1.0000   1.0000   1.0000   1.0000
     1.0000   1.0000   1.0000   1.0000   1.0000   1.0000   1.0000   1.0000
     1.0000   1.0000   1.0000   1.0000   1.0000   1.0000   1.0000   1.0000
     1.0000   1.0000   1.0000   1.0000   1.0000   1.0000   1.0000   1.0000
     1.0000   1.0000   1.0000   1.0000   1.0000   1.0000   1.0000   1.0000
     1.0000   1.0000   1.0000   1.0000   1.0000   1.0000   1.0000   1.0000
     1.0000   1.0000   1.0000   1.0000   1.0178   1.0178   1.0248   1.0248
     0.3813   0.3812   0.2782   0.2781  -0.0000  -0.0000  -0.0000  -0.0000
    -0.0000  -0.0000  -0.0000  -0.0000  -0.0000  -0.0000

          k = 0.1667-0.5000-0.5000 (  9628 PWs)   bands (ev):

   -56.4903 -56.4903 -56.4903 -56.4903 -56.4754 -56.4754 -56.4754 -56.4754
   -28.5664 -28.5664 -28.5662 -28.5662 -28.5312 -28.5312 -28.5310 -28.5310
   -27.5983 -27.5983 -27.5915 -27.5915 -27.5463 -27.5463 -27.5324 -27.5324
   -27.5083 -27.5083 -27.4938 -27.4938 -27.4376 -27.4376 -27.4318 -27.4318
     5.5071   5.5071   5.5085   5.5085   6.5302   6.5302   6.5328   6.5328
     9.8344   9.8344   9.8385   9.8385  10.8964  10.8964  10.8986  10.8986
    12.1902  12.1902  12.1928  12.1928  12.3756  12.3756  12.3787  12.3787
    13.2234  13.2234  13.2241  13.2241  13.7579  13.7579  13.7718  13.7718
    14.3938  14.3939  14.4009  14.4009  14.6982  14.6982  14.7156  14.7156
    14.8396  14.8396  14.8415  14.8415  15.3687  15.3687  15.3689  15.3689
    16.4879  16.4880  16.4895  16.4895  16.9544  16.9560

     occupation numbers 
     1.0000   1.0000   1.0000   1.0000   1.0000   1.0000   1.0000   1.0000
     1.0000   1.0000   1.0000   1.0000   1.0000   1.0000   1.0000   1.0000
     1.0000   1.0000   1.0000   1.0000   1.0000   1.0000   1.0000   1.0000
     1.0000   1.0000   1.0000   1.0000   1.0000   1.0000   1.0000   1.0000
     1.0000   1.0000   1.0000   1.0000   1.0000   1.0000   1.0000   1.0000
     1.0000   1.0000   1.0000   1.0000   1.0000   1.0000   1.0000   1.0000
     1.0000   1.0000   1.0000   1.0000   1.0000   1.0000   1.0000   1.0000
     1.0000   1.0000   1.0000   1.0000   1.0000   1.0000   1.0000   1.0000
     1.0000   1.0000   1.0000   1.0000   1.0137   1.0137   1.0190   1.0190
     0.9844   0.9844   0.9806   0.9806  -0.0000  -0.0000  -0.0000  -0.0000
    -0.0000  -0.0000  -0.0000  -0.0000  -0.0000  -0.0000

          k = 0.3333 0.3333 0.3333 (  9690 PWs)   bands (ev):

   -56.4928 -56.4928 -56.4872 -56.4872 -56.4773 -56.4773 -56.4743 -56.4743
   -28.5723 -28.5691 -28.5613 -28.5612 -28.5405 -28.5386 -28.5241 -28.5227
   -27.6107 -27.6071 -27.5740 -27.5640 -27.5638 -27.5623 -27.5412 -27.5280
   -27.5174 -27.4971 -27.4774 -27.4591 -27.4587 -27.4580 -27.4322 -27.4289
     4.8137   4.8142   5.9659   5.9724   6.6621   6.6726   7.5015   7.5041
     8.7480   8.7531   9.4979   9.5043  10.5490  10.5536  11.1932  11.1951
    12.0063  12.0081  12.4976  12.5007  12.7690  12.7731  12.8492  12.8509
    13.1390  13.1507  13.1960  13.2028  13.2663  13.2685  13.5452  13.5483
    14.1408  14.1454  14.4924  14.5007  14.7930  14.8298  14.8517  14.8634
    14.9966  15.0075  15.1378  15.1437  15.2643  15.2913  15.4145  15.4338
    16.2559  16.2629  16.3898  16.3925  16.9561  16.9644

     occupation numbers 
     1.0000   1.0000   1.0000   1.0000   1.0000   1.0000   1.0000   1.0000
     1.0000   1.0000   1.0000   1.0000   1.0000   1.0000   1.0000   1.0000
     1.0000   1.0000   1.0000   1.0000   1.0000   1.0000   1.0000   1.0000
     1.0000   1.0000   1.0000   1.0000   1.0000   1.0000   1.0000   1.0000
     1.0000   1.0000   1.0000   1.0000   1.0000   1.0000   1.0000   1.0000
     1.0000   1.0000   1.0000   1.0000   1.0000   1.0000   1.0000   1.0000
     1.0000   1.0000   1.0000   1.0000   1.0000   1.0000   1.0000   1.0000
     1.0000   1.0000   1.0000   1.0000   1.0000   1.0000   1.0000   1.0000
     1.0000   1.0000   1.0000   1.0000   1.0336   1.0021   0.9563   0.9219
     0.2062   0.1556  -0.0313  -0.0295  -0.0023  -0.0010  -0.0000  -0.0000
    -0.0000  -0.0000  -0.0000  -0.0000  -0.0000  -0.0000

          k = 0.3333 0.3333-0.5000 (  9648 PWs)   bands (ev):

   -56.4890 -56.4890 -56.4890 -56.4890 -56.4768 -56.4768 -56.4768 -56.4768
   -28.5655 -28.5655 -28.5619 -28.5619 -28.5359 -28.5359 -28.5327 -28.5327
   -27.6030 -27.6030 -27.5742 -27.5742 -27.5638 -27.5638 -27.5378 -27.5378
   -27.5029 -27.5029 -27.4715 -27.4715 -27.4531 -27.4531 -27.4332 -27.4332
     5.5129   5.5129   5.5149   5.5149   6.9756   6.9756   6.9814   6.9814
     9.0501   9.0501   9.0560   9.0560  10.5632  10.5632  10.5661  10.5661
    12.3851  12.3851  12.3936  12.3936  12.8192  12.8192  12.8268  12.8268
    13.1331  13.1331  13.1441  13.1441  13.3782  13.3782  13.3866  13.3866
    14.4668  14.4668  14.4751  14.4751  14.8618  14.8618  14.8775  14.8775
    15.0817  15.0817  15.1010  15.1010  15.2977  15.2977  15.3140  15.3140
    16.3320  16.3320  16.3414  16.3414  16.9305  16.9325

     occupation numbers 
     1.0000   1.0000   1.0000   1.0000   1.0000   1.0000   1.0000   1.0000
     1.0000   1.0000   1.0000   1.0000   1.0000   1.0000   1.0000   1.0000
     1.0000   1.0000   1.0000   1.0000   1.0000   1.0000   1.0000   1.0000
     1.0000   1.0000   1.0000   1.0000   1.0000   1.0000   1.0000   1.0000
     1.0000   1.0000   1.0000   1.0000   1.0000   1.0000   1.0000   1.0000
     1.0000   1.0000   1.0000   1.0000   1.0000   1.0000   1.0000   1.0000
     1.0000   1.0000   1.0000   1.0000   1.0000   1.0000   1.0000   1.0000
     1.0000   1.0000   1.0000   1.0000   1.0000   1.0000   1.0000   1.0000
     1.0000   1.0000   1.0000   1.0000   0.9269   0.9269   0.8703   0.8703
    -0.0252  -0.0252  -0.0343  -0.0343  -0.0008  -0.0008  -0.0004  -0.0004
    -0.0000  -0.0000  -0.0000  -0.0000  -0.0000  -0.0000

          k = 0.3333-0.5000-0.5000 (  9668 PWs)   bands (ev):

   -56.4872 -56.4872 -56.4872 -56.4872 -56.4786 -56.4786 -56.4786 -56.4786
   -28.5596 -28.5596 -28.5593 -28.5593 -28.5393 -28.5393 -28.5389 -28.5389
   -27.5923 -27.5923 -27.5839 -27.5839 -27.5640 -27.5640 -27.5422 -27.5422
   -27.4951 -27.4951 -27.4735 -27.4735 -27.4480 -27.4480 -27.4399 -27.4399
     5.8912   5.8912   5.8943   5.8943   6.6641   6.6641   6.6696   6.6696
     9.0935   9.0935   9.1001   9.1001  10.0570  10.0570  10.0612  10.0612
    12.6146  12.6146  12.6186  12.6186  12.8001  12.8001  12.8022  12.8022
    13.0433  13.0433  13.0433  13.0433  13.3528  13.3528  13.3635  13.3635
    14.6575  14.6575  14.6652  14.6652  14.9736  14.9736  14.9811  14.9811
    15.0655  15.0655  15.0711  15.0711  15.2564  15.2565  15.2683  15.2683
    16.3690  16.3690  16.3703  16.3703  16.7214  16.7220

     occupation numbers 
     1.0000   1.0000   1.0000   1.0000   1.0000   1.0000   1.0000   1.0000
     1.0000   1.0000   1.0000   1.0000   1.0000   1.0000   1.0000   1.0000
     1.0000   1.0000   1.0000   1.0000   1.0000   1.0000   1.0000   1.0000
     1.0000   1.0000   1.0000   1.0000   1.0000   1.0000   1.0000   1.0000
     1.0000   1.0000   1.0000   1.0000   1.0000   1.0000   1.0000   1.0000
     1.0000   1.0000   1.0000   1.0000   1.0000   1.0000   1.0000   1.0000
     1.0000   1.0000   1.0000   1.0000   1.0000   1.0000   1.0000   1.0000
     1.0000   1.0000   1.0000   1.0000   1.0000   1.0000   1.0000   1.0000
     1.0054   1.0054   1.0065   1.0065   0.3297   0.3297   0.2871   0.2871
    -0.0080  -0.0080  -0.0150  -0.0150  -0.0029  -0.0029  -0.0020  -0.0020
    -0.0000  -0.0000  -0.0000  -0.0000  -0.0000  -0.0000

          k =-0.5000-0.5000-0.5000 (  9568 PWs)   bands (ev):

   -56.4829 -56.4829 -56.4829 -56.4829 -56.4829 -56.4829 -56.4829 -56.4829
   -28.5501 -28.5501 -28.5493 -28.5493 -28.5493 -28.5493 -28.5493 -28.5493
   -27.5801 -27.5801 -27.5801 -27.5801 -27.5801 -27.5801 -27.5462 -27.5462
   -27.4879 -27.4879 -27.4545 -27.4545 -27.4545 -27.4545 -27.4545 -27.4545
     6.3982   6.3982   6.3982   6.3982   6.3982   6.3982   6.4086   6.4086
     9.2381   9.2381   9.2505   9.2505   9.2505   9.2505   9.2505   9.2505
    12.9181  12.9181  12.9245  12.9245  12.9245  12.9245  12.9245  12.9245
    13.0013  13.0013  13.0060  13.0060  13.0060  13.0060  13.0060  13.0060
    14.9354  14.9354  14.9373  14.9373  14.9373  14.9373  14.9373  14.9373
    15.2377  15.2377  15.2377  15.2377  15.2377  15.2377  15.2809  15.2809
    16.4114  16.4114  16.4237  16.4237  16.4237  16.4237

     occupation numbers 
     1.0000   1.0000   1.0000   1.0000   1.0000   1.0000   1.0000   1.0000
     1.0000   1.0000   1.0000   1.0000   1.0000   1.0000   1.0000   1.0000
     1.0000   1.0000   1.0000   1.0000   1.0000   1.0000   1.0000   1.0000
     1.0000   1.0000   1.0000   1.0000   1.0000   1.0000   1.0000   1.0000
     1.0000   1.0000   1.0000   1.0000   1.0000   1.0000   1.0000   1.0000
     1.0000   1.0000   1.0000   1.0000   1.0000   1.0000   1.0000   1.0000
     1.0000   1.0000   1.0000   1.0000   1.0000   1.0000   1.0000   1.0000
     1.0000   1.0000   1.0000   1.0000   1.0000   1.0000   1.0000   1.0000
     0.5629   0.5629   0.5512   0.5512   0.5512   0.5512   0.5512   0.5512
    -0.0048  -0.0048  -0.0048  -0.0048  -0.0048  -0.0048  -0.0014  -0.0014
    -0.0000  -0.0000  -0.0000  -0.0000  -0.0000  -0.0000

          k = 0.0000 0.3333 0.1667 (  9647 PWs)   bands (ev):

   -56.5009 -56.5009 -56.4873 -56.4873 -56.4733 -56.4733 -56.4701 -56.4701
   -28.5836 -28.5787 -28.5724 -28.5705 -28.5382 -28.5354 -28.5007 -28.4999
   -27.6292 -27.6239 -27.5731 -27.5720 -27.5547 -27.5424 -27.5369 -27.5283
   -27.5155 -27.4898 -27.4793 -27.4680 -27.4590 -27.4476 -27.4344 -27.4311
     3.6321   3.6322   5.5368   5.5377   7.3647   7.3659   8.4326   8.4392
     9.7432   9.7456  10.2564  10.2626  10.9716  10.9748  11.0975  11.1001
    11.8637  11.8661  12.2432  12.2471  12.7983  12.8033  12.9766  12.9818
    13.0680  13.0742  13.2458  13.2521  13.3418  13.3465  13.4900  13.4947
    13.5405  13.5430  13.9678  13.9778  14.2314  14.2435  14.8924  14.9243
    15.2806  15.2989  15.3408  15.3578  15.6488  15.6765  15.7874  15.8131
    16.1578  16.1702  16.4249  16.4391  17.2730  17.3029

     occupation numbers 
     1.0000   1.0000   1.0000   1.0000   1.0000   1.0000   1.0000   1.0000
     1.0000   1.0000   1.0000   1.0000   1.0000   1.0000   1.0000   1.0000
     1.0000   1.0000   1.0000   1.0000   1.0000   1.0000   1.0000   1.0000
     1.0000   1.0000   1.0000   1.0000   1.0000   1.0000   1.0000   1.0000
     1.0000   1.0000   1.0000   1.0000   1.0000   1.0000   1.0000   1.0000
     1.0000   1.0000   1.0000   1.0000   1.0000   1.0000   1.0000   1.0000
     1.0000   1.0000   1.0000   1.0000   1.0000   1.0000   1.0000   1.0000
     1.0000   1.0000   1.0000   1.0000   1.0000   1.0000   1.0000   1.0000
     1.0000   1.0000   1.0000   1.0000   1.0000   1.0000   0.8047   0.6305
    -0.0014  -0.0007  -0.0002  -0.0001  -0.0000  -0.0000  -0.0000  -0.0000
    -0.0000  -0.0000  -0.0000  -0.0000  -0.0000  -0.0000

          k = 0.0000-0.5000 0.1667 (  9654 PWs)   bands (ev):

   -56.4943 -56.4943 -56.4943 -56.4943 -56.4715 -56.4715 -56.4715 -56.4715
   -28.5798 -28.5798 -28.5744 -28.5744 -28.5197 -28.5197 -28.5169 -28.5169
   -27.6276 -27.6276 -27.5661 -27.5661 -27.5532 -27.5532 -27.5283 -27.5283
   -27.5063 -27.5063 -27.4742 -27.4742 -27.4546 -27.4546 -27.4318 -27.4318
     4.4924   4.4924   4.4929   4.4929   7.8969   7.8969   7.9016   7.9016
    10.1028  10.1028  10.1079  10.1079  10.8748  10.8748  10.8821  10.8821
    12.1428  12.1428  12.1477  12.1477  12.8634  12.8634  12.8725  12.8725
    13.1100  13.1100  13.1180  13.1180  13.3990  13.3990  13.4081  13.4081
    13.8096  13.8096  13.8150  13.8150  14.6099  14.6099  14.6410  14.6410
    15.2625  15.2625  15.2848  15.2848  15.6864  15.6864  15.7148  15.7149
    16.2186  16.2186  16.2303  16.2303  17.5943  17.6005

     occupation numbers 
     1.0000   1.0000   1.0000   1.0000   1.0000   1.0000   1.0000   1.0000
     1.0000   1.0000   1.0000   1.0000   1.0000   1.0000   1.0000   1.0000
     1.0000   1.0000   1.0000   1.0000   1.0000   1.0000   1.0000   1.0000
     1.0000   1.0000   1.0000   1.0000   1.0000   1.0000   1.0000   1.0000
     1.0000   1.0000   1.0000   1.0000   1.0000   1.0000   1.0000   1.0000
     1.0000   1.0000   1.0000   1.0000   1.0000   1.0000   1.0000   1.0000
     1.0000   1.0000   1.0000   1.0000   1.0000   1.0000   1.0000   1.0000
     1.0000   1.0000   1.0000   1.0000   1.0000   1.0000   1.0000   1.0000
     1.0000   1.0000   1.0000   1.0000   1.0013   1.0013   1.0034   1.0034
    -0.0024  -0.0024  -0.0012  -0.0012  -0.0000  -0.0000  -0.0000  -0.0000
    -0.0000  -0.0000  -0.0000  -0.0000  -0.0000  -0.0000

          k = 0.0000-0.5000 0.3333 (  9646 PWs)   bands (ev):

   -56.4925 -56.4925 -56.4925 -56.4925 -56.4733 -56.4733 -56.4733 -56.4733
   -28.5740 -28.5740 -28.5698 -28.5698 -28.5261 -28.5261 -28.5229 -28.5229
   -27.6156 -27.6156 -27.5777 -27.5777 -27.5447 -27.5447 -27.5254 -27.5254
   -27.5155 -27.5155 -27.4926 -27.4926 -27.4419 -27.4419 -27.4276 -27.4276
     4.9483   4.9483   4.9492   4.9492   7.0314   7.0314   7.0338   7.0338
    10.5077  10.5077  10.5111  10.5111  10.8274  10.8274  10.8296  10.8296
    11.9951  11.9951  12.0006  12.0006  12.4107  12.4107  12.4212  12.4212
    13.2690  13.2690  13.2754  13.2754  13.9162  13.9162  13.9227  13.9227
    13.9581  13.9581  13.9713  13.9713  14.6455  14.6455  14.6789  14.6789
    14.9051  14.9051  14.9410  14.9410  15.4825  15.4825  15.5056  15.5056
    16.3891  16.3891  16.4010  16.4010  17.2964  17.2979

     occupation numbers 
     1.0000   1.0000   1.0000   1.0000   1.0000   1.0000   1.0000   1.0000
     1.0000   1.0000   1.0000   1.0000   1.0000   1.0000   1.0000   1.0000
     1.0000   1.0000   1.0000   1.0000   1.0000   1.0000   1.0000   1.0000
     1.0000   1.0000   1.0000   1.0000   1.0000   1.0000   1.0000   1.0000
     1.0000   1.0000   1.0000   1.0000   1.0000   1.0000   1.0000   1.0000
     1.0000   1.0000   1.0000   1.0000   1.0000   1.0000   1.0000   1.0000
     1.0000   1.0000   1.0000   1.0000   1.0000   1.0000   1.0000   1.0000
     1.0000   1.0000   1.0000   1.0000   1.0000   1.0000   1.0000   1.0000
     1.0000   1.0000   1.0000   1.0000   1.0039   1.0039   1.0091   1.0091
     0.7397   0.7397   0.5284   0.5284  -0.0000  -0.0000  -0.0000  -0.0000
    -0.0000  -0.0000  -0.0000  -0.0000  -0.0000  -0.0000

          k =-0.1667-0.5000 0.3333 (  9682 PWs)   bands (ev):

   -56.4915 -56.4915 -56.4915 -56.4915 -56.4743 -56.4743 -56.4743 -56.4743
   -28.5717 -28.5717 -28.5675 -28.5675 -28.5290 -28.5290 -28.5257 -28.5257
   -27.6124 -27.6124 -27.5756 -27.5756 -27.5524 -27.5524 -27.5280 -27.5280
   -27.5143 -27.5143 -27.4828 -27.4828 -27.4467 -27.4467 -27.4284 -27.4284
     5.0992   5.0992   5.1003   5.1003   7.0748   7.0748   7.0787   7.0787
     9.6361   9.6361   9.6389   9.6389  11.1983  11.1983  11.2013  11.2013
    11.9975  11.9975  12.0041  12.0041  12.6322  12.6322  12.6425  12.6425
    13.1735  13.1735  13.1815  13.1815  13.6516  13.6516  13.6633  13.6633
    14.1720  14.1720  14.1813  14.1813  14.7183  14.7183  14.7436  14.7436
    14.9642  14.9642  14.9955  14.9955  15.4270  15.4270  15.4441  15.4442
    16.3586  16.3587  16.3694  16.3695  17.2177  17.2200

     occupation numbers 
     1.0000   1.0000   1.0000   1.0000   1.0000   1.0000   1.0000   1.0000
     1.0000   1.0000   1.0000   1.0000   1.0000   1.0000   1.0000   1.0000
     1.0000   1.0000   1.0000   1.0000   1.0000   1.0000   1.0000   1.0000
     1.0000   1.0000   1.0000   1.0000   1.0000   1.0000   1.0000   1.0000
     1.0000   1.0000   1.0000   1.0000   1.0000   1.0000   1.0000   1.0000
     1.0000   1.0000   1.0000   1.0000   1.0000   1.0000   1.0000   1.0000
     1.0000   1.0000   1.0000   1.0000   1.0000   1.0000   1.0000   1.0000
     1.0000   1.0000   1.0000   1.0000   1.0000   1.0000   1.0000   1.0000
     1.0000   1.0000   1.0000   1.0000   1.0199   1.0199   1.0283   1.0283
     0.3857   0.3857   0.2117   0.2117  -0.0000  -0.0000  -0.0000  -0.0000
    -0.0000  -0.0000  -0.0000  -0.0000  -0.0000  -0.0000

     the Fermi energy is    14.9456 ev

!    total energy              =   -1180.34964837 Ry

     total all-electron energy =    -10727.810485 Ry
     estimated scf accuracy    <       0.00000088 Ry
     smearing contrib. (-TS)   =      -0.00129546 Ry
     internal energy E=F+TS    =   -1180.34835290 Ry

     The total energy is F=E-TS. E is the sum of the following terms:
     one-electron contribution =    -336.80565810 Ry
     hartree contribution      =     207.05302703 Ry
     xc contribution           =    -114.36336358 Ry
     ewald contribution        =    -496.51183961 Ry
     one-center paw contrib.   =    -439.72051865 Ry
      -> PAW hartree energy AE =     126.72350972 Ry
      -> PAW hartree energy PS =    -125.75621303 Ry
      -> PAW xc energy AE      =     -96.24040270 Ry
      -> PAW xc energy PS      =      20.93315917 Ry
      -> total E_H with PAW    =     208.02032372 Ry
      -> total E_XC with PAW   =    -189.67060711 Ry

     convergence has been achieved in   6 iterations

     Forces acting on atoms (cartesian axes, Ry/au):

     atom    1 type  1   force =    -0.00267408   -0.00267408    0.00267408
     atom    2 type  1   force =    -0.00267408    0.00267408   -0.00267408
     atom    3 type  1   force =     0.00267408   -0.00267408   -0.00267408
     atom    4 type  1   force =     0.00267408    0.00267408    0.00267408
     atom    5 type  2   force =    -0.00406235   -0.00406235    0.00406235
     atom    6 type  2   force =    -0.00406235    0.00406235   -0.00406235
     atom    7 type  2   force =     0.00406235   -0.00406235   -0.00406235
     atom    8 type  2   force =     0.00406235    0.00406235    0.00406235
     The non-local contrib.  to forces
     atom    1 type  1   force =     0.05175822    0.05175822   -0.05175822
     atom    2 type  1   force =     0.05175822   -0.05175822    0.05175822
     atom    3 type  1   force =    -0.05175822    0.05175822    0.05175822
     atom    4 type  1   force =    -0.05175822   -0.05175822   -0.05175822
     atom    5 type  2   force =    -0.00823509   -0.00823509    0.00823509
     atom    6 type  2   force =    -0.00823509    0.00823509   -0.00823509
     atom    7 type  2   force =     0.00823509   -0.00823509   -0.00823509
     atom    8 type  2   force =     0.00823509    0.00823509    0.00823509
     The ionic contribution  to forces
     atom    1 type  1   force =    -0.85044630   -0.85044630    0.85044630
     atom    2 type  1   force =    -0.85044630    0.85044630   -0.85044630
     atom    3 type  1   force =     0.85044630   -0.85044630   -0.85044630
     atom    4 type  1   force =     0.85044630    0.85044630    0.85044630
     atom    5 type  2   force =    -0.24524978   -0.24524978    0.24524978
     atom    6 type  2   force =    -0.24524978    0.24524978   -0.24524978
     atom    7 type  2   force =     0.24524978   -0.24524978   -0.24524978
     atom    8 type  2   force =     0.24524978    0.24524978    0.24524978
     The local contribution  to forces
     atom    1 type  1   force =     0.79719021    0.79719021   -0.79719021
     atom    2 type  1   force =     0.79719021   -0.79719021    0.79719021
     atom    3 type  1   force =    -0.79719021    0.79719021    0.79719021
     atom    4 type  1   force =    -0.79719021   -0.79719021   -0.79719021
     atom    5 type  2   force =     0.24857290    0.24857290   -0.24857290
     atom    6 type  2   force =     0.24857290   -0.24857290    0.24857290
     atom    7 type  2   force =    -0.24857290    0.24857290    0.24857290
     atom    8 type  2   force =    -0.24857290   -0.24857290   -0.24857290
     The core correction contribution to forces
     atom    1 type  1   force =    -0.00104698   -0.00104698    0.00104698
     atom    2 type  1   force =    -0.00104698    0.00104698   -0.00104698
     atom    3 type  1   force =     0.00104698   -0.00104698   -0.00104698
     atom    4 type  1   force =     0.00104698    0.00104698    0.00104698
     atom    5 type  2   force =     0.00081449    0.00081449   -0.00081449
     atom    6 type  2   force =     0.00081449   -0.00081449    0.00081449
     atom    7 type  2   force =    -0.00081449    0.00081449    0.00081449
     atom    8 type  2   force =    -0.00081449   -0.00081449   -0.00081449
     The Hubbard contrib.    to forces
     atom    1 type  1   force =     0.00000000    0.00000000    0.00000000
     atom    2 type  1   force =     0.00000000    0.00000000    0.00000000
     atom    3 type  1   force =     0.00000000    0.00000000    0.00000000
     atom    4 type  1   force =     0.00000000    0.00000000    0.00000000
     atom    5 type  2   force =     0.00000000    0.00000000    0.00000000
     atom    6 type  2   force =     0.00000000    0.00000000    0.00000000
     atom    7 type  2   force =     0.00000000    0.00000000    0.00000000
     atom    8 type  2   force =     0.00000000    0.00000000    0.00000000
     The SCF correction term to forces
     atom    1 type  1   force =    -0.00012923   -0.00012923    0.00012923
     atom    2 type  1   force =    -0.00012923    0.00012923   -0.00012923
     atom    3 type  1   force =     0.00012923   -0.00012923   -0.00012923
     atom    4 type  1   force =     0.00012923    0.00012923    0.00012923
     atom    5 type  2   force =     0.00003513    0.00003513   -0.00003513
     atom    6 type  2   force =     0.00003513   -0.00003513    0.00003513
     atom    7 type  2   force =    -0.00003513    0.00003513    0.00003513
     atom    8 type  2   force =    -0.00003513   -0.00003513   -0.00003513

     Total force =     0.016848     Total SCF correction =     0.000464


     Computing stress (Cartesian axis) and pressure

          total   stress  (Ry/bohr**3)                   (kbar)     P=      -41.65
  -0.00028312   0.00000000   0.00000000          -41.65        0.00        0.00
   0.00000000  -0.00028312   0.00000000            0.00      -41.65        0.00
   0.00000000   0.00000000  -0.00028312            0.00        0.00      -41.65

     kinetic stress (kbar)  35758.98      0.00      0.00
                                0.00  35758.98      0.00
                                0.00      0.00  35758.98

     local   stress (kbar) -10013.32     -0.00     -0.00
                               -0.00 -10013.32     -0.00
                               -0.00     -0.00 -10013.32

     nonloc. stress (kbar)   2428.59      0.00      0.00
                                0.00   2428.59      0.00
                                0.00      0.00   2428.59

     hartree stress (kbar)  15168.05     -0.00     -0.00
                               -0.00  15168.05     -0.00
                               -0.00     -0.00  15168.05

     exc-cor stress (kbar)  -1706.69      0.00     -0.00
                                0.00  -1706.69     -0.00
                               -0.00     -0.00  -1706.69

     corecor stress (kbar)  -5304.37      0.00     -0.00
                                0.00  -5304.37     -0.00
                               -0.00     -0.00  -5304.37

     ewald   stress (kbar) -36372.90      0.00      0.00
                                0.00 -36372.90      0.00
                                0.00      0.00 -36372.90

     hubbard stress (kbar)      0.00      0.00      0.00
                                0.00      0.00      0.00
                                0.00      0.00      0.00

     DFT-D   stress (kbar)      0.00      0.00      0.00
                                0.00      0.00      0.00
                                0.00      0.00      0.00

     XDM     stress (kbar)      0.00      0.00      0.00
                                0.00      0.00      0.00
                                0.00      0.00      0.00

     dft-nl  stress (kbar)      0.00      0.00      0.00
                                0.00      0.00      0.00
                                0.00      0.00      0.00

     TS-vdW  stress (kbar)      0.00      0.00      0.00
                                0.00      0.00      0.00
                                0.00      0.00      0.00



     Writing output data file /zfs_data/vergnior/martin/Scratch/OAL/CrSi/convergence/smearing/6x6x6/0.010/tmp/CrSi.save/
 
     init_run     :      4.55s CPU      4.86s WALL (       1 calls)
     electrons    :     87.68s CPU     91.96s WALL (       1 calls)
     forces       :      3.98s CPU      4.10s WALL (       1 calls)
     stress       :     10.35s CPU     10.79s WALL (       1 calls)

     Called by init_run:
     wfcinit      :      3.36s CPU      3.44s WALL (       1 calls)
     wfcinit:atom :      0.03s CPU      0.03s WALL (      24 calls)
     wfcinit:wfcr :      3.20s CPU      3.28s WALL (      24 calls)
     potinit      :      0.19s CPU      0.24s WALL (       1 calls)
     hinit0       :      0.17s CPU      0.18s WALL (       1 calls)

     Called by electrons:
     c_bands      :     69.08s CPU     70.46s WALL (       7 calls)
     sum_band     :     14.62s CPU     16.53s WALL (       7 calls)
     v_of_rho     :      0.16s CPU      0.16s WALL (       7 calls)
     v_h          :      0.01s CPU      0.01s WALL (       7 calls)
     v_xc         :      0.19s CPU      0.20s WALL (       9 calls)
     newd         :      3.42s CPU      4.48s WALL (       7 calls)
     PAW_pot      :      0.87s CPU      0.89s WALL (       7 calls)
     mix_rho      :      0.08s CPU      0.09s WALL (       7 calls)

     Called by c_bands:
     init_us_2    :      0.39s CPU      0.40s WALL (     408 calls)
     cegterg      :     62.57s CPU     63.77s WALL (     168 calls)

     Called by sum_band:
     sum_band:wei :      0.02s CPU      0.02s WALL (       7 calls)
     sum_band:loo :     12.50s CPU     12.70s WALL (       7 calls)
     sum_band:buf :      0.11s CPU      0.13s WALL (     168 calls)
     sum_band:ini :      0.17s CPU      0.17s WALL (     168 calls)
     sum_band:cal :      0.89s CPU      0.89s WALL (     168 calls)
     sum_band:bec :      2.16s CPU      2.16s WALL (     168 calls)
     addusdens    :      2.02s CPU      3.74s WALL (       7 calls)
     addusd:skk   :      0.00s CPU      0.00s WALL (      14 calls)
     addusd:dgemm :      0.61s CPU      1.55s WALL (      14 calls)
     addusd:qvan2 :      1.38s CPU      1.38s WALL (      14 calls)

     Called by *egterg:
     cdiaghg      :      6.04s CPU      6.06s WALL (     848 calls)
     cegterg:over :      3.26s CPU      3.28s WALL (     704 calls)
     cegterg:upda :      1.65s CPU      1.68s WALL (     704 calls)
     cegterg:last :      3.00s CPU      3.01s WALL (     428 calls)
     h_psi        :     43.71s CPU     44.80s WALL (     896 calls)
     s_psi        :      6.32s CPU      6.35s WALL (     896 calls)
     g_psi        :      0.10s CPU      0.10s WALL (     704 calls)

     Called by h_psi:
     h_psi:calbec :      3.02s CPU      3.05s WALL (     896 calls)
     vloc_psi     :     34.61s CPU     35.58s WALL (     896 calls)
     add_vuspsi   :      5.87s CPU      5.93s WALL (     896 calls)

     General routines
     calbec       :      4.48s CPU      4.51s WALL (    1184 calls)
     fft          :      0.17s CPU      0.18s WALL (     172 calls)
     ffts         :      0.02s CPU      0.06s WALL (      56 calls)
     fftw         :     32.12s CPU     33.00s WALL (  219472 calls)
     interpolate  :      0.04s CPU      0.08s WALL (      28 calls)
 
     Parallel routines
     fft_scatt_xy :      3.14s CPU      3.22s WALL (  219700 calls)
     fft_scatt_yz :     11.66s CPU     11.98s WALL (  219700 calls)

     PAW routines
     PAW_pot      :      0.87s CPU      0.89s WALL (       7 calls)
     PAW_symme    :      0.01s CPU      0.01s WALL (      14 calls)
 
     PWSCF        :   1m49.52s CPU   1m55.86s WALL

 
   This run was terminated on:  12:44:14   1Aug2021            

=------------------------------------------------------------------------------=
   JOB DONE.
=------------------------------------------------------------------------------=
