MPI startup(): Warning: I_MPI_PMI_LIBRARY will be ignored since the hydra process manager was found
MPI startup(): Warning: I_MPI_PMI_LIBRARY will be ignored since the hydra process manager was found
MPI startup(): Warning: I_MPI_PMI_LIBRARY will be ignored since the hydra process manager was found
MPI startup(): Warning: I_MPI_PMI_LIBRARY will be ignored since the hydra process manager was found
MPI startup(): Warning: I_MPI_PMI_LIBRARY will be ignored since the hydra process manager was found
MPI startup(): Warning: I_MPI_PMI_LIBRARY will be ignored since the hydra process manager was found
MPI startup(): Warning: I_MPI_PMI_LIBRARY will be ignored since the hydra process manager was found
MPI startup(): Warning: I_MPI_PMI_LIBRARY will be ignored since the hydra process manager was found
MPI startup(): Warning: I_MPI_PMI_LIBRARY will be ignored since the hydra process manager was found
MPI startup(): Warning: I_MPI_PMI_LIBRARY will be ignored since the hydra process manager was found
MPI startup(): Warning: I_MPI_PMI_LIBRARY will be ignored since the hydra process manager was found
MPI startup(): Warning: I_MPI_PMI_LIBRARY will be ignored since the hydra process manager was found
MPI startup(): Warning: I_MPI_PMI_LIBRARY will be ignored since the hydra process manager was found
MPI startup(): Warning: I_MPI_PMI_LIBRARY will be ignored since the hydra process manager was found
MPI startup(): Warning: I_MPI_PMI_LIBRARY will be ignored since the hydra process manager was found
MPI startup(): Warning: I_MPI_PMI_LIBRARY will be ignored since the hydra process manager was found
MPI startup(): Warning: I_MPI_PMI_LIBRARY will be ignored since the hydra process manager was found
MPI startup(): Warning: I_MPI_PMI_LIBRARY will be ignored since the hydra process manager was found
MPI startup(): Warning: I_MPI_PMI_LIBRARY will be ignored since the hydra process manager was found
MPI startup(): Warning: I_MPI_PMI_LIBRARY will be ignored since the hydra process manager was found
MPI startup(): Warning: I_MPI_PMI_LIBRARY will be ignored since the hydra process manager was found
MPI startup(): Warning: I_MPI_PMI_LIBRARY will be ignored since the hydra process manager was found
MPI startup(): Warning: I_MPI_PMI_LIBRARY will be ignored since the hydra process manager was found
MPI startup(): Warning: I_MPI_PMI_LIBRARY will be ignored since the hydra process manager was found

     Program PWSCF v.6.7MaX starts on  1Aug2021 at 12:40:47 

     This program is part of the open-source Quantum ESPRESSO suite
     for quantum simulation of materials; please cite
         "P. Giannozzi et al., J. Phys.:Condens. Matter 21 395502 (2009);
         "P. Giannozzi et al., J. Phys.:Condens. Matter 29 465901 (2017);
          URL http://www.quantum-espresso.org", 
     in publications or presentations arising from this work. More details at
     http://www.quantum-espresso.org/quote

     Parallel version (MPI), running on    24 processors

     MPI processes distributed on     1 nodes
     R & G space division:  proc/nbgrp/npool/nimage =      24
     Waiting for input...
     Reading input from standard input

     Current dimensions of program PWSCF are:
     Max number of different atomic species (ntypx) = 10
     Max number of k-points (npk) =  40000
     Max angular momentum in pseudopotentials (lmaxx) =  3
     file Cr.rel-pbe-spn-kjpaw_psl.1.0.0.UPF: wavefunction(s)  3S 3P 3P 3D 3D renormalized
     file Si.rel-pbe-n-kjpaw_psl.1.0.0.UPF: wavefunction(s)  3S 3P 3P renormalized

     Subspace diagonalization in iterative solution of the eigenvalue problem:
     a serial algorithm will be used

     Message from routine setup:
     using ibrav=0 with symmetry is DISCOURAGED, use correct ibrav instead
 
     Parallelization info
     --------------------
     sticks:   dense  smooth     PW     G-vecs:    dense   smooth      PW
     Min         228      91     25                12702     3210     487
     Max         229      93     26                12704     3214     492
     Sum        5473    2201    621               304867    77053   11753
 


     bravais-lattice index     =            0
     lattice parameter (alat)  =       8.7475  a.u.
     unit-cell volume          =     669.3575 (a.u.)^3
     number of atoms/cell      =            8
     number of atomic types    =            2
     number of electrons       =        72.00
     number of Kohn-Sham states=           86
     kinetic-energy cutoff     =      90.0000  Ry
     charge density cutoff     =     900.0000  Ry
     scf convergence threshold =      1.0E-06
     mixing beta               =       0.7000
     number of iterations used =            8  plain     mixing
     Exchange-correlation= SLA  PW   PBX  PBC
                           (   1   4   3   4   0   0   0)
     Non magnetic calculation with spin-orbit


     celldm(1)=   8.747542  celldm(2)=   0.000000  celldm(3)=   0.000000
     celldm(4)=   0.000000  celldm(5)=   0.000000  celldm(6)=   0.000000

     crystal axes: (cart. coord. in units of alat)
               a(1) = (   1.000000   0.000000   0.000000 )  
               a(2) = (   0.000000   1.000000   0.000000 )  
               a(3) = (   0.000000   0.000000   1.000000 )  

     reciprocal axes: (cart. coord. in units 2 pi/alat)
               b(1) = (  1.000000  0.000000  0.000000 )  
               b(2) = (  0.000000  1.000000  0.000000 )  
               b(3) = (  0.000000  0.000000  1.000000 )  


     PseudoPot. # 1 for Cr read from file:
     ../../../../pseudo/Cr.rel-pbe-spn-kjpaw_psl.1.0.0.UPF
     MD5 check sum: 1e24e2b5251376a8b945118fca0c7981
     Pseudo is Projector augmented-wave + core cor, Zval = 14.0
     Generated using &quot;atomic&quot; code by A. Dal Corso  v.6.3
     Shape of augmentation charge: PSQ
     Using radial grid of 1183 points, 10 beta functions with: 
                l(1) =   0
                l(2) =   0
                l(3) =   1
                l(4) =   1
                l(5) =   1
                l(6) =   1
                l(7) =   2
                l(8) =   2
                l(9) =   2
               l(10) =   2
     Q(r) pseudized with 0 coefficients 


     PseudoPot. # 2 for Si read from file:
     ../../../../pseudo/Si.rel-pbe-n-kjpaw_psl.1.0.0.UPF
     MD5 check sum: d74f6caf6830ea4c2076867160cab1b0
     Pseudo is Projector augmented-wave + core cor, Zval =  4.0
     Generated using &quot;atomic&quot; code by A. Dal Corso  v.6.3
     Shape of augmentation charge: PSQ
     Using radial grid of 1141 points, 10 beta functions with: 
                l(1) =   0
                l(2) =   0
                l(3) =   1
                l(4) =   1
                l(5) =   1
                l(6) =   1
                l(7) =   2
                l(8) =   2
                l(9) =   2
               l(10) =   2
     Q(r) pseudized with 0 coefficients 


     atomic species   valence    mass     pseudopotential
        Cr            14.00    51.99600     Cr( 1.00)
        Si             4.00    28.08500     Si( 1.00)

     12 Sym. Ops. (no inversion) found ( 9 have fractional translation)


                                    s                        frac. trans.

      isym =  1     identity                                     

 cryst.   s( 1) = (     1          0          0      )
                  (     0          1          0      )
                  (     0          0          1      )

 cart.    s( 1) = (  1.0000000  0.0000000  0.0000000 )
                  (  0.0000000  1.0000000  0.0000000 )
                  (  0.0000000  0.0000000  1.0000000 )


      isym =  2     180 deg rotation - cart. axis [0,0,1]        

 cryst.   s( 2) = (    -1          0          0      )    f =(  0.5000000 )
                  (     0         -1          0      )       (  0.0000000 )
                  (     0          0          1      )       ( -0.5000000 )

 cart.    s( 2) = ( -1.0000000  0.0000000  0.0000000 )    f =(  0.5000000 )
                  (  0.0000000 -1.0000000  0.0000000 )       (  0.0000000 )
                  (  0.0000000  0.0000000  1.0000000 )       ( -0.5000000 )


      isym =  3     180 deg rotation - cart. axis [0,1,0]        

 cryst.   s( 3) = (    -1          0          0      )    f =(  0.0000000 )
                  (     0          1          0      )       ( -0.5000000 )
                  (     0          0         -1      )       (  0.5000000 )

 cart.    s( 3) = ( -1.0000000  0.0000000  0.0000000 )    f =(  0.0000000 )
                  (  0.0000000  1.0000000  0.0000000 )       ( -0.5000000 )
                  (  0.0000000  0.0000000 -1.0000000 )       (  0.5000000 )


      isym =  4     180 deg rotation - cart. axis [1,0,0]        

 cryst.   s( 4) = (     1          0          0      )    f =(  0.5000000 )
                  (     0         -1          0      )       (  0.5000000 )
                  (     0          0         -1      )       (  0.0000000 )

 cart.    s( 4) = (  1.0000000  0.0000000  0.0000000 )    f =(  0.5000000 )
                  (  0.0000000 -1.0000000  0.0000000 )       (  0.5000000 )
                  (  0.0000000  0.0000000 -1.0000000 )       (  0.0000000 )


      isym =  5     120 deg rotation - cart. axis [-1,-1,-1]     

 cryst.   s( 5) = (     0          0          1      )
                  (     1          0          0      )
                  (     0          1          0      )

 cart.    s( 5) = (  0.0000000  1.0000000  0.0000000 )
                  (  0.0000000  0.0000000  1.0000000 )
                  (  1.0000000  0.0000000  0.0000000 )


      isym =  6     120 deg rotation - cart. axis [-1,1,1]       

 cryst.   s( 6) = (     0          0         -1      )    f =(  0.0000000 )
                  (    -1          0          0      )       ( -0.5000000 )
                  (     0          1          0      )       (  0.5000000 )

 cart.    s( 6) = (  0.0000000 -1.0000000  0.0000000 )    f =(  0.0000000 )
                  (  0.0000000  0.0000000  1.0000000 )       ( -0.5000000 )
                  ( -1.0000000  0.0000000  0.0000000 )       (  0.5000000 )


      isym =  7     120 deg rotation - cart. axis [1,1,-1]       

 cryst.   s( 7) = (     0          0         -1      )    f =(  0.5000000 )
                  (     1          0          0      )       (  0.5000000 )
                  (     0         -1          0      )       (  0.0000000 )

 cart.    s( 7) = (  0.0000000  1.0000000  0.0000000 )    f =(  0.5000000 )
                  (  0.0000000  0.0000000 -1.0000000 )       (  0.5000000 )
                  ( -1.0000000  0.0000000  0.0000000 )       (  0.0000000 )


      isym =  8     120 deg rotation - cart. axis [1,-1,1]       

 cryst.   s( 8) = (     0          0          1      )    f =(  0.5000000 )
                  (    -1          0          0      )       (  0.0000000 )
                  (     0         -1          0      )       ( -0.5000000 )

 cart.    s( 8) = (  0.0000000 -1.0000000  0.0000000 )    f =(  0.5000000 )
                  (  0.0000000  0.0000000 -1.0000000 )       (  0.0000000 )
                  (  1.0000000  0.0000000  0.0000000 )       ( -0.5000000 )


      isym =  9     120 deg rotation - cart. axis [1,1,1]        

 cryst.   s( 9) = (     0          1          0      )
                  (     0          0          1      )
                  (     1          0          0      )

 cart.    s( 9) = (  0.0000000  0.0000000  1.0000000 )
                  (  1.0000000  0.0000000  0.0000000 )
                  (  0.0000000  1.0000000  0.0000000 )


      isym = 10     120 deg rotation - cart. axis [-1,1,-1]      

 cryst.   s(10) = (     0         -1          0      )    f =(  0.5000000 )
                  (     0          0         -1      )       (  0.5000000 )
                  (     1          0          0      )       (  0.0000000 )

 cart.    s(10) = (  0.0000000  0.0000000  1.0000000 )    f =(  0.5000000 )
                  ( -1.0000000  0.0000000  0.0000000 )       (  0.5000000 )
                  (  0.0000000 -1.0000000  0.0000000 )       (  0.0000000 )


      isym = 11     120 deg rotation - cart. axis [1,-1,-1]      

 cryst.   s(11) = (     0         -1          0      )    f =(  0.5000000 )
                  (     0          0          1      )       (  0.0000000 )
                  (    -1          0          0      )       ( -0.5000000 )

 cart.    s(11) = (  0.0000000  0.0000000 -1.0000000 )    f =(  0.5000000 )
                  ( -1.0000000  0.0000000  0.0000000 )       (  0.0000000 )
                  (  0.0000000  1.0000000  0.0000000 )       ( -0.5000000 )


      isym = 12     120 deg rotation - cart. axis [-1,-1,1]      

 cryst.   s(12) = (     0          1          0      )    f =(  0.0000000 )
                  (     0          0         -1      )       ( -0.5000000 )
                  (    -1          0          0      )       (  0.5000000 )

 cart.    s(12) = (  0.0000000  0.0000000 -1.0000000 )    f =(  0.0000000 )
                  (  1.0000000  0.0000000  0.0000000 )       ( -0.5000000 )
                  (  0.0000000 -1.0000000  0.0000000 )       (  0.5000000 )


   Cartesian axes

     site n.     atom                  positions (alat units)
         1           Cr  tau(   1) = (   0.8640000   0.3640000   0.1360000  )
         2           Cr  tau(   2) = (   0.3640000   0.1360000   0.8640000  )
         3           Cr  tau(   3) = (   0.1360000   0.8640000   0.3640000  )
         4           Cr  tau(   4) = (   0.6360000   0.6360000   0.6360000  )
         5           Si  tau(   5) = (   0.1540000   0.6540000   0.8460000  )
         6           Si  tau(   6) = (   0.6540000   0.8460000   0.1540000  )
         7           Si  tau(   7) = (   0.8460000   0.1540000   0.6540000  )
         8           Si  tau(   8) = (   0.3460000   0.3460000   0.3460000  )

   Crystallographic axes

     site n.     atom                  positions (cryst. coord.)
         1           Cr  tau(   1) = (  0.8640000  0.3640000  0.1360000  )
         2           Cr  tau(   2) = (  0.3640000  0.1360000  0.8640000  )
         3           Cr  tau(   3) = (  0.1360000  0.8640000  0.3640000  )
         4           Cr  tau(   4) = (  0.6360000  0.6360000  0.6360000  )
         5           Si  tau(   5) = (  0.1540000  0.6540000  0.8460000  )
         6           Si  tau(   6) = (  0.6540000  0.8460000  0.1540000  )
         7           Si  tau(   7) = (  0.8460000  0.1540000  0.6540000  )
         8           Si  tau(   8) = (  0.3460000  0.3460000  0.3460000  )

     number of k points=   119  Methfessel-Paxton smearing, width (Ry)=  0.0180
                       cart. coord. in units 2pi/alat
        k(    1) = (   0.0000000   0.0000000   0.0000000), wk =   0.0005787
        k(    2) = (   0.0000000   0.0000000   0.0833333), wk =   0.0034722
        k(    3) = (   0.0000000   0.0000000   0.1666667), wk =   0.0034722
        k(    4) = (   0.0000000   0.0000000   0.2500000), wk =   0.0034722
        k(    5) = (   0.0000000   0.0000000   0.3333333), wk =   0.0034722
        k(    6) = (   0.0000000   0.0000000   0.4166667), wk =   0.0034722
        k(    7) = (   0.0000000   0.0000000  -0.5000000), wk =   0.0017361
        k(    8) = (   0.0000000   0.0833333   0.0833333), wk =   0.0069444
        k(    9) = (   0.0000000   0.0833333   0.1666667), wk =   0.0069444
        k(   10) = (   0.0000000   0.0833333   0.2500000), wk =   0.0069444
        k(   11) = (   0.0000000   0.0833333   0.3333333), wk =   0.0069444
        k(   12) = (   0.0000000   0.0833333   0.4166667), wk =   0.0069444
        k(   13) = (   0.0000000   0.0833333  -0.5000000), wk =   0.0034722
        k(   14) = (   0.0000000   0.1666667   0.1666667), wk =   0.0069444
        k(   15) = (   0.0000000   0.1666667   0.2500000), wk =   0.0069444
        k(   16) = (   0.0000000   0.1666667   0.3333333), wk =   0.0069444
        k(   17) = (   0.0000000   0.1666667   0.4166667), wk =   0.0069444
        k(   18) = (   0.0000000   0.1666667  -0.5000000), wk =   0.0034722
        k(   19) = (   0.0000000   0.2500000   0.2500000), wk =   0.0069444
        k(   20) = (   0.0000000   0.2500000   0.3333333), wk =   0.0069444
        k(   21) = (   0.0000000   0.2500000   0.4166667), wk =   0.0069444
        k(   22) = (   0.0000000   0.2500000  -0.5000000), wk =   0.0034722
        k(   23) = (   0.0000000   0.3333333   0.3333333), wk =   0.0069444
        k(   24) = (   0.0000000   0.3333333   0.4166667), wk =   0.0069444
        k(   25) = (   0.0000000   0.3333333  -0.5000000), wk =   0.0034722
        k(   26) = (   0.0000000   0.4166667   0.4166667), wk =   0.0069444
        k(   27) = (   0.0000000   0.4166667  -0.5000000), wk =   0.0034722
        k(   28) = (   0.0000000  -0.5000000  -0.5000000), wk =   0.0017361
        k(   29) = (   0.0833333   0.0833333   0.0833333), wk =   0.0046296
        k(   30) = (   0.0833333   0.0833333   0.1666667), wk =   0.0138889
        k(   31) = (   0.0833333   0.0833333   0.2500000), wk =   0.0138889
        k(   32) = (   0.0833333   0.0833333   0.3333333), wk =   0.0138889
        k(   33) = (   0.0833333   0.0833333   0.4166667), wk =   0.0138889
        k(   34) = (   0.0833333   0.0833333  -0.5000000), wk =   0.0069444
        k(   35) = (   0.0833333   0.1666667   0.1666667), wk =   0.0138889
        k(   36) = (   0.0833333   0.1666667   0.2500000), wk =   0.0138889
        k(   37) = (   0.0833333   0.1666667   0.3333333), wk =   0.0138889
        k(   38) = (   0.0833333   0.1666667   0.4166667), wk =   0.0138889
        k(   39) = (   0.0833333   0.1666667  -0.5000000), wk =   0.0069444
        k(   40) = (   0.0833333   0.2500000   0.2500000), wk =   0.0138889
        k(   41) = (   0.0833333   0.2500000   0.3333333), wk =   0.0138889
        k(   42) = (   0.0833333   0.2500000   0.4166667), wk =   0.0138889
        k(   43) = (   0.0833333   0.2500000  -0.5000000), wk =   0.0069444
        k(   44) = (   0.0833333   0.3333333   0.3333333), wk =   0.0138889
        k(   45) = (   0.0833333   0.3333333   0.4166667), wk =   0.0138889
        k(   46) = (   0.0833333   0.3333333  -0.5000000), wk =   0.0069444
        k(   47) = (   0.0833333   0.4166667   0.4166667), wk =   0.0138889
        k(   48) = (   0.0833333   0.4166667  -0.5000000), wk =   0.0069444
        k(   49) = (   0.0833333  -0.5000000  -0.5000000), wk =   0.0034722
        k(   50) = (   0.1666667   0.1666667   0.1666667), wk =   0.0046296
        k(   51) = (   0.1666667   0.1666667   0.2500000), wk =   0.0138889
        k(   52) = (   0.1666667   0.1666667   0.3333333), wk =   0.0138889
        k(   53) = (   0.1666667   0.1666667   0.4166667), wk =   0.0138889
        k(   54) = (   0.1666667   0.1666667  -0.5000000), wk =   0.0069444
        k(   55) = (   0.1666667   0.2500000   0.2500000), wk =   0.0138889
        k(   56) = (   0.1666667   0.2500000   0.3333333), wk =   0.0138889
        k(   57) = (   0.1666667   0.2500000   0.4166667), wk =   0.0138889
        k(   58) = (   0.1666667   0.2500000  -0.5000000), wk =   0.0069444
        k(   59) = (   0.1666667   0.3333333   0.3333333), wk =   0.0138889
        k(   60) = (   0.1666667   0.3333333   0.4166667), wk =   0.0138889
        k(   61) = (   0.1666667   0.3333333  -0.5000000), wk =   0.0069444
        k(   62) = (   0.1666667   0.4166667   0.4166667), wk =   0.0138889
        k(   63) = (   0.1666667   0.4166667  -0.5000000), wk =   0.0069444
        k(   64) = (   0.1666667  -0.5000000  -0.5000000), wk =   0.0034722
        k(   65) = (   0.2500000   0.2500000   0.2500000), wk =   0.0046296
        k(   66) = (   0.2500000   0.2500000   0.3333333), wk =   0.0138889
        k(   67) = (   0.2500000   0.2500000   0.4166667), wk =   0.0138889
        k(   68) = (   0.2500000   0.2500000  -0.5000000), wk =   0.0069444
        k(   69) = (   0.2500000   0.3333333   0.3333333), wk =   0.0138889
        k(   70) = (   0.2500000   0.3333333   0.4166667), wk =   0.0138889
        k(   71) = (   0.2500000   0.3333333  -0.5000000), wk =   0.0069444
        k(   72) = (   0.2500000   0.4166667   0.4166667), wk =   0.0138889
        k(   73) = (   0.2500000   0.4166667  -0.5000000), wk =   0.0069444
        k(   74) = (   0.2500000  -0.5000000  -0.5000000), wk =   0.0034722
        k(   75) = (   0.3333333   0.3333333   0.3333333), wk =   0.0046296
        k(   76) = (   0.3333333   0.3333333   0.4166667), wk =   0.0138889
        k(   77) = (   0.3333333   0.3333333  -0.5000000), wk =   0.0069444
        k(   78) = (   0.3333333   0.4166667   0.4166667), wk =   0.0138889
        k(   79) = (   0.3333333   0.4166667  -0.5000000), wk =   0.0069444
        k(   80) = (   0.3333333  -0.5000000  -0.5000000), wk =   0.0034722
        k(   81) = (   0.4166667   0.4166667   0.4166667), wk =   0.0046296
        k(   82) = (   0.4166667   0.4166667  -0.5000000), wk =   0.0069444
        k(   83) = (   0.4166667  -0.5000000  -0.5000000), wk =   0.0034722
        k(   84) = (  -0.5000000  -0.5000000  -0.5000000), wk =   0.0005787
        k(   85) = (   0.0000000   0.1666667   0.0833333), wk =   0.0069444
        k(   86) = (   0.0000000   0.2500000   0.0833333), wk =   0.0069444
        k(   87) = (   0.0000000   0.3333333   0.0833333), wk =   0.0069444
        k(   88) = (   0.0000000   0.4166667   0.0833333), wk =   0.0069444
        k(   89) = (   0.0000000  -0.5000000   0.0833333), wk =   0.0034722
        k(   90) = (   0.0000000   0.2500000   0.1666667), wk =   0.0069444
        k(   91) = (   0.0000000   0.3333333   0.1666667), wk =   0.0069444
        k(   92) = (   0.0000000   0.4166667   0.1666667), wk =   0.0069444
        k(   93) = (   0.0000000  -0.5000000   0.1666667), wk =   0.0034722
        k(   94) = (   0.0000000   0.3333333   0.2500000), wk =   0.0069444
        k(   95) = (   0.0000000   0.4166667   0.2500000), wk =   0.0069444
        k(   96) = (   0.0000000  -0.5000000   0.2500000), wk =   0.0034722
        k(   97) = (   0.0000000   0.4166667   0.3333333), wk =   0.0069444
        k(   98) = (   0.0000000  -0.5000000   0.3333333), wk =   0.0034722
        k(   99) = (   0.0000000  -0.5000000   0.4166667), wk =   0.0034722
        k(  100) = (  -0.0833333   0.2500000   0.1666667), wk =   0.0138889
        k(  101) = (  -0.0833333   0.3333333   0.1666667), wk =   0.0138889
        k(  102) = (  -0.0833333   0.4166667   0.1666667), wk =   0.0138889
        k(  103) = (  -0.0833333  -0.5000000   0.1666667), wk =   0.0069444
        k(  104) = (  -0.0833333   0.3333333   0.2500000), wk =   0.0138889
        k(  105) = (  -0.0833333   0.4166667   0.2500000), wk =   0.0138889
        k(  106) = (  -0.0833333  -0.5000000   0.2500000), wk =   0.0069444
        k(  107) = (  -0.0833333   0.4166667   0.3333333), wk =   0.0138889
        k(  108) = (  -0.0833333  -0.5000000   0.3333333), wk =   0.0069444
        k(  109) = (  -0.0833333  -0.5000000   0.4166667), wk =   0.0069444
        k(  110) = (  -0.1666667   0.3333333   0.2500000), wk =   0.0138889
        k(  111) = (  -0.1666667   0.4166667   0.2500000), wk =   0.0138889
        k(  112) = (  -0.1666667  -0.5000000   0.2500000), wk =   0.0069444
        k(  113) = (  -0.1666667   0.4166667   0.3333333), wk =   0.0138889
        k(  114) = (  -0.1666667  -0.5000000   0.3333333), wk =   0.0069444
        k(  115) = (  -0.1666667  -0.5000000   0.4166667), wk =   0.0069444
        k(  116) = (  -0.2500000   0.4166667   0.3333333), wk =   0.0138889
        k(  117) = (  -0.2500000  -0.5000000   0.3333333), wk =   0.0069444
        k(  118) = (  -0.2500000  -0.5000000   0.4166667), wk =   0.0069444
        k(  119) = (  -0.3333333  -0.5000000   0.4166667), wk =   0.0069444

                       cryst. coord.
        k(    1) = (   0.0000000   0.0000000   0.0000000), wk =   0.0005787
        k(    2) = (   0.0000000   0.0000000   0.0833333), wk =   0.0034722
        k(    3) = (   0.0000000   0.0000000   0.1666667), wk =   0.0034722
        k(    4) = (   0.0000000   0.0000000   0.2500000), wk =   0.0034722
        k(    5) = (   0.0000000   0.0000000   0.3333333), wk =   0.0034722
        k(    6) = (   0.0000000   0.0000000   0.4166667), wk =   0.0034722
        k(    7) = (   0.0000000   0.0000000  -0.5000000), wk =   0.0017361
        k(    8) = (   0.0000000   0.0833333   0.0833333), wk =   0.0069444
        k(    9) = (   0.0000000   0.0833333   0.1666667), wk =   0.0069444
        k(   10) = (   0.0000000   0.0833333   0.2500000), wk =   0.0069444
        k(   11) = (   0.0000000   0.0833333   0.3333333), wk =   0.0069444
        k(   12) = (   0.0000000   0.0833333   0.4166667), wk =   0.0069444
        k(   13) = (   0.0000000   0.0833333  -0.5000000), wk =   0.0034722
        k(   14) = (   0.0000000   0.1666667   0.1666667), wk =   0.0069444
        k(   15) = (   0.0000000   0.1666667   0.2500000), wk =   0.0069444
        k(   16) = (   0.0000000   0.1666667   0.3333333), wk =   0.0069444
        k(   17) = (   0.0000000   0.1666667   0.4166667), wk =   0.0069444
        k(   18) = (   0.0000000   0.1666667  -0.5000000), wk =   0.0034722
        k(   19) = (   0.0000000   0.2500000   0.2500000), wk =   0.0069444
        k(   20) = (   0.0000000   0.2500000   0.3333333), wk =   0.0069444
        k(   21) = (   0.0000000   0.2500000   0.4166667), wk =   0.0069444
        k(   22) = (   0.0000000   0.2500000  -0.5000000), wk =   0.0034722
        k(   23) = (   0.0000000   0.3333333   0.3333333), wk =   0.0069444
        k(   24) = (   0.0000000   0.3333333   0.4166667), wk =   0.0069444
        k(   25) = (   0.0000000   0.3333333  -0.5000000), wk =   0.0034722
        k(   26) = (   0.0000000   0.4166667   0.4166667), wk =   0.0069444
        k(   27) = (   0.0000000   0.4166667  -0.5000000), wk =   0.0034722
        k(   28) = (   0.0000000  -0.5000000  -0.5000000), wk =   0.0017361
        k(   29) = (   0.0833333   0.0833333   0.0833333), wk =   0.0046296
        k(   30) = (   0.0833333   0.0833333   0.1666667), wk =   0.0138889
        k(   31) = (   0.0833333   0.0833333   0.2500000), wk =   0.0138889
        k(   32) = (   0.0833333   0.0833333   0.3333333), wk =   0.0138889
        k(   33) = (   0.0833333   0.0833333   0.4166667), wk =   0.0138889
        k(   34) = (   0.0833333   0.0833333  -0.5000000), wk =   0.0069444
        k(   35) = (   0.0833333   0.1666667   0.1666667), wk =   0.0138889
        k(   36) = (   0.0833333   0.1666667   0.2500000), wk =   0.0138889
        k(   37) = (   0.0833333   0.1666667   0.3333333), wk =   0.0138889
        k(   38) = (   0.0833333   0.1666667   0.4166667), wk =   0.0138889
        k(   39) = (   0.0833333   0.1666667  -0.5000000), wk =   0.0069444
        k(   40) = (   0.0833333   0.2500000   0.2500000), wk =   0.0138889
        k(   41) = (   0.0833333   0.2500000   0.3333333), wk =   0.0138889
        k(   42) = (   0.0833333   0.2500000   0.4166667), wk =   0.0138889
        k(   43) = (   0.0833333   0.2500000  -0.5000000), wk =   0.0069444
        k(   44) = (   0.0833333   0.3333333   0.3333333), wk =   0.0138889
        k(   45) = (   0.0833333   0.3333333   0.4166667), wk =   0.0138889
        k(   46) = (   0.0833333   0.3333333  -0.5000000), wk =   0.0069444
        k(   47) = (   0.0833333   0.4166667   0.4166667), wk =   0.0138889
        k(   48) = (   0.0833333   0.4166667  -0.5000000), wk =   0.0069444
        k(   49) = (   0.0833333  -0.5000000  -0.5000000), wk =   0.0034722
        k(   50) = (   0.1666667   0.1666667   0.1666667), wk =   0.0046296
        k(   51) = (   0.1666667   0.1666667   0.2500000), wk =   0.0138889
        k(   52) = (   0.1666667   0.1666667   0.3333333), wk =   0.0138889
        k(   53) = (   0.1666667   0.1666667   0.4166667), wk =   0.0138889
        k(   54) = (   0.1666667   0.1666667  -0.5000000), wk =   0.0069444
        k(   55) = (   0.1666667   0.2500000   0.2500000), wk =   0.0138889
        k(   56) = (   0.1666667   0.2500000   0.3333333), wk =   0.0138889
        k(   57) = (   0.1666667   0.2500000   0.4166667), wk =   0.0138889
        k(   58) = (   0.1666667   0.2500000  -0.5000000), wk =   0.0069444
        k(   59) = (   0.1666667   0.3333333   0.3333333), wk =   0.0138889
        k(   60) = (   0.1666667   0.3333333   0.4166667), wk =   0.0138889
        k(   61) = (   0.1666667   0.3333333  -0.5000000), wk =   0.0069444
        k(   62) = (   0.1666667   0.4166667   0.4166667), wk =   0.0138889
        k(   63) = (   0.1666667   0.4166667  -0.5000000), wk =   0.0069444
        k(   64) = (   0.1666667  -0.5000000  -0.5000000), wk =   0.0034722
        k(   65) = (   0.2500000   0.2500000   0.2500000), wk =   0.0046296
        k(   66) = (   0.2500000   0.2500000   0.3333333), wk =   0.0138889
        k(   67) = (   0.2500000   0.2500000   0.4166667), wk =   0.0138889
        k(   68) = (   0.2500000   0.2500000  -0.5000000), wk =   0.0069444
        k(   69) = (   0.2500000   0.3333333   0.3333333), wk =   0.0138889
        k(   70) = (   0.2500000   0.3333333   0.4166667), wk =   0.0138889
        k(   71) = (   0.2500000   0.3333333  -0.5000000), wk =   0.0069444
        k(   72) = (   0.2500000   0.4166667   0.4166667), wk =   0.0138889
        k(   73) = (   0.2500000   0.4166667  -0.5000000), wk =   0.0069444
        k(   74) = (   0.2500000  -0.5000000  -0.5000000), wk =   0.0034722
        k(   75) = (   0.3333333   0.3333333   0.3333333), wk =   0.0046296
        k(   76) = (   0.3333333   0.3333333   0.4166667), wk =   0.0138889
        k(   77) = (   0.3333333   0.3333333  -0.5000000), wk =   0.0069444
        k(   78) = (   0.3333333   0.4166667   0.4166667), wk =   0.0138889
        k(   79) = (   0.3333333   0.4166667  -0.5000000), wk =   0.0069444
        k(   80) = (   0.3333333  -0.5000000  -0.5000000), wk =   0.0034722
        k(   81) = (   0.4166667   0.4166667   0.4166667), wk =   0.0046296
        k(   82) = (   0.4166667   0.4166667  -0.5000000), wk =   0.0069444
        k(   83) = (   0.4166667  -0.5000000  -0.5000000), wk =   0.0034722
        k(   84) = (  -0.5000000  -0.5000000  -0.5000000), wk =   0.0005787
        k(   85) = (   0.0000000   0.1666667   0.0833333), wk =   0.0069444
        k(   86) = (   0.0000000   0.2500000   0.0833333), wk =   0.0069444
        k(   87) = (   0.0000000   0.3333333   0.0833333), wk =   0.0069444
        k(   88) = (   0.0000000   0.4166667   0.0833333), wk =   0.0069444
        k(   89) = (   0.0000000  -0.5000000   0.0833333), wk =   0.0034722
        k(   90) = (   0.0000000   0.2500000   0.1666667), wk =   0.0069444
        k(   91) = (   0.0000000   0.3333333   0.1666667), wk =   0.0069444
        k(   92) = (   0.0000000   0.4166667   0.1666667), wk =   0.0069444
        k(   93) = (   0.0000000  -0.5000000   0.1666667), wk =   0.0034722
        k(   94) = (   0.0000000   0.3333333   0.2500000), wk =   0.0069444
        k(   95) = (   0.0000000   0.4166667   0.2500000), wk =   0.0069444
        k(   96) = (   0.0000000  -0.5000000   0.2500000), wk =   0.0034722
        k(   97) = (   0.0000000   0.4166667   0.3333333), wk =   0.0069444
        k(   98) = (   0.0000000  -0.5000000   0.3333333), wk =   0.0034722
        k(   99) = (   0.0000000  -0.5000000   0.4166667), wk =   0.0034722
        k(  100) = (  -0.0833333   0.2500000   0.1666667), wk =   0.0138889
        k(  101) = (  -0.0833333   0.3333333   0.1666667), wk =   0.0138889
        k(  102) = (  -0.0833333   0.4166667   0.1666667), wk =   0.0138889
        k(  103) = (  -0.0833333  -0.5000000   0.1666667), wk =   0.0069444
        k(  104) = (  -0.0833333   0.3333333   0.2500000), wk =   0.0138889
        k(  105) = (  -0.0833333   0.4166667   0.2500000), wk =   0.0138889
        k(  106) = (  -0.0833333  -0.5000000   0.2500000), wk =   0.0069444
        k(  107) = (  -0.0833333   0.4166667   0.3333333), wk =   0.0138889
        k(  108) = (  -0.0833333  -0.5000000   0.3333333), wk =   0.0069444
        k(  109) = (  -0.0833333  -0.5000000   0.4166667), wk =   0.0069444
        k(  110) = (  -0.1666667   0.3333333   0.2500000), wk =   0.0138889
        k(  111) = (  -0.1666667   0.4166667   0.2500000), wk =   0.0138889
        k(  112) = (  -0.1666667  -0.5000000   0.2500000), wk =   0.0069444
        k(  113) = (  -0.1666667   0.4166667   0.3333333), wk =   0.0138889
        k(  114) = (  -0.1666667  -0.5000000   0.3333333), wk =   0.0069444
        k(  115) = (  -0.1666667  -0.5000000   0.4166667), wk =   0.0069444
        k(  116) = (  -0.2500000   0.4166667   0.3333333), wk =   0.0138889
        k(  117) = (  -0.2500000  -0.5000000   0.3333333), wk =   0.0069444
        k(  118) = (  -0.2500000  -0.5000000   0.4166667), wk =   0.0069444
        k(  119) = (  -0.3333333  -0.5000000   0.4166667), wk =   0.0069444

     Dense  grid:   304867 G-vectors     FFT dimensions: (  90,  90,  90)

     Smooth grid:    77053 G-vectors     FFT dimensions: (  54,  54,  54)

     Dynamical RAM for                 wfc:       1.06 MB

     Dynamical RAM for     wfc (w. buffer):     126.61 MB

     Dynamical RAM for           str. fact:       0.39 MB

     Dynamical RAM for           local pot:       0.00 MB

     Dynamical RAM for          nlocal pot:       1.67 MB

     Dynamical RAM for                qrad:      12.61 MB

     Dynamical RAM for          rho,v,vnew:       5.29 MB

     Dynamical RAM for               rhoin:       1.76 MB

     Dynamical RAM for            rho*nmix:      12.41 MB

     Dynamical RAM for           G-vectors:       0.75 MB

     Dynamical RAM for          h,s,v(r/c):       1.35 MB

     Dynamical RAM for          <psi|beta>:       0.71 MB

     Dynamical RAM for                 psi:       2.11 MB

     Dynamical RAM for                hpsi:       2.11 MB

     Dynamical RAM for                spsi:       2.11 MB

     Dynamical RAM for      wfcinit/wfcrot:       2.35 MB

     Dynamical RAM for           addusdens:     119.02 MB

     Dynamical RAM for          addusforce:     120.34 MB

     Dynamical RAM for         addusstress:     121.74 MB

     Estimated static dynamical RAM per process >     164.04 MB

     Estimated max dynamical RAM per process >     285.78 MB

     Estimated total dynamical RAM >       6.70 GB

     Initial potential from superposition of free atoms

     starting charge   71.99469, renormalised to   72.00000
     Starting wfcs are  112 randomized atomic wfcs
     Checking if some PAW data can be deallocated... 
       PAW data deallocated on   12 nodes for type:  1
       PAW data deallocated on   12 nodes for type:  2

     total cpu time spent up to now is       20.9 secs

     Self-consistent Calculation

     iteration #  1     ecut=    90.00 Ry     beta= 0.70
     Davidson diagonalization with overlap
     ethr =  1.00E-02,  avg # of iterations =  2.0

     Threshold (ethr) on eigenvalues was too large:
     Diagonalizing with lowered threshold

     Davidson diagonalization with overlap
     ethr =  2.09E-04,  avg # of iterations =  4.3

     total cpu time spent up to now is      132.8 secs

     total energy              =   -1180.30987616 Ry
     estimated scf accuracy    <       0.18907806 Ry

     iteration #  2     ecut=    90.00 Ry     beta= 0.70
     Davidson diagonalization with overlap
     ethr =  2.63E-04,  avg # of iterations =  3.2

     total cpu time spent up to now is      189.3 secs

     total energy              =   -1180.31485326 Ry
     estimated scf accuracy    <       0.08104366 Ry

     iteration #  3     ecut=    90.00 Ry     beta= 0.70
     Davidson diagonalization with overlap
     ethr =  1.13E-04,  avg # of iterations =  5.0

     total cpu time spent up to now is      258.5 secs

     total energy              =   -1180.32612420 Ry
     estimated scf accuracy    <       0.16186025 Ry

     iteration #  4     ecut=    90.00 Ry     beta= 0.70
     Davidson diagonalization with overlap
     ethr =  1.13E-04,  avg # of iterations =  4.1

     total cpu time spent up to now is      314.2 secs

     total energy              =   -1180.34991565 Ry
     estimated scf accuracy    <       0.00031727 Ry

     iteration #  5     ecut=    90.00 Ry     beta= 0.70
     Davidson diagonalization with overlap
     ethr =  4.41E-07,  avg # of iterations =  8.1

     total cpu time spent up to now is      400.7 secs

     total energy              =   -1180.35053509 Ry
     estimated scf accuracy    <       0.00032637 Ry

     iteration #  6     ecut=    90.00 Ry     beta= 0.70
     Davidson diagonalization with overlap
     ethr =  4.41E-07,  avg # of iterations =  2.7

     total cpu time spent up to now is      449.0 secs

     total energy              =   -1180.35058566 Ry
     estimated scf accuracy    <       0.00000525 Ry

     iteration #  7     ecut=    90.00 Ry     beta= 0.70
     Davidson diagonalization with overlap
     ethr =  7.29E-09,  avg # of iterations =  6.2

     total cpu time spent up to now is      523.3 secs

     total energy              =   -1180.35058932 Ry
     estimated scf accuracy    <       0.00003821 Ry

     iteration #  8     ecut=    90.00 Ry     beta= 0.70
     Davidson diagonalization with overlap
     ethr =  7.29E-09,  avg # of iterations =  5.0

     total cpu time spent up to now is      594.2 secs

     End of self-consistent calculation

          k = 0.0000 0.0000 0.0000 (  9771 PWs)   bands (ev):

   -56.5150 -56.5150 -56.4803 -56.4803 -56.4803 -56.4803 -56.4803 -56.4803
   -28.5804 -28.5804 -28.5728 -28.5728 -28.5728 -28.5728 -28.4835 -28.4835
   -27.6150 -27.6150 -27.6150 -27.6150 -27.5383 -27.5383 -27.5383 -27.5383
   -27.5328 -27.5328 -27.4504 -27.4504 -27.4504 -27.4504 -27.4503 -27.4503
     2.6985   2.6985   7.4568   7.4568   7.4568   7.4568   7.4660   7.4660
    10.5369  10.5369  10.5449  10.5449  10.5449  10.5449  11.9114  11.9114
    11.9114  11.9114  11.9225  11.9225  12.6026  12.6026  12.7721  12.7721
    12.7721  12.7721  13.1439  13.1439  13.1439  13.1439  13.1450  13.1450
    13.6719  13.6719  13.6719  13.6719  13.6757  13.6757  15.5520  15.5520
    15.5833  15.5833  15.5833  15.5833  15.7663  15.7663  15.7663  15.7663
    16.6656  16.6656  16.6959  16.6959  16.6959  16.6959

     occupation numbers 
     1.0000   1.0000   1.0000   1.0000   1.0000   1.0000   1.0000   1.0000
     1.0000   1.0000   1.0000   1.0000   1.0000   1.0000   1.0000   1.0000
     1.0000   1.0000   1.0000   1.0000   1.0000   1.0000   1.0000   1.0000
     1.0000   1.0000   1.0000   1.0000   1.0000   1.0000   1.0000   1.0000
     1.0000   1.0000   1.0000   1.0000   1.0000   1.0000   1.0000   1.0000
     1.0000   1.0000   1.0000   1.0000   1.0000   1.0000   1.0000   1.0000
     1.0000   1.0000   1.0000   1.0000   1.0000   1.0000   1.0000   1.0000
     1.0000   1.0000   1.0000   1.0000   1.0000   1.0000   1.0000   1.0000
     1.0000   1.0000   1.0000   1.0000   1.0000   1.0000  -0.0015  -0.0015
    -0.0008  -0.0008  -0.0008  -0.0008  -0.0000  -0.0000  -0.0000  -0.0000
    -0.0000  -0.0000  -0.0000  -0.0000  -0.0000  -0.0000

          k = 0.0000 0.0000 0.0833 (  9699 PWs)   bands (ev):

   -56.5145 -56.5145 -56.4828 -56.4828 -56.4801 -56.4801 -56.4783 -56.4783
   -28.5847 -28.5777 -28.5771 -28.5749 -28.5692 -28.5666 -28.4848 -28.4848
   -27.6244 -27.6197 -27.6092 -27.6045 -27.5442 -27.5423 -27.5385 -27.5343
   -27.5332 -27.5249 -27.4556 -27.4540 -27.4526 -27.4492 -27.4486 -27.4458
     2.7468   2.7468   7.0338   7.0379   7.4856   7.4865   7.8139   7.8219
    10.2171  10.2228  10.5747  10.5757  10.8835  10.8870  11.4919  11.4940
    11.7819  11.7848  12.3540  12.3680  12.5851  12.5877  12.7664  12.7741
    12.8425  12.8427  13.1210  13.1225  13.1620  13.1625  13.1861  13.1866
    13.5509  13.5562  13.6653  13.6661  13.8259  13.8268  15.4680  15.4906
    15.4961  15.4996  15.6797  15.6989  15.7465  15.7553  15.7587  15.7701
    16.5415  16.5606  16.6629  16.6645  16.8149  16.8350

     occupation numbers 
     1.0000   1.0000   1.0000   1.0000   1.0000   1.0000   1.0000   1.0000
     1.0000   1.0000   1.0000   1.0000   1.0000   1.0000   1.0000   1.0000
     1.0000   1.0000   1.0000   1.0000   1.0000   1.0000   1.0000   1.0000
     1.0000   1.0000   1.0000   1.0000   1.0000   1.0000   1.0000   1.0000
     1.0000   1.0000   1.0000   1.0000   1.0000   1.0000   1.0000   1.0000
     1.0000   1.0000   1.0000   1.0000   1.0000   1.0000   1.0000   1.0000
     1.0000   1.0000   1.0000   1.0000   1.0000   1.0000   1.0000   1.0000
     1.0000   1.0000   1.0000   1.0000   1.0000   1.0000   1.0000   1.0000
     1.0000   1.0000   1.0000   1.0000   1.0000   1.0000  -0.0057  -0.0041
    -0.0038  -0.0036  -0.0001  -0.0001  -0.0000  -0.0000  -0.0000  -0.0000
    -0.0000  -0.0000  -0.0000  -0.0000  -0.0000  -0.0000

          k = 0.0000 0.0000 0.1667 (  9663 PWs)   bands (ev):

   -56.5132 -56.5132 -56.4859 -56.4859 -56.4797 -56.4797 -56.4770 -56.4770
   -28.5881 -28.5811 -28.5771 -28.5765 -28.5623 -28.5591 -28.4886 -28.4885
   -27.6318 -27.6238 -27.6018 -27.5941 -27.5506 -27.5451 -27.5404 -27.5320
   -27.5295 -27.5158 -27.4610 -27.4590 -27.4558 -27.4490 -27.4479 -27.4426
     2.8906   2.8906   6.5399   6.5424   7.5629   7.5649   8.1196   8.1289
     9.9480   9.9521  10.6626  10.6651  11.0719  11.0748  11.2872  11.2880
    11.5003  11.5051  12.4493  12.4596  12.7394  12.7617  12.8027  12.8094
    13.0114  13.0147  13.1081  13.1106  13.1972  13.1992  13.2280  13.2283
    13.5318  13.5418  13.6324  13.6350  13.9637  13.9641  15.2940  15.3149
    15.4174  15.4250  15.6931  15.7026  15.7482  15.7667  15.7925  15.8180
    16.4073  16.4228  16.5955  16.6030  16.9908  17.0114

     occupation numbers 
     1.0000   1.0000   1.0000   1.0000   1.0000   1.0000   1.0000   1.0000
     1.0000   1.0000   1.0000   1.0000   1.0000   1.0000   1.0000   1.0000
     1.0000   1.0000   1.0000   1.0000   1.0000   1.0000   1.0000   1.0000
     1.0000   1.0000   1.0000   1.0000   1.0000   1.0000   1.0000   1.0000
     1.0000   1.0000   1.0000   1.0000   1.0000   1.0000   1.0000   1.0000
     1.0000   1.0000   1.0000   1.0000   1.0000   1.0000   1.0000   1.0000
     1.0000   1.0000   1.0000   1.0000   1.0000   1.0000   1.0000   1.0000
     1.0000   1.0000   1.0000   1.0000   1.0000   1.0000   1.0000   1.0000
     1.0000   1.0000   1.0000   1.0000   1.0000   1.0000  -0.0322  -0.0288
    -0.0111  -0.0102  -0.0001  -0.0001  -0.0000  -0.0000  -0.0000  -0.0000
    -0.0000  -0.0000  -0.0000  -0.0000  -0.0000  -0.0000

          k = 0.0000 0.0000 0.2500 (  9618 PWs)   bands (ev):

   -56.5111 -56.5111 -56.4894 -56.4894 -56.4791 -56.4791 -56.4762 -56.4762
   -28.5901 -28.5831 -28.5798 -28.5774 -28.5535 -28.5504 -28.4946 -28.4943
   -27.6368 -27.6277 -27.5929 -27.5855 -27.5571 -27.5456 -27.5373 -27.5332
   -27.5277 -27.5061 -27.4686 -27.4622 -27.4600 -27.4499 -27.4476 -27.4409
     3.1270   3.1270   5.9918   5.9932   7.6895   7.6924   8.3701   8.3802
     9.7440   9.7453  10.7560  10.7612  10.8658  10.8745  11.1951  11.2025
    11.5684  11.5690  12.2655  12.2803  12.8662  12.8729  12.9123  12.9342
    13.1210  13.1249  13.1295  13.1346  13.2515  13.2521  13.2822  13.2862
    13.5441  13.5474  13.6980  13.7055  14.0466  14.0472  15.0732  15.1018
    15.3806  15.3812  15.6175  15.6327  15.7399  15.7642  15.8518  15.8757
    16.2856  16.3003  16.4936  16.5051  17.1873  17.2078

     occupation numbers 
     1.0000   1.0000   1.0000   1.0000   1.0000   1.0000   1.0000   1.0000
     1.0000   1.0000   1.0000   1.0000   1.0000   1.0000   1.0000   1.0000
     1.0000   1.0000   1.0000   1.0000   1.0000   1.0000   1.0000   1.0000
     1.0000   1.0000   1.0000   1.0000   1.0000   1.0000   1.0000   1.0000
     1.0000   1.0000   1.0000   1.0000   1.0000   1.0000   1.0000   1.0000
     1.0000   1.0000   1.0000   1.0000   1.0000   1.0000   1.0000   1.0000
     1.0000   1.0000   1.0000   1.0000   1.0000   1.0000   1.0000   1.0000
     1.0000   1.0000   1.0000   1.0000   1.0000   1.0000   1.0000   1.0000
     1.0000   1.0000   1.0000   1.0000   1.0000   1.0000   0.1374   0.0784
    -0.0168  -0.0167  -0.0004  -0.0003  -0.0000  -0.0000  -0.0000  -0.0000
    -0.0000  -0.0000  -0.0000  -0.0000  -0.0000  -0.0000

          k = 0.0000 0.0000 0.3333 (  9606 PWs)   bands (ev):

   -56.5083 -56.5083 -56.4932 -56.4932 -56.4783 -56.4783 -56.4760 -56.4760
   -28.5907 -28.5839 -28.5828 -28.5790 -28.5435 -28.5409 -28.5025 -28.5020
   -27.6395 -27.6317 -27.5833 -27.5788 -27.5630 -27.5437 -27.5385 -27.5290
   -27.5282 -27.4965 -27.4788 -27.4652 -27.4623 -27.4517 -27.4469 -27.4408
     3.4510   3.4510   5.4200   5.4208   7.8601   7.8641   8.5098   8.5194
     9.6514   9.6530  10.6590  10.6614  10.7715  10.7839  11.0445  11.0474
    11.8627  11.8647  12.1344  12.1501  12.8384  12.8545  12.9331  12.9426
    13.1145  13.1204  13.1700  13.1752  13.2585  13.2614  13.3942  13.3964
    13.4520  13.4542  13.9160  13.9198  14.1178  14.1246  14.8897  14.9238
    15.3582  15.3667  15.5360  15.5544  15.7443  15.7726  15.8547  15.8788
    16.1949  16.2108  16.3708  16.3844  17.3062  17.3223

     occupation numbers 
     1.0000   1.0000   1.0000   1.0000   1.0000   1.0000   1.0000   1.0000
     1.0000   1.0000   1.0000   1.0000   1.0000   1.0000   1.0000   1.0000
     1.0000   1.0000   1.0000   1.0000   1.0000   1.0000   1.0000   1.0000
     1.0000   1.0000   1.0000   1.0000   1.0000   1.0000   1.0000   1.0000
     1.0000   1.0000   1.0000   1.0000   1.0000   1.0000   1.0000   1.0000
     1.0000   1.0000   1.0000   1.0000   1.0000   1.0000   1.0000   1.0000
     1.0000   1.0000   1.0000   1.0000   1.0000   1.0000   1.0000   1.0000
     1.0000   1.0000   1.0000   1.0000   1.0000   1.0000   1.0000   1.0000
     1.0000   1.0000   1.0000   1.0000   1.0000   1.0000   0.7139   0.6034
    -0.0207  -0.0192  -0.0020  -0.0014  -0.0000  -0.0000  -0.0000  -0.0000
    -0.0000  -0.0000  -0.0000  -0.0000  -0.0000  -0.0000

          k = 0.0000 0.0000 0.4167 (  9666 PWs)   bands (ev):

   -56.5049 -56.5049 -56.4972 -56.4972 -56.4775 -56.4775 -56.4762 -56.4762
   -28.5900 -28.5857 -28.5836 -28.5808 -28.5329 -28.5309 -28.5119 -28.5109
   -27.6399 -27.6355 -27.5770 -27.5698 -27.5680 -27.5472 -27.5400 -27.5310
   -27.5172 -27.4908 -27.4873 -27.4715 -27.4604 -27.4543 -27.4455 -27.4419
     3.8550   3.8551   4.8568   4.8572   8.0648   8.0700   8.4633   8.4714
     9.7541   9.7578  10.3456  10.3480  10.7983  10.8116  11.0008  11.0066
    12.1358  12.1377  12.1478  12.1610  12.6967  12.7119  12.8886  12.9003
    13.0766  13.0810  13.1935  13.1959  13.2275  13.2314  13.2807  13.2841
    13.6257  13.6273  13.9012  13.9053  14.3433  14.3624  14.7372  14.7714
    15.3648  15.3791  15.4614  15.4805  15.7692  15.7992  15.8361  15.8630
    16.1486  16.1638  16.2502  16.2641  17.4015  17.4067

     occupation numbers 
     1.0000   1.0000   1.0000   1.0000   1.0000   1.0000   1.0000   1.0000
     1.0000   1.0000   1.0000   1.0000   1.0000   1.0000   1.0000   1.0000
     1.0000   1.0000   1.0000   1.0000   1.0000   1.0000   1.0000   1.0000
     1.0000   1.0000   1.0000   1.0000   1.0000   1.0000   1.0000   1.0000
     1.0000   1.0000   1.0000   1.0000   1.0000   1.0000   1.0000   1.0000
     1.0000   1.0000   1.0000   1.0000   1.0000   1.0000   1.0000   1.0000
     1.0000   1.0000   1.0000   1.0000   1.0000   1.0000   1.0000   1.0000
     1.0000   1.0000   1.0000   1.0000   1.0000   1.0000   1.0000   1.0000
     1.0000   1.0000   1.0000   1.0000   1.0012   1.0017   1.0087   0.9748
    -0.0195  -0.0170  -0.0063  -0.0048  -0.0000  -0.0000  -0.0000  -0.0000
    -0.0000  -0.0000  -0.0000  -0.0000  -0.0000  -0.0000

          k = 0.0000 0.0000-0.5000 (  9658 PWs)   bands (ev):

   -56.5012 -56.5012 -56.5012 -56.5012 -56.4767 -56.4767 -56.4767 -56.4767
   -28.5882 -28.5882 -28.5825 -28.5825 -28.5222 -28.5222 -28.5208 -28.5208
   -27.6384 -27.6384 -27.5729 -27.5729 -27.5580 -27.5580 -27.5353 -27.5353
   -27.5039 -27.5039 -27.4789 -27.4789 -27.4574 -27.4574 -27.4437 -27.4437
     4.3285   4.3285   4.3287   4.3287   8.2825   8.2825   8.2890   8.2890
    10.0169  10.0169  10.0209  10.0209  10.8980  10.8980  10.9092  10.9092
    12.2473  12.2473  12.2539  12.2539  12.6854  12.6854  12.6978  12.6978
    13.1421  13.1421  13.1426  13.1426  13.2374  13.2374  13.2411  13.2411
    13.7828  13.7828  13.7859  13.7859  14.5655  14.5655  14.5940  14.5940
    15.4017  15.4017  15.4195  15.4195  15.8063  15.8063  15.8360  15.8360
    16.1660  16.1660  16.1797  16.1797  17.5424  17.5434

     occupation numbers 
     1.0000   1.0000   1.0000   1.0000   1.0000   1.0000   1.0000   1.0000
     1.0000   1.0000   1.0000   1.0000   1.0000   1.0000   1.0000   1.0000
     1.0000   1.0000   1.0000   1.0000   1.0000   1.0000   1.0000   1.0000
     1.0000   1.0000   1.0000   1.0000   1.0000   1.0000   1.0000   1.0000
     1.0000   1.0000   1.0000   1.0000   1.0000   1.0000   1.0000   1.0000
     1.0000   1.0000   1.0000   1.0000   1.0000   1.0000   1.0000   1.0000
     1.0000   1.0000   1.0000   1.0000   1.0000   1.0000   1.0000   1.0000
     1.0000   1.0000   1.0000   1.0000   1.0000   1.0000   1.0000   1.0000
     1.0000   1.0000   1.0000   1.0000   1.0237   1.0237   1.0290   1.0290
    -0.0134  -0.0134  -0.0109  -0.0109  -0.0000  -0.0000  -0.0000  -0.0000
    -0.0000  -0.0000  -0.0000  -0.0000  -0.0000  -0.0000

          k = 0.0000 0.0833 0.0833 (  9665 PWs)   bands (ev):

   -56.5141 -56.5141 -56.4838 -56.4838 -56.4803 -56.4803 -56.4776 -56.4776
   -28.5864 -28.5798 -28.5760 -28.5743 -28.5676 -28.5640 -28.4860 -28.4860
   -27.6262 -27.6233 -27.6045 -27.6014 -27.5468 -27.5425 -27.5402 -27.5369
   -27.5287 -27.5210 -27.4577 -27.4573 -27.4535 -27.4492 -27.4470 -27.4442
     2.7949   2.7949   6.9084   6.9138   7.3948   7.3978   7.9860   7.9922
    10.1066  10.1122  10.6056  10.6086  10.9967  11.0020  11.2454  11.2468
    11.8529  11.8543  12.3854  12.4012  12.6044  12.6089  12.8118  12.8209
    12.8788  12.8837  13.1332  13.1357  13.1591  13.1625  13.2150  13.2171
    13.5052  13.5098  13.6664  13.6738  13.8931  13.8961  15.4193  15.4297
    15.4860  15.4878  15.6666  15.6801  15.7458  15.7535  15.7661  15.7770
    16.4765  16.4956  16.6697  16.6740  16.8509  16.8758

     occupation numbers 
     1.0000   1.0000   1.0000   1.0000   1.0000   1.0000   1.0000   1.0000
     1.0000   1.0000   1.0000   1.0000   1.0000   1.0000   1.0000   1.0000
     1.0000   1.0000   1.0000   1.0000   1.0000   1.0000   1.0000   1.0000
     1.0000   1.0000   1.0000   1.0000   1.0000   1.0000   1.0000   1.0000
     1.0000   1.0000   1.0000   1.0000   1.0000   1.0000   1.0000   1.0000
     1.0000   1.0000   1.0000   1.0000   1.0000   1.0000   1.0000   1.0000
     1.0000   1.0000   1.0000   1.0000   1.0000   1.0000   1.0000   1.0000
     1.0000   1.0000   1.0000   1.0000   1.0000   1.0000   1.0000   1.0000
     1.0000   1.0000   1.0000   1.0000   1.0000   1.0000  -0.0109  -0.0096
    -0.0044  -0.0043  -0.0002  -0.0001  -0.0000  -0.0000  -0.0000  -0.0000
    -0.0000  -0.0000  -0.0000  -0.0000  -0.0000  -0.0000

          k = 0.0000 0.0833 0.1667 (  9653 PWs)   bands (ev):

   -56.5128 -56.5128 -56.4863 -56.4863 -56.4800 -56.4800 -56.4767 -56.4767
   -28.5888 -28.5824 -28.5758 -28.5756 -28.5617 -28.5581 -28.4897 -28.4897
   -27.6318 -27.6258 -27.5986 -27.5928 -27.5511 -27.5456 -27.5418 -27.5357
   -27.5252 -27.5130 -27.4639 -27.4614 -27.4557 -27.4504 -27.4456 -27.4413
     2.9382   2.9382   6.5236   6.5271   7.4122   7.4146   8.2328   8.2394
     9.9138   9.9181  10.6960  10.6971  10.8379  10.8407  11.3144  11.3163
    11.6689  11.6730  12.4473  12.4525  12.6187  12.6251  12.9295  12.9370
    13.0460  13.0520  13.1337  13.1341  13.1834  13.1859  13.2629  13.2654
    13.4818  13.4867  13.6762  13.6869  13.9997  14.0050  15.2966  15.3177
    15.3791  15.3933  15.6438  15.6580  15.7247  15.7384  15.8082  15.8296
    16.3628  16.3807  16.6148  16.6245  16.9879  17.0148

     occupation numbers 
     1.0000   1.0000   1.0000   1.0000   1.0000   1.0000   1.0000   1.0000
     1.0000   1.0000   1.0000   1.0000   1.0000   1.0000   1.0000   1.0000
     1.0000   1.0000   1.0000   1.0000   1.0000   1.0000   1.0000   1.0000
     1.0000   1.0000   1.0000   1.0000   1.0000   1.0000   1.0000   1.0000
     1.0000   1.0000   1.0000   1.0000   1.0000   1.0000   1.0000   1.0000
     1.0000   1.0000   1.0000   1.0000   1.0000   1.0000   1.0000   1.0000
     1.0000   1.0000   1.0000   1.0000   1.0000   1.0000   1.0000   1.0000
     1.0000   1.0000   1.0000   1.0000   1.0000   1.0000   1.0000   1.0000
     1.0000   1.0000   1.0000   1.0000   1.0000   1.0000  -0.0318  -0.0283
    -0.0170  -0.0147  -0.0003  -0.0002  -0.0000  -0.0000  -0.0000  -0.0000
    -0.0000  -0.0000  -0.0000  -0.0000  -0.0000  -0.0000

          k = 0.0000 0.0833 0.2500 (  9646 PWs)   bands (ev):

   -56.5107 -56.5107 -56.4896 -56.4896 -56.4794 -56.4794 -56.4761 -56.4761
   -28.5903 -28.5839 -28.5783 -28.5766 -28.5533 -28.5502 -28.4957 -28.4955
   -27.6362 -27.6284 -27.5911 -27.5847 -27.5569 -27.5464 -27.5394 -27.5358
   -27.5243 -27.5039 -27.4721 -27.4644 -27.4589 -27.4525 -27.4445 -27.4395
     3.1739   3.1739   6.0094   6.0114   7.5329   7.5347   8.4344   8.4414
     9.7448   9.7462  10.5615  10.5650  10.8459  10.8486  11.3938  11.4020
    11.5686  11.5704  12.2884  12.3012  12.7222  12.7237  13.0171  13.0315
    13.0887  13.0924  13.1768  13.1828  13.2494  13.2499  13.3334  13.3363
    13.5259  13.5312  13.7541  13.7672  14.0713  14.0766  15.0811  15.1090
    15.3426  15.3529  15.5664  15.5820  15.7126  15.7344  15.8500  15.8743
    16.2535  16.2691  16.5137  16.5262  17.1637  17.1914

     occupation numbers 
     1.0000   1.0000   1.0000   1.0000   1.0000   1.0000   1.0000   1.0000
     1.0000   1.0000   1.0000   1.0000   1.0000   1.0000   1.0000   1.0000
     1.0000   1.0000   1.0000   1.0000   1.0000   1.0000   1.0000   1.0000
     1.0000   1.0000   1.0000   1.0000   1.0000   1.0000   1.0000   1.0000
     1.0000   1.0000   1.0000   1.0000   1.0000   1.0000   1.0000   1.0000
     1.0000   1.0000   1.0000   1.0000   1.0000   1.0000   1.0000   1.0000
     1.0000   1.0000   1.0000   1.0000   1.0000   1.0000   1.0000   1.0000
     1.0000   1.0000   1.0000   1.0000   1.0000   1.0000   1.0000   1.0000
     1.0000   1.0000   1.0000   1.0000   1.0000   1.0000   0.1197   0.0658
    -0.0237  -0.0217  -0.0012  -0.0009  -0.0001  -0.0000  -0.0000  -0.0000
    -0.0000  -0.0000  -0.0000  -0.0000  -0.0000  -0.0000

          k = 0.0000 0.0833 0.3333 (  9649 PWs)   bands (ev):

   -56.5079 -56.5079 -56.4932 -56.4932 -56.4786 -56.4786 -56.4760 -56.4760
   -28.5905 -28.5846 -28.5812 -28.5782 -28.5437 -28.5411 -28.5035 -28.5030
   -27.6386 -27.6314 -27.5827 -27.5779 -27.5627 -27.5449 -27.5403 -27.5312
   -27.5256 -27.4948 -27.4820 -27.4661 -27.4623 -27.4549 -27.4435 -27.4390
     3.4967   3.4968   5.4513   5.4524   7.7139   7.7161   8.5120   8.5183
     9.6728   9.6748  10.3911  10.3955  10.9572  10.9601  11.1467  11.1592
    11.8088  11.8125  12.1756  12.1891  12.7438  12.7483  12.9871  12.9940
    13.0261  13.0310  13.2305  13.2354  13.2977  13.2993  13.4276  13.4329
    13.4957  13.5061  13.9334  13.9417  14.1519  14.1601  14.8957  14.9291
    15.3237  15.3360  15.4802  15.4958  15.7142  15.7400  15.8539  15.8796
    16.1744  16.1872  16.3940  16.4077  17.2784  17.3018

     occupation numbers 
     1.0000   1.0000   1.0000   1.0000   1.0000   1.0000   1.0000   1.0000
     1.0000   1.0000   1.0000   1.0000   1.0000   1.0000   1.0000   1.0000
     1.0000   1.0000   1.0000   1.0000   1.0000   1.0000   1.0000   1.0000
     1.0000   1.0000   1.0000   1.0000   1.0000   1.0000   1.0000   1.0000
     1.0000   1.0000   1.0000   1.0000   1.0000   1.0000   1.0000   1.0000
     1.0000   1.0000   1.0000   1.0000   1.0000   1.0000   1.0000   1.0000
     1.0000   1.0000   1.0000   1.0000   1.0000   1.0000   1.0000   1.0000
     1.0000   1.0000   1.0000   1.0000   1.0000   1.0000   1.0000   1.0000
     1.0000   1.0000   1.0000   1.0000   1.0000   1.0000   0.6951   0.5854
    -0.0272  -0.0249  -0.0048  -0.0038  -0.0001  -0.0000  -0.0000  -0.0000
    -0.0000  -0.0000  -0.0000  -0.0000  -0.0000  -0.0000

          k = 0.0000 0.0833 0.4167 (  9647 PWs)   bands (ev):

   -56.5046 -56.5046 -56.4971 -56.4971 -56.4777 -56.4777 -56.4763 -56.4763
   -28.5895 -28.5854 -28.5828 -28.5802 -28.5334 -28.5314 -28.5127 -28.5119
   -27.6388 -27.6347 -27.5769 -27.5690 -27.5680 -27.5487 -27.5399 -27.5305
   -27.5189 -27.4942 -27.4853 -27.4706 -27.4621 -27.4574 -27.4423 -27.4396
     3.8991   3.8992   4.8947   4.8953   7.9377   7.9407   8.4043   8.4094
     9.7771   9.7807  10.2243  10.2282  10.9620  10.9677  11.0303  11.0356
    12.0233  12.0294  12.2040  12.2114  12.6468  12.6515  12.8368  12.8445
    13.0729  13.0768  13.2601  13.2631  13.2911  13.2941  13.3205  13.3231
    13.6491  13.6522  13.9198  13.9244  14.3700  14.3908  14.7447  14.7787
    15.3274  15.3424  15.4073  15.4232  15.7407  15.7680  15.8309  15.8586
    16.1460  16.1558  16.2754  16.2880  17.3829  17.3969

     occupation numbers 
     1.0000   1.0000   1.0000   1.0000   1.0000   1.0000   1.0000   1.0000
     1.0000   1.0000   1.0000   1.0000   1.0000   1.0000   1.0000   1.0000
     1.0000   1.0000   1.0000   1.0000   1.0000   1.0000   1.0000   1.0000
     1.0000   1.0000   1.0000   1.0000   1.0000   1.0000   1.0000   1.0000
     1.0000   1.0000   1.0000   1.0000   1.0000   1.0000   1.0000   1.0000
     1.0000   1.0000   1.0000   1.0000   1.0000   1.0000   1.0000   1.0000
     1.0000   1.0000   1.0000   1.0000   1.0000   1.0000   1.0000   1.0000
     1.0000   1.0000   1.0000   1.0000   1.0000   1.0000   1.0000   1.0000
     1.0000   1.0000   1.0000   1.0000   1.0019   1.0027   1.0028   0.9653
    -0.0265  -0.0237  -0.0125  -0.0104  -0.0000  -0.0000  -0.0000  -0.0000
    -0.0000  -0.0000  -0.0000  -0.0000  -0.0000  -0.0000

          k = 0.0000 0.0833-0.5000 (  9688 PWs)   bands (ev):

   -56.5010 -56.5010 -56.5010 -56.5010 -56.4769 -56.4769 -56.4769 -56.4769
   -28.5876 -28.5876 -28.5819 -28.5819 -28.5231 -28.5231 -28.5213 -28.5213
   -27.6373 -27.6373 -27.5726 -27.5726 -27.5585 -27.5585 -27.5352 -27.5352
   -27.5065 -27.5065 -27.4775 -27.4775 -27.4599 -27.4599 -27.4409 -27.4409
     4.3701   4.3701   4.3705   4.3705   8.1813   8.1813   8.1881   8.1881
     9.9982   9.9982  10.0027  10.0027  10.9694  10.9694  10.9826  10.9826
    12.1975  12.1975  12.2035  12.2035  12.6447  12.6447  12.6605  12.6605
    13.1825  13.1825  13.1868  13.1868  13.2833  13.2833  13.2854  13.2854
    13.8039  13.8039  13.8073  13.8073  14.5809  14.5809  14.6104  14.6104
    15.3553  15.3553  15.3721  15.3721  15.7867  15.7867  15.8164  15.8164
    16.1821  16.1821  16.1942  16.1942  17.5402  17.5447

     occupation numbers 
     1.0000   1.0000   1.0000   1.0000   1.0000   1.0000   1.0000   1.0000
     1.0000   1.0000   1.0000   1.0000   1.0000   1.0000   1.0000   1.0000
     1.0000   1.0000   1.0000   1.0000   1.0000   1.0000   1.0000   1.0000
     1.0000   1.0000   1.0000   1.0000   1.0000   1.0000   1.0000   1.0000
     1.0000   1.0000   1.0000   1.0000   1.0000   1.0000   1.0000   1.0000
     1.0000   1.0000   1.0000   1.0000   1.0000   1.0000   1.0000   1.0000
     1.0000   1.0000   1.0000   1.0000   1.0000   1.0000   1.0000   1.0000
     1.0000   1.0000   1.0000   1.0000   1.0000   1.0000   1.0000   1.0000
     1.0000   1.0000   1.0000   1.0000   1.0266   1.0266   1.0317   1.0317
    -0.0213  -0.0213  -0.0182  -0.0182  -0.0000  -0.0000  -0.0000  -0.0000
    -0.0000  -0.0000  -0.0000  -0.0000  -0.0000  -0.0000

          k = 0.0000 0.1667 0.1667 (  9657 PWs)   bands (ev):

   -56.5115 -56.5115 -56.4878 -56.4878 -56.4803 -56.4803 -56.4762 -56.4762
   -28.5899 -28.5840 -28.5748 -28.5747 -28.5586 -28.5547 -28.4933 -28.4932
   -27.6326 -27.6285 -27.5925 -27.5887 -27.5520 -27.5487 -27.5437 -27.5376
   -27.5214 -27.5066 -27.4698 -27.4661 -27.4587 -27.4501 -27.4432 -27.4389
     3.0802   3.0802   6.3972   6.4016   7.2076   7.2120   8.4067   8.4121
     9.8324   9.8358  10.5101  10.5126  10.7869  10.7881  11.3570  11.3600
    11.7800  11.7804  12.4120  12.4177  12.5878  12.5955  12.9949  12.9962
    13.0907  13.0989  13.1719  13.1727  13.2436  13.2502  13.3357  13.3407
    13.4672  13.4751  13.7325  13.7466  14.0755  14.0828  15.2519  15.2736
    15.3014  15.3207  15.5356  15.5476  15.6954  15.7164  15.8142  15.8387
    16.2774  16.2943  16.6071  16.6168  17.0330  17.0676

     occupation numbers 
     1.0000   1.0000   1.0000   1.0000   1.0000   1.0000   1.0000   1.0000
     1.0000   1.0000   1.0000   1.0000   1.0000   1.0000   1.0000   1.0000
     1.0000   1.0000   1.0000   1.0000   1.0000   1.0000   1.0000   1.0000
     1.0000   1.0000   1.0000   1.0000   1.0000   1.0000   1.0000   1.0000
     1.0000   1.0000   1.0000   1.0000   1.0000   1.0000   1.0000   1.0000
     1.0000   1.0000   1.0000   1.0000   1.0000   1.0000   1.0000   1.0000
     1.0000   1.0000   1.0000   1.0000   1.0000   1.0000   1.0000   1.0000
     1.0000   1.0000   1.0000   1.0000   1.0000   1.0000   1.0000   1.0000
     1.0000   1.0000   1.0000   1.0000   1.0000   1.0000  -0.0354  -0.0346
    -0.0311  -0.0278  -0.0020  -0.0016  -0.0001  -0.0000  -0.0000  -0.0000
    -0.0000  -0.0000  -0.0000  -0.0000  -0.0000  -0.0000

          k = 0.0000 0.1667 0.2500 (  9644 PWs)   bands (ev):

   -56.5096 -56.5096 -56.4902 -56.4902 -56.4800 -56.4800 -56.4760 -56.4760
   -28.5903 -28.5847 -28.5760 -28.5750 -28.5524 -28.5490 -28.4990 -28.4988
   -27.6346 -27.6295 -27.5867 -27.5825 -27.5561 -27.5497 -27.5426 -27.5378
   -27.5204 -27.4992 -27.4783 -27.4693 -27.4623 -27.4509 -27.4413 -27.4368
     3.3134   3.3135   6.0383   6.0414   7.2039   7.2076   8.5046   8.5090
     9.7417   9.7436  10.2895  10.2936  10.8767  10.8778  11.4819  11.4826
    11.6891  11.6903  12.3246  12.3301  12.5673  12.5727  12.9880  12.9953
    13.1253  13.1385  13.2056  13.2110  13.3297  13.3309  13.4428  13.4506
    13.5208  13.5282  13.8636  13.8791  14.1364  14.1438  15.0965  15.1217
    15.2391  15.2581  15.4384  15.4515  15.6661  15.6891  15.8205  15.8474
    16.1948  16.2087  16.5336  16.5452  17.1531  17.1918

     occupation numbers 
     1.0000   1.0000   1.0000   1.0000   1.0000   1.0000   1.0000   1.0000
     1.0000   1.0000   1.0000   1.0000   1.0000   1.0000   1.0000   1.0000
     1.0000   1.0000   1.0000   1.0000   1.0000   1.0000   1.0000   1.0000
     1.0000   1.0000   1.0000   1.0000   1.0000   1.0000   1.0000   1.0000
     1.0000   1.0000   1.0000   1.0000   1.0000   1.0000   1.0000   1.0000
     1.0000   1.0000   1.0000   1.0000   1.0000   1.0000   1.0000   1.0000
     1.0000   1.0000   1.0000   1.0000   1.0000   1.0000   1.0000   1.0000
     1.0000   1.0000   1.0000   1.0000   1.0000   1.0000   1.0000   1.0000
     1.0000   1.0000   1.0000   1.0000   1.0000   1.0000   0.0884   0.0456
    -0.0348  -0.0354  -0.0086  -0.0072  -0.0002  -0.0001  -0.0000  -0.0000
    -0.0000  -0.0000  -0.0000  -0.0000  -0.0000  -0.0000

          k = 0.0000 0.1667 0.3333 (  9647 PWs)   bands (ev):

   -56.5069 -56.5069 -56.4933 -56.4933 -56.4793 -56.4793 -56.4762 -56.4762
   -28.5898 -28.5846 -28.5785 -28.5764 -28.5441 -28.5415 -28.5064 -28.5061
   -27.6358 -27.6305 -27.5815 -27.5759 -27.5618 -27.5487 -27.5419 -27.5338
   -27.5226 -27.4929 -27.4873 -27.4717 -27.4643 -27.4531 -27.4395 -27.4358
     3.6327   3.6329   5.5377   5.5394   7.3629   7.3655   8.4325   8.4358
     9.7329   9.7361  10.1893  10.1936  10.9874  10.9904  11.3853  11.3949
    11.7520  11.7564  12.1889  12.1977  12.5943  12.6020  12.8760  12.8848
    13.1124  13.1219  13.2512  13.2570  13.3791  13.3804  13.5258  13.5359
    13.5893  13.6024  13.9887  13.9993  14.2437  14.2561  14.9094  14.9404
    15.2248  15.2434  15.3450  15.3550  15.6539  15.6789  15.8061  15.8364
    16.1517  16.1611  16.4394  16.4525  17.2364  17.2693

     occupation numbers 
     1.0000   1.0000   1.0000   1.0000   1.0000   1.0000   1.0000   1.0000
     1.0000   1.0000   1.0000   1.0000   1.0000   1.0000   1.0000   1.0000
     1.0000   1.0000   1.0000   1.0000   1.0000   1.0000   1.0000   1.0000
     1.0000   1.0000   1.0000   1.0000   1.0000   1.0000   1.0000   1.0000
     1.0000   1.0000   1.0000   1.0000   1.0000   1.0000   1.0000   1.0000
     1.0000   1.0000   1.0000   1.0000   1.0000   1.0000   1.0000   1.0000
     1.0000   1.0000   1.0000   1.0000   1.0000   1.0000   1.0000   1.0000
     1.0000   1.0000   1.0000   1.0000   1.0000   1.0000   1.0000   1.0000
     1.0000   1.0000   1.0000   1.0000   1.0002   1.0002   0.6513   0.5469
    -0.0329  -0.0352  -0.0232  -0.0213  -0.0002  -0.0001  -0.0000  -0.0000
    -0.0000  -0.0000  -0.0000  -0.0000  -0.0000  -0.0000

          k = 0.0000 0.1667 0.4167 (  9668 PWs)   bands (ev):

   -56.5038 -56.5038 -56.4968 -56.4968 -56.4784 -56.4784 -56.4767 -56.4767
   -28.5882 -28.5843 -28.5808 -28.5784 -28.5347 -28.5329 -28.5152 -28.5145
   -27.6356 -27.6322 -27.5773 -27.5700 -27.5653 -27.5515 -27.5399 -27.5295
   -27.5223 -27.5001 -27.4847 -27.4750 -27.4631 -27.4562 -27.4380 -27.4358
     4.0299   4.0302   5.0052   5.0062   7.6066   7.6088   8.1964   8.1989
     9.8541   9.8577  10.1270  10.1304  11.0543  11.0630  11.2129  11.2268
    11.9235  11.9286  12.1475  12.1532  12.5359  12.5453  12.7025  12.7131
    13.1766  13.1810  13.2863  13.2911  13.3748  13.3771  13.4824  13.4837
    13.7239  13.7280  13.9710  13.9771  14.4431  14.4681  14.7613  14.7942
    15.2240  15.2404  15.2772  15.2858  15.6702  15.6970  15.7672  15.7987
    16.1697  16.1756  16.3385  16.3512  17.3267  17.3481

     occupation numbers 
     1.0000   1.0000   1.0000   1.0000   1.0000   1.0000   1.0000   1.0000
     1.0000   1.0000   1.0000   1.0000   1.0000   1.0000   1.0000   1.0000
     1.0000   1.0000   1.0000   1.0000   1.0000   1.0000   1.0000   1.0000
     1.0000   1.0000   1.0000   1.0000   1.0000   1.0000   1.0000   1.0000
     1.0000   1.0000   1.0000   1.0000   1.0000   1.0000   1.0000   1.0000
     1.0000   1.0000   1.0000   1.0000   1.0000   1.0000   1.0000   1.0000
     1.0000   1.0000   1.0000   1.0000   1.0000   1.0000   1.0000   1.0000
     1.0000   1.0000   1.0000   1.0000   1.0000   1.0000   1.0000   1.0000
     1.0000   1.0000   1.0000   1.0000   1.0060   1.0084   0.9866   0.9422
    -0.0328  -0.0349  -0.0342  -0.0333  -0.0001  -0.0001  -0.0000  -0.0000
    -0.0000  -0.0000  -0.0000  -0.0000  -0.0000  -0.0000

          k = 0.0000 0.1667-0.5000 (  9654 PWs)   bands (ev):

   -56.5004 -56.5004 -56.5004 -56.5004 -56.4775 -56.4775 -56.4775 -56.4775
   -28.5859 -28.5859 -28.5803 -28.5803 -28.5255 -28.5255 -28.5229 -28.5229
   -27.6342 -27.6342 -27.5732 -27.5732 -27.5586 -27.5586 -27.5346 -27.5346
   -27.5116 -27.5116 -27.4794 -27.4794 -27.4599 -27.4599 -27.4367 -27.4367
     4.4932   4.4932   4.4939   4.4939   7.8950   7.8950   7.9018   7.9018
    10.0148  10.0148  10.0188  10.0188  11.1033  11.1033  11.1174  11.1174
    12.0900  12.0900  12.0946  12.0946  12.5398  12.5398  12.5556  12.5556
    13.2758  13.2758  13.2767  13.2767  13.3909  13.3909  13.3921  13.3921
    13.8666  13.8666  13.8706  13.8706  14.6206  14.6206  14.6519  14.6519
    15.2376  15.2376  15.2523  15.2523  15.7144  15.7144  15.7441  15.7441
    16.2397  16.2397  16.2503  16.2503  17.4856  17.4932

     occupation numbers 
     1.0000   1.0000   1.0000   1.0000   1.0000   1.0000   1.0000   1.0000
     1.0000   1.0000   1.0000   1.0000   1.0000   1.0000   1.0000   1.0000
     1.0000   1.0000   1.0000   1.0000   1.0000   1.0000   1.0000   1.0000
     1.0000   1.0000   1.0000   1.0000   1.0000   1.0000   1.0000   1.0000
     1.0000   1.0000   1.0000   1.0000   1.0000   1.0000   1.0000   1.0000
     1.0000   1.0000   1.0000   1.0000   1.0000   1.0000   1.0000   1.0000
     1.0000   1.0000   1.0000   1.0000   1.0000   1.0000   1.0000   1.0000
     1.0000   1.0000   1.0000   1.0000   1.0000   1.0000   1.0000   1.0000
     1.0000   1.0000   1.0000   1.0000   1.0331   1.0331   1.0354   1.0354
    -0.0347  -0.0347  -0.0355  -0.0355  -0.0001  -0.0001  -0.0000  -0.0000
    -0.0000  -0.0000  -0.0000  -0.0000  -0.0000  -0.0000

          k = 0.0000 0.2500 0.2500 (  9661 PWs)   bands (ev):

   -56.5077 -56.5077 -56.4916 -56.4916 -56.4803 -56.4803 -56.4762 -56.4762
   -28.5897 -28.5846 -28.5749 -28.5741 -28.5495 -28.5462 -28.5043 -28.5039
   -27.6329 -27.6297 -27.5821 -27.5798 -27.5561 -27.5529 -27.5430 -27.5388
   -27.5188 -27.4959 -27.4850 -27.4747 -27.4654 -27.4485 -27.4388 -27.4347
     3.5425   3.5427   5.9650   5.9683   6.9411   6.9450   8.4363   8.4413
     9.7515   9.7547  10.1863  10.1914  10.9261  10.9286  11.3506  11.3517
    11.8598  11.8636  12.2863  12.2898  12.5058  12.5151  12.9042  12.9118
    13.1482  13.1575  13.2705  13.2800  13.4422  13.4436  13.5200  13.5293
    13.5708  13.5814  13.9846  13.9969  14.2199  14.2255  15.0463  15.0667
    15.1402  15.1649  15.2948  15.3063  15.6162  15.6413  15.7633  15.7921
    16.1598  16.1708  16.5123  16.5230  17.1854  17.2282

     occupation numbers 
     1.0000   1.0000   1.0000   1.0000   1.0000   1.0000   1.0000   1.0000
     1.0000   1.0000   1.0000   1.0000   1.0000   1.0000   1.0000   1.0000
     1.0000   1.0000   1.0000   1.0000   1.0000   1.0000   1.0000   1.0000
     1.0000   1.0000   1.0000   1.0000   1.0000   1.0000   1.0000   1.0000
     1.0000   1.0000   1.0000   1.0000   1.0000   1.0000   1.0000   1.0000
     1.0000   1.0000   1.0000   1.0000   1.0000   1.0000   1.0000   1.0000
     1.0000   1.0000   1.0000   1.0000   1.0000   1.0000   1.0000   1.0000
     1.0000   1.0000   1.0000   1.0000   1.0000   1.0000   1.0000   1.0000
     1.0000   1.0000   1.0000   1.0000   1.0001   1.0001   0.2047   0.1525
     0.0208  -0.0041  -0.0321  -0.0303  -0.0004  -0.0003  -0.0000  -0.0000
    -0.0000  -0.0000  -0.0000  -0.0000  -0.0000  -0.0000

          k = 0.0000 0.2500 0.3333 (  9636 PWs)   bands (ev):

   -56.5053 -56.5053 -56.4937 -56.4937 -56.4800 -56.4800 -56.4767 -56.4767
   -28.5882 -28.5836 -28.5760 -28.5745 -28.5438 -28.5413 -28.5111 -28.5107
   -27.6318 -27.6287 -27.5812 -27.5747 -27.5606 -27.5511 -27.5414 -27.5361
   -27.5209 -27.4956 -27.4927 -27.4793 -27.4637 -27.4483 -27.4367 -27.4334
     3.8554   3.8557   5.6430   5.6454   6.9524   6.9559   8.1879   8.1918
     9.8429   9.8465  10.1795  10.1834  10.9894  10.9916  11.3884  11.3920
    11.8758  11.8780  12.1108  12.1121  12.4498  12.4600  12.7486  12.7571
    13.1976  13.2076  13.3031  13.3100  13.4496  13.4531  13.6459  13.6492
    13.7123  13.7172  14.0565  14.0675  14.3683  14.3881  14.9104  14.9351
    15.0755  15.0994  15.1881  15.1954  15.5841  15.6085  15.7086  15.7402
    16.1731  16.1810  16.4785  16.4884  17.1847  17.2203

     occupation numbers 
     1.0000   1.0000   1.0000   1.0000   1.0000   1.0000   1.0000   1.0000
     1.0000   1.0000   1.0000   1.0000   1.0000   1.0000   1.0000   1.0000
     1.0000   1.0000   1.0000   1.0000   1.0000   1.0000   1.0000   1.0000
     1.0000   1.0000   1.0000   1.0000   1.0000   1.0000   1.0000   1.0000
     1.0000   1.0000   1.0000   1.0000   1.0000   1.0000   1.0000   1.0000
     1.0000   1.0000   1.0000   1.0000   1.0000   1.0000   1.0000   1.0000
     1.0000   1.0000   1.0000   1.0000   1.0000   1.0000   1.0000   1.0000
     1.0000   1.0000   1.0000   1.0000   1.0000   1.0000   1.0000   1.0000
     1.0000   1.0000   1.0000   1.0000   1.0019   1.0026   0.6480   0.5651
     0.1321   0.0827  -0.0199  -0.0236  -0.0008  -0.0005  -0.0001  -0.0000
    -0.0000  -0.0000  -0.0000  -0.0000  -0.0000  -0.0000

          k = 0.0000 0.2500 0.4167 (  9659 PWs)   bands (ev):

   -56.5025 -56.5025 -56.4965 -56.4965 -56.4793 -56.4793 -56.4774 -56.4774
   -28.5859 -28.5823 -28.5781 -28.5761 -28.5363 -28.5346 -28.5190 -28.5184
   -27.6304 -27.6282 -27.5800 -27.5742 -27.5603 -27.5517 -27.5392 -27.5291
   -27.5247 -27.5055 -27.4909 -27.4839 -27.4590 -27.4502 -27.4350 -27.4331
     4.2431   4.2437   5.1758   5.1772   7.1707   7.1735   7.8422   7.8452
     9.9963   9.9994  10.1860  10.1890  11.0743  11.0807  11.3414  11.3525
    11.9081  11.9108  11.9807  11.9857  12.4125  12.4241  12.5559  12.5673
    13.2766  13.2849  13.3662  13.3683  13.4300  13.4319  13.6292  13.6315
    13.8634  13.8663  14.0587  14.0663  14.5323  14.5612  14.7626  14.7910
    15.0735  15.0908  15.1201  15.1234  15.5782  15.6034  15.6524  15.6840
    16.2389  16.2461  16.4218  16.4329  17.2194  17.2416

     occupation numbers 
     1.0000   1.0000   1.0000   1.0000   1.0000   1.0000   1.0000   1.0000
     1.0000   1.0000   1.0000   1.0000   1.0000   1.0000   1.0000   1.0000
     1.0000   1.0000   1.0000   1.0000   1.0000   1.0000   1.0000   1.0000
     1.0000   1.0000   1.0000   1.0000   1.0000   1.0000   1.0000   1.0000
     1.0000   1.0000   1.0000   1.0000   1.0000   1.0000   1.0000   1.0000
     1.0000   1.0000   1.0000   1.0000   1.0000   1.0000   1.0000   1.0000
     1.0000   1.0000   1.0000   1.0000   1.0000   1.0000   1.0000   1.0000
     1.0000   1.0000   1.0000   1.0000   1.0000   1.0000   1.0000   1.0000
     1.0000   1.0000   1.0000   1.0000   1.0176   1.0229   0.9851   0.9473
     0.1365   0.0995   0.0479   0.0430  -0.0009  -0.0006  -0.0002  -0.0001
    -0.0000  -0.0000  -0.0000  -0.0000  -0.0000  -0.0000

          k = 0.0000 0.2500-0.5000 (  9686 PWs)   bands (ev):

   -56.4995 -56.4995 -56.4995 -56.4995 -56.4784 -56.4784 -56.4784 -56.4784
   -28.5832 -28.5832 -28.5780 -28.5780 -28.5287 -28.5287 -28.5256 -28.5256
   -27.6290 -27.6290 -27.5774 -27.5774 -27.5558 -27.5558 -27.5336 -27.5336
   -27.5163 -27.5163 -27.4878 -27.4878 -27.4540 -27.4540 -27.4337 -27.4337
     4.6915   4.6915   4.6925   4.6925   7.4835   7.4835   7.4897   7.4897
    10.1294  10.1294  10.1324  10.1324  11.2000  11.2000  11.2117  11.2117
    11.9553  11.9553  11.9572  11.9572  12.4186  12.4186  12.4311  12.4311
    13.3474  13.3474  13.3539  13.3539  13.5160  13.5160  13.5221  13.5221
    13.9872  13.9872  13.9928  13.9928  14.6542  14.6542  14.6848  14.6848
    15.0855  15.0855  15.0972  15.0972  15.6038  15.6038  15.6326  15.6326
    16.3329  16.3329  16.3438  16.3438  17.3596  17.3609

     occupation numbers 
     1.0000   1.0000   1.0000   1.0000   1.0000   1.0000   1.0000   1.0000
     1.0000   1.0000   1.0000   1.0000   1.0000   1.0000   1.0000   1.0000
     1.0000   1.0000   1.0000   1.0000   1.0000   1.0000   1.0000   1.0000
     1.0000   1.0000   1.0000   1.0000   1.0000   1.0000   1.0000   1.0000
     1.0000   1.0000   1.0000   1.0000   1.0000   1.0000   1.0000   1.0000
     1.0000   1.0000   1.0000   1.0000   1.0000   1.0000   1.0000   1.0000
     1.0000   1.0000   1.0000   1.0000   1.0000   1.0000   1.0000   1.0000
     1.0000   1.0000   1.0000   1.0000   1.0000   1.0000   1.0000   1.0000
     1.0000   1.0000   1.0000   1.0000   1.0355   1.0355   1.0326   1.0326
     0.1103   0.1103   0.0870   0.0870  -0.0006  -0.0006  -0.0003  -0.0003
    -0.0000  -0.0000  -0.0000  -0.0000  -0.0000  -0.0000

          k = 0.0000 0.3333 0.3333 (  9619 PWs)   bands (ev):

   -56.5033 -56.5033 -56.4947 -56.4947 -56.4803 -56.4803 -56.4774 -56.4774
   -28.5858 -28.5818 -28.5748 -28.5739 -28.5418 -28.5394 -28.5173 -28.5165
   -27.6274 -27.6261 -27.5827 -27.5771 -27.5578 -27.5501 -27.5378 -27.5375
   -27.5215 -27.5009 -27.4987 -27.4873 -27.4584 -27.4447 -27.4352 -27.4321
     4.1582   4.1587   5.6398   5.6420   6.6784   6.6811   7.8197   7.8235
    10.0315  10.0342  10.3050  10.3080  10.9406  10.9423  11.2581  11.2603
    11.8944  11.9011  12.1582  12.1627  12.3093  12.3188  12.6282  12.6361
    13.1789  13.1872  13.3909  13.3959  13.5595  13.5623  13.7203  13.7257
    13.8833  13.8949  14.0943  14.1070  14.4877  14.5134  14.8481  14.8598
    14.9408  14.9610  15.0573  15.0740  15.5219  15.5450  15.6025  15.6325
    16.2323  16.2411  16.4898  16.4967  17.1467  17.1773

     occupation numbers 
     1.0000   1.0000   1.0000   1.0000   1.0000   1.0000   1.0000   1.0000
     1.0000   1.0000   1.0000   1.0000   1.0000   1.0000   1.0000   1.0000
     1.0000   1.0000   1.0000   1.0000   1.0000   1.0000   1.0000   1.0000
     1.0000   1.0000   1.0000   1.0000   1.0000   1.0000   1.0000   1.0000
     1.0000   1.0000   1.0000   1.0000   1.0000   1.0000   1.0000   1.0000
     1.0000   1.0000   1.0000   1.0000   1.0000   1.0000   1.0000   1.0000
     1.0000   1.0000   1.0000   1.0000   1.0000   1.0000   1.0000   1.0000
     1.0000   1.0000   1.0000   1.0000   1.0000   1.0000   1.0000   1.0000
     1.0000   1.0000   1.0000   1.0000   1.0108   1.0145   0.8307   0.8005
     0.5456   0.4759   0.1758   0.1354  -0.0025  -0.0017  -0.0006  -0.0003
    -0.0000  -0.0000  -0.0000  -0.0000  -0.0000  -0.0000

          k = 0.0000 0.3333 0.4167 (  9633 PWs)   bands (ev):

   -56.5010 -56.5010 -56.4964 -56.4964 -56.4801 -56.4801 -56.4784 -56.4784
   -28.5829 -28.5797 -28.5757 -28.5743 -28.5372 -28.5357 -28.5239 -28.5232
   -27.6239 -27.6230 -27.5854 -27.5814 -27.5539 -27.5484 -27.5372 -27.5299
   -27.5259 -27.5092 -27.5007 -27.4936 -27.4522 -27.4443 -27.4339 -27.4318
     4.5301   4.5307   5.3661   5.3678   6.7394   6.7423   7.4118   7.4148
    10.2064  10.2081  10.3657  10.3678  11.0317  11.0346  11.3561  11.3632
    11.7476  11.7505  11.9382  11.9434  12.3003  12.3065  12.4377  12.4463
    13.2749  13.2831  13.4179  13.4201  13.5838  13.5862  13.7591  13.7642
    14.0547  14.0621  14.1736  14.1816  14.5737  14.5974  14.7027  14.7213
    14.9169  14.9339  14.9750  14.9939  15.4949  15.5153  15.5355  15.5638
    16.3321  16.3421  16.5035  16.5099  17.0973  17.1166

     occupation numbers 
     1.0000   1.0000   1.0000   1.0000   1.0000   1.0000   1.0000   1.0000
     1.0000   1.0000   1.0000   1.0000   1.0000   1.0000   1.0000   1.0000
     1.0000   1.0000   1.0000   1.0000   1.0000   1.0000   1.0000   1.0000
     1.0000   1.0000   1.0000   1.0000   1.0000   1.0000   1.0000   1.0000
     1.0000   1.0000   1.0000   1.0000   1.0000   1.0000   1.0000   1.0000
     1.0000   1.0000   1.0000   1.0000   1.0000   1.0000   1.0000   1.0000
     1.0000   1.0000   1.0000   1.0000   1.0000   1.0000   1.0000   1.0000
     1.0000   1.0000   1.0000   1.0000   1.0000   1.0000   1.0000   1.0000
     1.0000   1.0000   1.0000   1.0000   1.0252   1.0296   1.0276   1.0191
     0.6265   0.5693   0.4277   0.3640  -0.0039  -0.0028  -0.0020  -0.0012
    -0.0000  -0.0000  -0.0000  -0.0000  -0.0000  -0.0000

          k = 0.0000 0.3333-0.5000 (  9646 PWs)   bands (ev):

   -56.4986 -56.4986 -56.4986 -56.4986 -56.4793 -56.4793 -56.4793 -56.4793
   -28.5800 -28.5800 -28.5758 -28.5758 -28.5319 -28.5319 -28.5290 -28.5290
   -27.6220 -27.6220 -27.5850 -27.5850 -27.5500 -27.5500 -27.5325 -27.5325
   -27.5197 -27.5197 -27.4982 -27.4982 -27.4471 -27.4471 -27.4325 -27.4325
     4.9494   4.9494   4.9507   4.9507   7.0285   7.0285   7.0334   7.0334
    10.3304  10.3304  10.3324  10.3324  11.2378  11.2378  11.2462  11.2462
    11.7605  11.7605  11.7661  11.7661  12.3339  12.3339  12.3413  12.3413
    13.3665  13.3665  13.3736  13.3736  13.6748  13.6748  13.6835  13.6835
    14.1704  14.1704  14.1760  14.1760  14.6106  14.6106  14.6297  14.6297
    14.9433  14.9433  14.9583  14.9583  15.4978  15.4978  15.5220  15.5220
    16.4403  16.4403  16.4511  16.4511  17.1950  17.1969

     occupation numbers 
     1.0000   1.0000   1.0000   1.0000   1.0000   1.0000   1.0000   1.0000
     1.0000   1.0000   1.0000   1.0000   1.0000   1.0000   1.0000   1.0000
     1.0000   1.0000   1.0000   1.0000   1.0000   1.0000   1.0000   1.0000
     1.0000   1.0000   1.0000   1.0000   1.0000   1.0000   1.0000   1.0000
     1.0000   1.0000   1.0000   1.0000   1.0000   1.0000   1.0000   1.0000
     1.0000   1.0000   1.0000   1.0000   1.0000   1.0000   1.0000   1.0000
     1.0000   1.0000   1.0000   1.0000   1.0000   1.0000   1.0000   1.0000
     1.0000   1.0000   1.0000   1.0000   1.0000   1.0000   1.0000   1.0000
     1.0000   1.0000   1.0000   1.0000   1.0317   1.0317   1.0341   1.0341
     0.5367   0.5367   0.4852   0.4852  -0.0037  -0.0037  -0.0025  -0.0025
    -0.0000  -0.0000  -0.0000  -0.0000  -0.0000  -0.0000

          k = 0.0000 0.4167 0.4167 (  9620 PWs)   bands (ev):

[...]
    12.1173  12.1173  12.1241  12.1241  12.4603  12.4603  12.4692  12.4692
    13.2040  13.2040  13.2087  13.2087  13.7315  13.7315  13.7451  13.7451
    14.3195  14.3195  14.3242  14.3242  14.7067  14.7067  14.7331  14.7331
    14.8545  14.8545  14.8934  14.8934  15.3762  15.3762  15.3874  15.3874
    16.4340  16.4340  16.4435  16.4435  17.0300  17.0333

     occupation numbers 
     1.0000   1.0000   1.0000   1.0000   1.0000   1.0000   1.0000   1.0000
     1.0000   1.0000   1.0000   1.0000   1.0000   1.0000   1.0000   1.0000
     1.0000   1.0000   1.0000   1.0000   1.0000   1.0000   1.0000   1.0000
     1.0000   1.0000   1.0000   1.0000   1.0000   1.0000   1.0000   1.0000
     1.0000   1.0000   1.0000   1.0000   1.0000   1.0000   1.0000   1.0000
     1.0000   1.0000   1.0000   1.0000   1.0000   1.0000   1.0000   1.0000
     1.0000   1.0000   1.0000   1.0000   1.0000   1.0000   1.0000   1.0000
     1.0000   1.0000   1.0000   1.0000   1.0000   1.0000   1.0000   1.0000
     1.0008   1.0008   1.0008   1.0008   1.0261   1.0261   1.0118   1.0118
     0.8143   0.8143   0.7024   0.7024  -0.0175  -0.0175  -0.0156  -0.0156
    -0.0000  -0.0000  -0.0000  -0.0000  -0.0000  -0.0000

          k =-0.2500 0.4167 0.3333 (  9646 PWs)   bands (ev):

   -56.4985 -56.4985 -56.4946 -56.4946 -56.4823 -56.4823 -56.4803 -56.4803
   -28.5781 -28.5753 -28.5704 -28.5693 -28.5426 -28.5407 -28.5310 -28.5296
   -27.6177 -27.6153 -27.5812 -27.5771 -27.5667 -27.5634 -27.5423 -27.5327
   -27.5227 -27.5092 -27.4838 -27.4760 -27.4596 -27.4550 -27.4361 -27.4336
     4.8885   4.8891   5.6565   5.6591   6.8100   6.8153   7.3888   7.3920
     8.9985   9.0029   9.5183   9.5231  10.7774  10.7807  11.2115  11.2132
    12.0003  12.0029  12.3394  12.3432  12.7070  12.7134  12.8292  12.8362
    13.1074  13.1151  13.1624  13.1742  13.4054  13.4133  13.5763  13.5867
    14.1376  14.1452  14.4448  14.4569  14.6833  14.6976  14.8325  14.8518
    14.9672  14.9789  15.1297  15.1629  15.2851  15.2932  15.4306  15.4438
    16.2784  16.2864  16.3856  16.3926  17.0200  17.0294

     occupation numbers 
     1.0000   1.0000   1.0000   1.0000   1.0000   1.0000   1.0000   1.0000
     1.0000   1.0000   1.0000   1.0000   1.0000   1.0000   1.0000   1.0000
     1.0000   1.0000   1.0000   1.0000   1.0000   1.0000   1.0000   1.0000
     1.0000   1.0000   1.0000   1.0000   1.0000   1.0000   1.0000   1.0000
     1.0000   1.0000   1.0000   1.0000   1.0000   1.0000   1.0000   1.0000
     1.0000   1.0000   1.0000   1.0000   1.0000   1.0000   1.0000   1.0000
     1.0000   1.0000   1.0000   1.0000   1.0000   1.0000   1.0000   1.0000
     1.0000   1.0000   1.0000   1.0000   1.0000   1.0000   1.0000   1.0000
     1.0000   1.0000   1.0061   1.0073   1.0329   1.0293   0.8680   0.8214
     0.4543   0.4144   0.0342  -0.0024  -0.0334  -0.0323  -0.0095  -0.0080
    -0.0000  -0.0000  -0.0000  -0.0000  -0.0000  -0.0000

          k =-0.2500-0.5000 0.3333 (  9656 PWs)   bands (ev):

   -56.4964 -56.4964 -56.4964 -56.4964 -56.4815 -56.4815 -56.4815 -56.4815
   -28.5750 -28.5750 -28.5708 -28.5708 -28.5382 -28.5382 -28.5348 -28.5348
   -27.6150 -27.6150 -27.5805 -27.5805 -27.5653 -27.5653 -27.5381 -27.5381
   -27.5152 -27.5152 -27.4809 -27.4809 -27.4559 -27.4559 -27.4352 -27.4352
     5.2803   5.2803   5.2818   5.2818   7.0730   7.0730   7.0782   7.0782
     9.2473   9.2473   9.2519   9.2519  10.9388  10.9388  10.9414  10.9414
    12.1896  12.1896  12.1977  12.1977  12.7744  12.7744  12.7846  12.7846
    13.1175  13.1175  13.1287  13.1287  13.5004  13.5004  13.5107  13.5107
    14.3088  14.3088  14.3173  14.3173  14.7796  14.7796  14.7973  14.7973
    15.0302  15.0302  15.0554  15.0554  15.3566  15.3566  15.3717  15.3717
    16.3338  16.3338  16.3440  16.3440  17.0871  17.0882

     occupation numbers 
     1.0000   1.0000   1.0000   1.0000   1.0000   1.0000   1.0000   1.0000
     1.0000   1.0000   1.0000   1.0000   1.0000   1.0000   1.0000   1.0000
     1.0000   1.0000   1.0000   1.0000   1.0000   1.0000   1.0000   1.0000
     1.0000   1.0000   1.0000   1.0000   1.0000   1.0000   1.0000   1.0000
     1.0000   1.0000   1.0000   1.0000   1.0000   1.0000   1.0000   1.0000
     1.0000   1.0000   1.0000   1.0000   1.0000   1.0000   1.0000   1.0000
     1.0000   1.0000   1.0000   1.0000   1.0000   1.0000   1.0000   1.0000
     1.0000   1.0000   1.0000   1.0000   1.0000   1.0000   1.0000   1.0000
     1.0006   1.0006   1.0007   1.0007   0.9640   0.9640   0.9371   0.9371
     0.2503   0.2503   0.1807   0.1807  -0.0210  -0.0210  -0.0183  -0.0183
    -0.0000  -0.0000  -0.0000  -0.0000  -0.0000  -0.0000

          k =-0.2500-0.5000 0.4167 (  9646 PWs)   bands (ev):

   -56.4954 -56.4954 -56.4954 -56.4954 -56.4825 -56.4825 -56.4825 -56.4825
   -28.5716 -28.5716 -28.5691 -28.5691 -28.5405 -28.5405 -28.5383 -28.5383
   -27.6080 -27.6080 -27.5886 -27.5886 -27.5629 -27.5629 -27.5411 -27.5411
   -27.5105 -27.5105 -27.4859 -27.4859 -27.4507 -27.4507 -27.4379 -27.4379
     5.5370   5.5370   5.5389   5.5389   6.7774   6.7774   6.7817   6.7817
     9.3213   9.3213   9.3264   9.3264  10.6409  10.6409  10.6438  10.6438
    12.3614  12.3614  12.3698  12.3698  12.6612  12.6612  12.6707  12.6707
    13.1100  13.1100  13.1163  13.1163  13.5448  13.5448  13.5573  13.5573
    14.4456  14.4456  14.4521  14.4521  14.8161  14.8161  14.8424  14.8424
    14.9539  14.9539  14.9916  14.9916  15.3205  15.3205  15.3320  15.3320
    16.3808  16.3808  16.3893  16.3893  16.9303  16.9324

     occupation numbers 
     1.0000   1.0000   1.0000   1.0000   1.0000   1.0000   1.0000   1.0000
     1.0000   1.0000   1.0000   1.0000   1.0000   1.0000   1.0000   1.0000
     1.0000   1.0000   1.0000   1.0000   1.0000   1.0000   1.0000   1.0000
     1.0000   1.0000   1.0000   1.0000   1.0000   1.0000   1.0000   1.0000
     1.0000   1.0000   1.0000   1.0000   1.0000   1.0000   1.0000   1.0000
     1.0000   1.0000   1.0000   1.0000   1.0000   1.0000   1.0000   1.0000
     1.0000   1.0000   1.0000   1.0000   1.0000   1.0000   1.0000   1.0000
     1.0000   1.0000   1.0000   1.0000   1.0000   1.0000   1.0000   1.0000
     1.0062   1.0062   1.0068   1.0068   0.9027   0.9027   0.8447   0.8447
     0.5005   0.5005   0.3719   0.3719  -0.0278  -0.0278  -0.0257  -0.0257
    -0.0000  -0.0000  -0.0000  -0.0000  -0.0000  -0.0000

          k =-0.3333-0.5000 0.4167 (  9664 PWs)   bands (ev):

   -56.4938 -56.4938 -56.4938 -56.4938 -56.4841 -56.4841 -56.4841 -56.4841
   -28.5679 -28.5679 -28.5655 -28.5655 -28.5448 -28.5448 -28.5425 -28.5425
   -27.6034 -27.6034 -27.5859 -27.5859 -27.5710 -27.5710 -27.5457 -27.5457
   -27.5040 -27.5040 -27.4771 -27.4771 -27.4558 -27.4558 -27.4421 -27.4421
     5.7598   5.7598   5.7622   5.7622   6.7867   6.7867   6.7922   6.7922
     9.0481   9.0481   9.0544   9.0544  10.2141  10.2141  10.2177  10.2177
    12.5361  12.5361  12.5439  12.5439  12.8191  12.8191  12.8273  12.8273
    13.0622  13.0622  13.0718  13.0718  13.3563  13.3563  13.3668  13.3668
    14.5905  14.5905  14.5974  14.5974  14.9405  14.9405  14.9677  14.9677
    15.0544  15.0544  15.0888  15.0888  15.2584  15.2584  15.2768  15.2768
    16.3428  16.3428  16.3510  16.3510  16.7827  16.7879

     occupation numbers 
     1.0000   1.0000   1.0000   1.0000   1.0000   1.0000   1.0000   1.0000
     1.0000   1.0000   1.0000   1.0000   1.0000   1.0000   1.0000   1.0000
     1.0000   1.0000   1.0000   1.0000   1.0000   1.0000   1.0000   1.0000
     1.0000   1.0000   1.0000   1.0000   1.0000   1.0000   1.0000   1.0000
     1.0000   1.0000   1.0000   1.0000   1.0000   1.0000   1.0000   1.0000
     1.0000   1.0000   1.0000   1.0000   1.0000   1.0000   1.0000   1.0000
     1.0000   1.0000   1.0000   1.0000   1.0000   1.0000   1.0000   1.0000
     1.0000   1.0000   1.0000   1.0000   1.0000   1.0000   1.0000   1.0000
     1.0284   1.0284   1.0296   1.0296   0.5464   0.5464   0.4526   0.4526
     0.1832   0.1832   0.1034   0.1034  -0.0354  -0.0354  -0.0343  -0.0343
    -0.0000  -0.0000  -0.0000  -0.0000  -0.0000  -0.0000

     the Fermi energy is    14.9540 ev

!    total energy              =   -1180.35059489 Ry

     total all-electron energy =    -10727.811431 Ry
     estimated scf accuracy    <       0.00000014 Ry
     smearing contrib. (-TS)   =      -0.00065980 Ry
     internal energy E=F+TS    =   -1180.34993509 Ry

     The total energy is F=E-TS. E is the sum of the following terms:
     one-electron contribution =    -336.79414429 Ry
     hartree contribution      =     207.03855334 Ry
     xc contribution           =    -114.36161669 Ry
     ewald contribution        =    -496.51183961 Ry
     one-center paw contrib.   =    -439.72088785 Ry
      -> PAW hartree energy AE =     126.71422508 Ry
      -> PAW hartree energy PS =    -125.74689004 Ry
      -> PAW xc energy AE      =     -96.23967362 Ry
      -> PAW xc energy PS      =      20.93232528 Ry
      -> total E_H with PAW    =     208.00588839 Ry
      -> total E_XC with PAW   =    -189.66896503 Ry

     convergence has been achieved in   8 iterations

     Forces acting on atoms (cartesian axes, Ry/au):

     atom    1 type  1   force =    -0.00290334   -0.00290334    0.00290334
     atom    2 type  1   force =    -0.00290334    0.00290334   -0.00290334
     atom    3 type  1   force =     0.00290334   -0.00290334   -0.00290334
     atom    4 type  1   force =     0.00290334    0.00290334    0.00290334
     atom    5 type  2   force =    -0.00420901   -0.00420901    0.00420901
     atom    6 type  2   force =    -0.00420901    0.00420901   -0.00420901
     atom    7 type  2   force =     0.00420901   -0.00420901   -0.00420901
     atom    8 type  2   force =     0.00420901    0.00420901    0.00420901
     The non-local contrib.  to forces
     atom    1 type  1   force =     0.05116780    0.05116780   -0.05116780
     atom    2 type  1   force =     0.05116780   -0.05116780    0.05116780
     atom    3 type  1   force =    -0.05116780    0.05116780    0.05116780
     atom    4 type  1   force =    -0.05116780   -0.05116780   -0.05116780
     atom    5 type  2   force =    -0.00807027   -0.00807027    0.00807027
     atom    6 type  2   force =    -0.00807027    0.00807027   -0.00807027
     atom    7 type  2   force =     0.00807027   -0.00807027   -0.00807027
     atom    8 type  2   force =     0.00807027    0.00807027    0.00807027
     The ionic contribution  to forces
     atom    1 type  1   force =    -0.85044630   -0.85044630    0.85044630
     atom    2 type  1   force =    -0.85044630    0.85044630   -0.85044630
     atom    3 type  1   force =     0.85044630   -0.85044630   -0.85044630
     atom    4 type  1   force =     0.85044630    0.85044630    0.85044630
     atom    5 type  2   force =    -0.24524978   -0.24524978    0.24524978
     atom    6 type  2   force =    -0.24524978    0.24524978   -0.24524978
     atom    7 type  2   force =     0.24524978   -0.24524978   -0.24524978
     atom    8 type  2   force =     0.24524978    0.24524978    0.24524978
     The local contribution  to forces
     atom    1 type  1   force =     0.79729503    0.79729503   -0.79729503
     atom    2 type  1   force =     0.79729503   -0.79729503    0.79729503
     atom    3 type  1   force =    -0.79729503    0.79729503    0.79729503
     atom    4 type  1   force =    -0.79729503   -0.79729503   -0.79729503
     atom    5 type  2   force =     0.24832134    0.24832134   -0.24832134
     atom    6 type  2   force =     0.24832134   -0.24832134    0.24832134
     atom    7 type  2   force =    -0.24832134    0.24832134    0.24832134
     atom    8 type  2   force =    -0.24832134   -0.24832134   -0.24832134
     The core correction contribution to forces
     atom    1 type  1   force =    -0.00103217   -0.00103217    0.00103217
     atom    2 type  1   force =    -0.00103217    0.00103217   -0.00103217
     atom    3 type  1   force =     0.00103217   -0.00103217   -0.00103217
     atom    4 type  1   force =     0.00103217    0.00103217    0.00103217
     atom    5 type  2   force =     0.00079606    0.00079606   -0.00079606
     atom    6 type  2   force =     0.00079606   -0.00079606    0.00079606
     atom    7 type  2   force =    -0.00079606    0.00079606    0.00079606
     atom    8 type  2   force =    -0.00079606   -0.00079606   -0.00079606
     The Hubbard contrib.    to forces
     atom    1 type  1   force =     0.00000000    0.00000000    0.00000000
     atom    2 type  1   force =     0.00000000    0.00000000    0.00000000
     atom    3 type  1   force =     0.00000000    0.00000000    0.00000000
     atom    4 type  1   force =     0.00000000    0.00000000    0.00000000
     atom    5 type  2   force =     0.00000000    0.00000000    0.00000000
     atom    6 type  2   force =     0.00000000    0.00000000    0.00000000
     atom    7 type  2   force =     0.00000000    0.00000000    0.00000000
     atom    8 type  2   force =     0.00000000    0.00000000    0.00000000
     The SCF correction term to forces
     atom    1 type  1   force =     0.00011230    0.00011230   -0.00011230
     atom    2 type  1   force =     0.00011230   -0.00011230    0.00011230
     atom    3 type  1   force =    -0.00011230    0.00011230    0.00011230
     atom    4 type  1   force =    -0.00011230   -0.00011230   -0.00011230
     atom    5 type  2   force =    -0.00000637   -0.00000637    0.00000637
     atom    6 type  2   force =    -0.00000637    0.00000637   -0.00000637
     atom    7 type  2   force =     0.00000637   -0.00000637   -0.00000637
     atom    8 type  2   force =     0.00000637    0.00000637    0.00000637

     Total force =     0.017713     Total SCF correction =     0.000390


     Computing stress (Cartesian axis) and pressure

          total   stress  (Ry/bohr**3)                   (kbar)     P=      -42.23
  -0.00028709   0.00000000   0.00000000          -42.23        0.00        0.00
   0.00000000  -0.00028709   0.00000000            0.00      -42.23        0.00
   0.00000000   0.00000000  -0.00028709            0.00        0.00      -42.23

     kinetic stress (kbar)  35759.64      0.00      0.00
                                0.00  35759.64      0.00
                                0.00      0.00  35759.64

     local   stress (kbar) -10012.40     -0.00     -0.00
                               -0.00 -10012.40     -0.00
                               -0.00     -0.00 -10012.40

     nonloc. stress (kbar)   2427.37      0.00      0.00
                                0.00   2427.37      0.00
                                0.00      0.00   2427.37

     hartree stress (kbar)  15166.99     -0.00     -0.00
                               -0.00  15166.99     -0.00
                               -0.00     -0.00  15166.99

     exc-cor stress (kbar)  -1706.57     -0.00     -0.00
                               -0.00  -1706.57     -0.00
                               -0.00     -0.00  -1706.57

     corecor stress (kbar)  -5304.38     -0.00     -0.00
                               -0.00  -5304.38      0.00
                               -0.00      0.00  -5304.38

     ewald   stress (kbar) -36372.90      0.00      0.00
                                0.00 -36372.90      0.00
                                0.00      0.00 -36372.90

     hubbard stress (kbar)      0.00      0.00      0.00
                                0.00      0.00      0.00
                                0.00      0.00      0.00

     DFT-D   stress (kbar)      0.00      0.00      0.00
                                0.00      0.00      0.00
                                0.00      0.00      0.00

     XDM     stress (kbar)      0.00      0.00      0.00
                                0.00      0.00      0.00
                                0.00      0.00      0.00

     dft-nl  stress (kbar)      0.00      0.00      0.00
                                0.00      0.00      0.00
                                0.00      0.00      0.00

     TS-vdW  stress (kbar)      0.00      0.00      0.00
                                0.00      0.00      0.00
                                0.00      0.00      0.00



     Writing output data file /zfs_data/vergnior/martin/Scratch/OAL/CrSi/convergence/smearing/12x12x12/0.018/tmp/CrSi.save/
 
     init_run     :     17.83s CPU     18.39s WALL (       1 calls)
     electrons    :    563.09s CPU    573.30s WALL (       1 calls)
     forces       :     17.29s CPU     17.40s WALL (       1 calls)
     stress       :     42.57s CPU     42.89s WALL (       1 calls)

     Called by init_run:
     wfcinit      :     16.64s CPU     17.04s WALL (       1 calls)
     wfcinit:atom :      0.15s CPU      0.16s WALL (     119 calls)
     wfcinit:wfcr :     15.83s CPU     16.22s WALL (     119 calls)
     potinit      :      0.18s CPU      0.26s WALL (       1 calls)
     hinit0       :      0.18s CPU      0.18s WALL (       1 calls)

     Called by electrons:
     c_bands      :    473.05s CPU    480.46s WALL (       9 calls)
     sum_band     :     84.74s CPU     86.91s WALL (       9 calls)
     v_of_rho     :      0.21s CPU      0.22s WALL (       9 calls)
     v_h          :      0.02s CPU      0.02s WALL (       9 calls)
     v_xc         :      0.23s CPU      0.25s WALL (      11 calls)
     newd         :      4.35s CPU      4.96s WALL (       9 calls)
     PAW_pot      :      1.11s CPU      1.14s WALL (       9 calls)
     mix_rho      :      0.13s CPU      0.13s WALL (       9 calls)

     Called by c_bands:
     init_us_2    :      2.75s CPU      2.80s WALL (    2499 calls)
     cegterg      :    431.43s CPU    438.49s WALL (    1071 calls)

     Called by sum_band:
     sum_band:wei :      0.15s CPU      0.16s WALL (       9 calls)
     sum_band:loo :     81.41s CPU     82.77s WALL (       9 calls)
     sum_band:buf :      0.73s CPU      0.83s WALL (    1071 calls)
     sum_band:ini :      1.23s CPU      1.25s WALL (    1071 calls)
     sum_band:cal :      5.68s CPU      5.71s WALL (    1071 calls)
     sum_band:bec :     13.74s CPU     13.78s WALL (    1071 calls)
     addusdens    :      2.99s CPU      3.78s WALL (       9 calls)
     addusd:skk   :      0.01s CPU      0.01s WALL (      18 calls)
     addusd:dgemm :      1.17s CPU      1.93s WALL (      18 calls)
     addusd:qvan2 :      1.78s CPU      1.79s WALL (      18 calls)

     Called by *egterg:
     cdiaghg      :     42.05s CPU     42.20s WALL (    5769 calls)
     cegterg:over :     22.45s CPU     22.53s WALL (    4817 calls)
     cegterg:upda :     11.59s CPU     11.65s WALL (    4817 calls)
     cegterg:last :     22.96s CPU     23.04s WALL (    3115 calls)
     h_psi        :    294.24s CPU    301.14s WALL (    6007 calls)
     s_psi        :     42.59s CPU     42.74s WALL (    6007 calls)
     g_psi        :      0.70s CPU      0.70s WALL (    4817 calls)

     Called by h_psi:
     h_psi:calbec :     20.49s CPU     20.64s WALL (    6007 calls)
     vloc_psi     :    232.68s CPU    239.20s WALL (    6007 calls)
     add_vuspsi   :     39.65s CPU     39.87s WALL (    6007 calls)

     General routines
     calbec       :     28.93s CPU     29.13s WALL (    7673 calls)
     fft          :      0.21s CPU      0.22s WALL (     216 calls)
     ffts         :      0.02s CPU      0.09s WALL (      72 calls)
     fftw         :    214.77s CPU    220.62s WALL ( 1466268 calls)
     interpolate  :      0.05s CPU      0.12s WALL (      36 calls)
 
     Parallel routines
     fft_scatt_xy :     20.79s CPU     21.33s WALL ( 1466556 calls)
     fft_scatt_yz :     77.65s CPU     79.73s WALL ( 1466556 calls)

     PAW routines
     PAW_pot      :      1.11s CPU      1.14s WALL (       9 calls)
     PAW_symme    :      0.02s CPU      0.02s WALL (      18 calls)
 
     PWSCF        :  10m45.60s CPU  11m 1.13s WALL

 
   This run was terminated on:  12:51:48   1Aug2021            

=------------------------------------------------------------------------------=
   JOB DONE.
=------------------------------------------------------------------------------=
