
     Program PWSCF v.6.7MaX starts on 18May2022 at 17:37:33 

     This program is part of the open-source Quantum ESPRESSO suite
     for quantum simulation of materials; please cite
         "P. Giannozzi et al., J. Phys.:Condens. Matter 21 395502 (2009);
         "P. Giannozzi et al., J. Phys.:Condens. Matter 29 465901 (2017);
          URL http://www.quantum-espresso.org", 
     in publications or presentations arising from this work. More details at
     http://www.quantum-espresso.org/quote

     Parallel version (MPI), running on    48 processors

     MPI processes distributed on     1 nodes
     R & G space division:  proc/nbgrp/npool/nimage =      48
     Waiting for input...
     Reading input from standard input

     Current dimensions of program PWSCF are:
     Max number of different atomic species (ntypx) = 10
     Max number of k-points (npk) =  40000
     Max angular momentum in pseudopotentials (lmaxx) =  3
     file O.pbe-nl-kjpaw_psl.1.0.0.UPF: wavefunction(s)  2S 2P renormalized
     file Cl.pbe-nl-kjpaw_psl.1.0.0.UPF: wavefunction(s)  3S renormalized
     file Nb.pbe-spn-kjpaw_psl.1.0.0.UPF: wavefunction(s)  4S 4P 4D renormalized

     Subspace diagonalization in iterative solution of the eigenvalue problem:
     a serial algorithm will be used

     Message from routine setup:
     using ibrav=0 with symmetry is DISCOURAGED, use correct ibrav instead
 
     Parallelization info
     --------------------
     sticks:   dense  smooth     PW     G-vecs:    dense   smooth      PW
     Min         226      90     28                 8011     2025     357
     Max         227      91     29                 8013     2026     359
     Sum       10861    4353   1363               384583    97215   17183
 


     bravais-lattice index     =            0
     lattice parameter (alat)  =      12.6717  a.u.
     unit-cell volume          =     547.9313 (a.u.)^3
     number of atoms/cell      =            4
     number of atomic types    =            3
     number of electrons       =        33.00
     number of Kohn-Sham states=           21
     kinetic-energy cutoff     =     120.0000  Ry
     charge density cutoff     =    1200.0000  Ry
     scf convergence threshold =      1.0E-10
     mixing beta               =       0.7000
     number of iterations used =            8  plain     mixing
     Exchange-correlation= SLA  PW   PBX  PBC
                           (   1   4   3   4   0   0   0)

     celldm(1)=  12.671676  celldm(2)=   0.000000  celldm(3)=   0.000000
     celldm(4)=   0.000000  celldm(5)=   0.000000  celldm(6)=   0.000000

     crystal axes: (cart. coord. in units of alat)
               a(1) = (  -0.250426   0.291161   0.923316 )  
               a(2) = (   0.250426  -0.291161   0.923316 )  
               a(3) = (   0.250426   0.291161  -0.923316 )  

     reciprocal axes: (cart. coord. in units 2 pi/alat)
               b(1) = (  0.000000  1.717261  0.541527 )  
               b(2) = (  1.996594  0.000000  0.541527 )  
               b(3) = (  1.996594  1.717261  0.000000 )  


     PseudoPot. # 1 for O  read from file:
     /zfs_data/gutierre/Scratch/Cl2NbO/smearing/10x10x10/0.020/pseudo/O.pbe-nl-kjpaw_psl.1.0.0.UPF
     MD5 check sum: df3ddea38124b4e5de5e1084591730e4
     Pseudo is Projector augmented-wave + core cor, Zval =  6.0
     Generated using 'atomic' code by A. Dal Corso  v.6.7MaX
     Shape of augmentation charge: PSQ
     Using radial grid of 1095 points,  4 beta functions with: 
                l(1) =   0
                l(2) =   0
                l(3) =   1
                l(4) =   1
     Q(r) pseudized with 0 coefficients 


     PseudoPot. # 2 for Cl read from file:
     /zfs_data/gutierre/Scratch/Cl2NbO/smearing/10x10x10/0.020/pseudo/Cl.pbe-nl-kjpaw_psl.1.0.0.UPF
     MD5 check sum: 8cf6bde52c08f6236e0f72a8870677af
     Pseudo is Projector augmented-wave + core cor, Zval =  7.0
     Generated using 'atomic' code by A. Dal Corso  v.6.7MaX
     Shape of augmentation charge: PSQ
     Using radial grid of 1157 points,  4 beta functions with: 
                l(1) =   0
                l(2) =   0
                l(3) =   1
                l(4) =   1
     Q(r) pseudized with 0 coefficients 


     PseudoPot. # 3 for Nb read from file:
     /zfs_data/gutierre/Scratch/Cl2NbO/smearing/10x10x10/0.020/pseudo/Nb.pbe-spn-kjpaw_psl.1.0.0.UPF
     MD5 check sum: 1ec1a3aa7bf3cbf7f7e0d720422bce7a
     Pseudo is Projector augmented-wave + core cor, Zval = 13.0
     Generated using 'atomic' code by A. Dal Corso  v.6.7MaX
     Shape of augmentation charge: PSQ
     Using radial grid of 1227 points,  6 beta functions with: 
                l(1) =   0
                l(2) =   0
                l(3) =   1
                l(4) =   1
                l(5) =   2
                l(6) =   2
     Q(r) pseudized with 0 coefficients 


     atomic species   valence    mass     pseudopotential
        O              6.00    15.99940     O ( 1.00)
        Cl             7.00    35.45150     Cl( 1.00)
        Nb            13.00    92.90637     Nb( 1.00)

      8 Sym. Ops., with inversion, found


                                    s                        frac. trans.

      isym =  1     identity                                     

 cryst.   s( 1) = (     1          0          0      )
                  (     0          1          0      )
                  (     0          0          1      )

 cart.    s( 1) = (  1.0000000  0.0000000  0.0000000 )
                  (  0.0000000  1.0000000  0.0000000 )
                  (  0.0000000  0.0000000  1.0000000 )


      isym =  2     180 deg rotation - cart. axis [0,0,1]        

 cryst.   s( 2) = (     0          1          0      )
                  (     1          0          0      )
                  (    -1         -1         -1      )

 cart.    s( 2) = ( -1.0000000  0.0000000  0.0000000 )
                  (  0.0000000 -1.0000000  0.0000000 )
                  (  0.0000000  0.0000000  1.0000000 )


      isym =  3     180 deg rotation - cart. axis [0,1,0]        

 cryst.   s( 3) = (     0          0          1      )
                  (    -1         -1         -1      )
                  (     1          0          0      )

 cart.    s( 3) = ( -1.0000000  0.0000000  0.0000000 )
                  (  0.0000000  1.0000000  0.0000000 )
                  (  0.0000000  0.0000000 -1.0000000 )


      isym =  4     180 deg rotation - cart. axis [1,0,0]        

 cryst.   s( 4) = (    -1         -1         -1      )
                  (     0          0          1      )
                  (     0          1          0      )

 cart.    s( 4) = (  1.0000000  0.0000000  0.0000000 )
                  (  0.0000000 -1.0000000  0.0000000 )
                  (  0.0000000  0.0000000 -1.0000000 )


      isym =  5     inversion                                    

 cryst.   s( 5) = (    -1          0          0      )
                  (     0         -1          0      )
                  (     0          0         -1      )

 cart.    s( 5) = ( -1.0000000  0.0000000  0.0000000 )
                  (  0.0000000 -1.0000000  0.0000000 )
                  (  0.0000000  0.0000000 -1.0000000 )


      isym =  6     inv. 180 deg rotation - cart. axis [0,0,1]   

 cryst.   s( 6) = (     0         -1          0      )
                  (    -1          0          0      )
                  (     1          1          1      )

 cart.    s( 6) = (  1.0000000  0.0000000  0.0000000 )
                  (  0.0000000  1.0000000  0.0000000 )
                  (  0.0000000  0.0000000 -1.0000000 )


      isym =  7     inv. 180 deg rotation - cart. axis [0,1,0]   

 cryst.   s( 7) = (     0          0         -1      )
                  (     1          1          1      )
                  (    -1          0          0      )

 cart.    s( 7) = (  1.0000000  0.0000000  0.0000000 )
                  (  0.0000000 -1.0000000  0.0000000 )
                  (  0.0000000  0.0000000  1.0000000 )


      isym =  8     inv. 180 deg rotation - cart. axis [1,0,0]   

 cryst.   s( 8) = (     1          1          1      )
                  (     0          0         -1      )
                  (     0         -1          0      )

 cart.    s( 8) = ( -1.0000000  0.0000000  0.0000000 )
                  (  0.0000000  1.0000000  0.0000000 )
                  (  0.0000000  0.0000000  1.0000000 )


   Cartesian axes

     site n.     atom                  positions (alat units)
         1           O   tau(   1) = (   0.0000000   0.2911613   0.0000000  )
         2           Cl  tau(   2) = (  -0.0000000   0.2911613   0.6365338  )
         3           Cl  tau(   3) = (   0.2504264  -0.0000000   0.2867819  )
         4           Nb  tau(   4) = (   0.0000000   0.0000000   0.0000000  )

   Crystallographic axes

     site n.     atom                  positions (cryst. coord.)
         1           O   tau(   1) = (  0.5000000  0.0000000  0.5000000  )
         2           Cl  tau(   2) = (  0.8447000  0.3447000  0.5000000  )
         3           Cl  tau(   3) = (  0.1553000  0.6553000  0.5000000  )
         4           Nb  tau(   4) = (  0.0000000  0.0000000  0.0000000  )

     number of k points=   171  Methfessel-Paxton smearing, width (Ry)=  0.0200
                       cart. coord. in units 2pi/alat
        k(    1) = (   0.0000000   0.0000000   0.0000000), wk =   0.0020000
        k(    2) = (   0.1996594   0.1717261   0.0000000), wk =   0.0080000
        k(    3) = (   0.3993189   0.3434523   0.0000000), wk =   0.0080000
        k(    4) = (   0.5989783   0.5151784   0.0000000), wk =   0.0080000
        k(    5) = (   0.7986377   0.6869045   0.0000000), wk =   0.0080000
        k(    6) = (  -0.9982971  -0.8586307   0.0000000), wk =   0.0040000
        k(    7) = (   0.1996594   0.0000000   0.0541527), wk =   0.0080000
        k(    8) = (   0.3993189   0.1717261   0.0541527), wk =   0.0160000
        k(    9) = (   0.5989783   0.3434523   0.0541527), wk =   0.0160000
        k(   10) = (   0.7986377   0.5151784   0.0541527), wk =   0.0160000
        k(   11) = (   0.9982971   0.6869045   0.0541527), wk =   0.0160000
        k(   12) = (  -0.7986377  -0.8586307   0.0541527), wk =   0.0160000
        k(   13) = (  -0.5989783  -0.6869045   0.0541527), wk =   0.0160000
        k(   14) = (  -0.3993189  -0.5151784   0.0541527), wk =   0.0160000
        k(   15) = (  -0.1996594  -0.3434523   0.0541527), wk =   0.0160000
        k(   16) = (   0.0000000  -0.1717261   0.0541527), wk =   0.0080000
        k(   17) = (   0.3993189   0.0000000   0.1083053), wk =   0.0080000
        k(   18) = (   0.5989783   0.1717261   0.1083053), wk =   0.0160000
        k(   19) = (   0.7986377   0.3434523   0.1083053), wk =   0.0160000
        k(   20) = (   0.9982971   0.5151784   0.1083053), wk =   0.0160000
        k(   21) = (   1.1979566   0.6869045   0.1083053), wk =   0.0160000
        k(   22) = (  -0.5989783  -0.8586307   0.1083053), wk =   0.0160000
        k(   23) = (  -0.3993189  -0.6869045   0.1083053), wk =   0.0160000
        k(   24) = (  -0.1996594  -0.5151784   0.1083053), wk =   0.0160000
        k(   25) = (   0.0000000  -0.3434523   0.1083053), wk =   0.0080000
        k(   26) = (   0.1996594  -0.1717261   0.1083053), wk =   0.0160000
        k(   27) = (   0.5989783   0.0000000   0.1624580), wk =   0.0080000
        k(   28) = (   0.7986377   0.1717261   0.1624580), wk =   0.0160000
        k(   29) = (   0.9982971   0.3434523   0.1624580), wk =   0.0160000
        k(   30) = (   1.1979566   0.5151784   0.1624580), wk =   0.0160000
        k(   31) = (   1.3976160   0.6869045   0.1624580), wk =   0.0160000
        k(   32) = (  -0.3993189  -0.8586307   0.1624580), wk =   0.0160000
        k(   33) = (  -0.1996594  -0.6869045   0.1624580), wk =   0.0160000
        k(   34) = (  -0.0000000  -0.5151784   0.1624580), wk =   0.0080000
        k(   35) = (   0.1996594  -0.3434523   0.1624580), wk =   0.0160000
        k(   36) = (   0.3993189  -0.1717261   0.1624580), wk =   0.0160000
        k(   37) = (   0.7986377   0.0000000   0.2166107), wk =   0.0080000
        k(   38) = (   0.9982971   0.1717261   0.2166107), wk =   0.0160000
        k(   39) = (   1.1979566   0.3434523   0.2166107), wk =   0.0160000
        k(   40) = (   1.3976160   0.5151784   0.2166107), wk =   0.0160000
        k(   41) = (   1.5972754   0.6869045   0.2166107), wk =   0.0160000
        k(   42) = (  -0.1996594  -0.8586307   0.2166107), wk =   0.0160000
        k(   43) = (   0.0000000  -0.6869045   0.2166107), wk =   0.0080000
        k(   44) = (   0.1996594  -0.5151784   0.2166107), wk =   0.0160000
        k(   45) = (   0.3993189  -0.3434523   0.2166107), wk =   0.0160000
        k(   46) = (   0.5989783  -0.1717261   0.2166107), wk =   0.0160000
        k(   47) = (  -0.9982971   0.0000000  -0.2707633), wk =   0.0040000
        k(   48) = (  -0.7986377   0.1717261  -0.2707633), wk =   0.0160000
        k(   49) = (  -0.5989783   0.3434523  -0.2707633), wk =   0.0160000
        k(   50) = (  -0.3993189   0.5151784  -0.2707633), wk =   0.0160000
        k(   51) = (  -0.1996594   0.6869045  -0.2707633), wk =   0.0160000
        k(   52) = (  -1.9965943  -0.8586307  -0.2707633), wk =   0.0040000
        k(   53) = (   0.3993189   0.3434523   0.1083053), wk =   0.0160000
        k(   54) = (   0.5989783   0.5151784   0.1083053), wk =   0.0160000
        k(   55) = (   0.7986377   0.6869045   0.1083053), wk =   0.0160000
        k(   56) = (   0.9982971   0.8586307   0.1083053), wk =   0.0080000
        k(   57) = (   0.0000000   0.0000000   0.1083053), wk =   0.0040000
        k(   58) = (   0.5989783   0.3434523   0.1624580), wk =   0.0160000
        k(   59) = (   0.7986377   0.5151784   0.1624580), wk =   0.0160000
        k(   60) = (   0.9982971   0.6869045   0.1624580), wk =   0.0160000
        k(   61) = (   1.1979566   0.8586307   0.1624580), wk =   0.0160000
        k(   62) = (  -0.5989783  -0.6869045   0.1624580), wk =   0.0160000
        k(   63) = (  -0.3993189  -0.5151784   0.1624580), wk =   0.0160000
        k(   64) = (   0.0000000  -0.1717261   0.1624580), wk =   0.0080000
        k(   65) = (   0.1996594   0.0000000   0.1624580), wk =   0.0080000
        k(   66) = (   0.7986377   0.3434523   0.2166107), wk =   0.0160000
        k(   67) = (   0.9982971   0.5151784   0.2166107), wk =   0.0160000
        k(   68) = (   1.1979566   0.6869045   0.2166107), wk =   0.0160000
        k(   69) = (   1.3976160   0.8586307   0.2166107), wk =   0.0160000
        k(   70) = (  -0.3993189  -0.6869045   0.2166107), wk =   0.0160000
        k(   71) = (  -0.0000000  -0.3434523   0.2166107), wk =   0.0080000
        k(   72) = (   0.1996594  -0.1717261   0.2166107), wk =   0.0160000
        k(   73) = (   0.3993189   0.0000000   0.2166107), wk =   0.0080000
        k(   74) = (   0.9982971   0.3434523   0.2707633), wk =   0.0080000
        k(   75) = (   1.1979566   0.5151784   0.2707633), wk =   0.0160000
        k(   76) = (   1.3976160   0.6869045   0.2707633), wk =   0.0160000
        k(   77) = (   1.5972754   0.8586307   0.2707633), wk =   0.0080000
        k(   78) = (   0.0000000  -0.5151784   0.2707633), wk =   0.0080000
        k(   79) = (   0.1996594  -0.3434523   0.2707633), wk =   0.0160000
        k(   80) = (   0.3993189  -0.1717261   0.2707633), wk =   0.0160000
        k(   81) = (   0.5989783   0.0000000   0.2707633), wk =   0.0080000
        k(   82) = (  -0.5989783   0.5151784  -0.2166107), wk =   0.0160000
        k(   83) = (  -1.9965943  -0.6869045  -0.2166107), wk =   0.0080000
        k(   84) = (  -1.7969349  -0.5151784  -0.2166107), wk =   0.0160000
        k(   85) = (  -1.5972754  -0.3434523  -0.2166107), wk =   0.0160000
        k(   86) = (  -1.3976160  -0.1717261  -0.2166107), wk =   0.0160000
        k(   87) = (  -1.1979566   0.0000000  -0.2166107), wk =   0.0080000
        k(   88) = (   0.0000000   0.8586307  -0.1624580), wk =   0.0080000
        k(   89) = (  -1.7969349  -0.6869045  -0.1624580), wk =   0.0160000
        k(   90) = (  -1.5972754  -0.5151784  -0.1624580), wk =   0.0160000
        k(   91) = (  -1.3976160  -0.3434523  -0.1624580), wk =   0.0160000
        k(   92) = (  -1.1979566  -0.1717261  -0.1624580), wk =   0.0160000
        k(   93) = (  -0.9982971   0.0000000  -0.1624580), wk =   0.0080000
        k(   94) = (  -0.0000000   0.6869045  -0.1083053), wk =   0.0080000
        k(   95) = (   0.1996594   0.8586307  -0.1083053), wk =   0.0160000
        k(   96) = (  -1.5972754  -0.6869045  -0.1083053), wk =   0.0160000
        k(   97) = (  -1.3976160  -0.5151784  -0.1083053), wk =   0.0160000
        k(   98) = (  -1.1979566  -0.3434523  -0.1083053), wk =   0.0160000
        k(   99) = (  -0.9982971  -0.1717261  -0.1083053), wk =   0.0160000
        k(  100) = (  -0.7986377   0.0000000  -0.1083053), wk =   0.0080000
        k(  101) = (   0.0000000   0.5151784  -0.0541527), wk =   0.0080000
        k(  102) = (   0.1996594   0.6869045  -0.0541527), wk =   0.0160000
        k(  103) = (   0.3993189   0.8586307  -0.0541527), wk =   0.0160000
        k(  104) = (  -1.3976160  -0.6869045  -0.0541527), wk =   0.0160000
        k(  105) = (  -1.1979566  -0.5151784  -0.0541527), wk =   0.0160000
        k(  106) = (  -0.9982971  -0.3434523  -0.0541527), wk =   0.0160000
        k(  107) = (  -0.7986377  -0.1717261  -0.0541527), wk =   0.0160000
        k(  108) = (  -0.5989783   0.0000000  -0.0541527), wk =   0.0080000
        k(  109) = (   0.0000000   0.3434523   0.0000000), wk =   0.0040000
        k(  110) = (   0.1996594   0.5151784   0.0000000), wk =   0.0080000
        k(  111) = (   0.3993189   0.6869045   0.0000000), wk =   0.0080000
        k(  112) = (   0.5989783   0.8586307   0.0000000), wk =   0.0080000
        k(  113) = (  -1.1979566  -0.6869045   0.0000000), wk =   0.0080000
        k(  114) = (  -0.9982971  -0.5151784   0.0000000), wk =   0.0080000
        k(  115) = (  -0.7986377  -0.3434523   0.0000000), wk =   0.0080000
        k(  116) = (  -0.5989783  -0.1717261   0.0000000), wk =   0.0080000
        k(  117) = (  -0.3993189   0.0000000   0.0000000), wk =   0.0040000
        k(  118) = (   0.7986377   0.6869045   0.2166107), wk =   0.0160000
        k(  119) = (   0.9982971   0.8586307   0.2166107), wk =   0.0080000
        k(  120) = (   0.0000000   0.0000000   0.2166107), wk =   0.0040000
        k(  121) = (   0.9982971   0.6869045   0.2707633), wk =   0.0080000
        k(  122) = (   1.1979566   0.8586307   0.2707633), wk =   0.0080000
        k(  123) = (  -0.0000000  -0.1717261   0.2707633), wk =   0.0080000
        k(  124) = (   0.1996594   0.0000000   0.2707633), wk =   0.0080000
        k(  125) = (   0.0000000  -0.3434523   0.3249160), wk =   0.0080000
        k(  126) = (   0.1996594  -0.1717261   0.3249160), wk =   0.0160000
        k(  127) = (   0.3993189   0.0000000   0.3249160), wk =   0.0080000
        k(  128) = (  -1.9965943  -0.5151784  -0.1624580), wk =   0.0080000
        k(  129) = (  -1.7969349  -0.3434523  -0.1624580), wk =   0.0160000
        k(  130) = (  -1.5972754  -0.1717261  -0.1624580), wk =   0.0160000
        k(  131) = (  -1.3976160   0.0000000  -0.1624580), wk =   0.0080000
        k(  132) = (   0.0000000   1.0303568  -0.1083053), wk =   0.0080000
        k(  133) = (  -1.7969349  -0.5151784  -0.1083053), wk =   0.0160000
        k(  134) = (  -1.5972754  -0.3434523  -0.1083053), wk =   0.0160000
        k(  135) = (  -1.3976160  -0.1717261  -0.1083053), wk =   0.0160000
        k(  136) = (  -1.1979566   0.0000000  -0.1083053), wk =   0.0080000
        k(  137) = (  -0.0000000   0.8586307  -0.0541527), wk =   0.0080000
        k(  138) = (   0.1996594   1.0303568  -0.0541527), wk =   0.0160000
        k(  139) = (  -1.5972754  -0.5151784  -0.0541527), wk =   0.0160000
        k(  140) = (  -1.3976160  -0.3434523  -0.0541527), wk =   0.0160000
        k(  141) = (  -1.1979566  -0.1717261  -0.0541527), wk =   0.0160000
        k(  142) = (  -0.9982971   0.0000000  -0.0541527), wk =   0.0080000
        k(  143) = (   0.0000000   0.6869045   0.0000000), wk =   0.0040000
        k(  144) = (   0.1996594   0.8586307   0.0000000), wk =   0.0080000
        k(  145) = (   0.3993189   1.0303568   0.0000000), wk =   0.0080000
        k(  146) = (  -1.3976160  -0.5151784   0.0000000), wk =   0.0080000
        k(  147) = (  -1.1979566  -0.3434523   0.0000000), wk =   0.0080000
        k(  148) = (  -0.9982971  -0.1717261   0.0000000), wk =   0.0080000
        k(  149) = (  -0.7986377   0.0000000   0.0000000), wk =   0.0040000
        k(  150) = (  -0.0000000   0.0000000   0.3249160), wk =   0.0040000
        k(  151) = (   0.0000000  -0.1717261   0.3790686), wk =   0.0080000
        k(  152) = (   0.1996594   0.0000000   0.3790686), wk =   0.0080000
        k(  153) = (  -1.9965943  -0.3434523  -0.1083053), wk =   0.0080000
        k(  154) = (  -1.7969349  -0.1717261  -0.1083053), wk =   0.0160000
        k(  155) = (  -1.5972754   0.0000000  -0.1083053), wk =   0.0080000
        k(  156) = (   0.0000000   1.2020829  -0.0541527), wk =   0.0080000
        k(  157) = (  -1.7969349  -0.3434523  -0.0541527), wk =   0.0160000
        k(  158) = (  -1.5972754  -0.1717261  -0.0541527), wk =   0.0160000
        k(  159) = (  -1.3976160   0.0000000  -0.0541527), wk =   0.0080000
        k(  160) = (  -0.0000000   1.0303568  -0.0000000), wk =   0.0040000
        k(  161) = (   0.1996594   1.2020829  -0.0000000), wk =   0.0080000
        k(  162) = (  -1.5972754  -0.3434523  -0.0000000), wk =   0.0080000
        k(  163) = (  -1.3976160  -0.1717261  -0.0000000), wk =   0.0080000
        k(  164) = (  -1.1979566   0.0000000  -0.0000000), wk =   0.0040000
        k(  165) = (   0.0000000   0.0000000   0.4332213), wk =   0.0040000
        k(  166) = (  -1.9965943  -0.1717261  -0.0541527), wk =   0.0080000
        k(  167) = (  -1.7969349   0.0000000  -0.0541527), wk =   0.0080000
        k(  168) = (   0.0000000   1.3738091   0.0000000), wk =   0.0040000
        k(  169) = (  -1.7969349  -0.1717261   0.0000000), wk =   0.0080000
        k(  170) = (  -1.5972754   0.0000000   0.0000000), wk =   0.0040000
        k(  171) = (  -1.9965943  -1.7172613  -0.5415266), wk =   0.0020000

                       cryst. coord.
        k(    1) = (   0.0000000   0.0000000   0.0000000), wk =   0.0020000
        k(    2) = (  -0.0000000   0.0000000   0.1000000), wk =   0.0080000
        k(    3) = (  -0.0000000   0.0000000   0.2000000), wk =   0.0080000
        k(    4) = (   0.0000000   0.0000000   0.3000000), wk =   0.0080000
        k(    5) = (  -0.0000000   0.0000000   0.4000000), wk =   0.0080000
        k(    6) = (   0.0000000   0.0000000  -0.5000000), wk =   0.0040000
        k(    7) = (  -0.0000000   0.1000000   0.0000000), wk =   0.0080000
        k(    8) = (  -0.0000000   0.1000000   0.1000000), wk =   0.0160000
        k(    9) = (  -0.0000000   0.1000000   0.2000000), wk =   0.0160000
        k(   10) = (  -0.0000000   0.1000000   0.3000000), wk =   0.0160000
        k(   11) = (  -0.0000000   0.1000000   0.4000000), wk =   0.0160000
        k(   12) = (   0.0000000   0.1000000  -0.5000000), wk =   0.0160000
        k(   13) = (   0.0000000   0.1000000  -0.4000000), wk =   0.0160000
        k(   14) = (   0.0000000   0.1000000  -0.3000000), wk =   0.0160000
        k(   15) = (   0.0000000   0.1000000  -0.2000000), wk =   0.0160000
        k(   16) = (   0.0000000   0.1000000  -0.1000000), wk =   0.0080000
        k(   17) = (  -0.0000000   0.2000000   0.0000000), wk =   0.0080000
        k(   18) = (  -0.0000000   0.2000000   0.1000000), wk =   0.0160000
        k(   19) = (  -0.0000000   0.2000000   0.2000000), wk =   0.0160000
        k(   20) = (   0.0000000   0.2000000   0.3000000), wk =   0.0160000
        k(   21) = (  -0.0000000   0.2000000   0.4000000), wk =   0.0160000
        k(   22) = (   0.0000000   0.2000000  -0.5000000), wk =   0.0160000
        k(   23) = (   0.0000000   0.2000000  -0.4000000), wk =   0.0160000
        k(   24) = (   0.0000000   0.2000000  -0.3000000), wk =   0.0160000
        k(   25) = (   0.0000000   0.2000000  -0.2000000), wk =   0.0080000
        k(   26) = (   0.0000000   0.2000000  -0.1000000), wk =   0.0160000
        k(   27) = (   0.0000000   0.3000000   0.0000000), wk =   0.0080000
        k(   28) = (  -0.0000000   0.3000000   0.1000000), wk =   0.0160000
        k(   29) = (   0.0000000   0.3000000   0.2000000), wk =   0.0160000
        k(   30) = (   0.0000000   0.3000000   0.3000000), wk =   0.0160000
        k(   31) = (  -0.0000000   0.3000000   0.4000000), wk =   0.0160000
        k(   32) = (   0.0000000   0.3000000  -0.5000000), wk =   0.0160000
        k(   33) = (   0.0000000   0.3000000  -0.4000000), wk =   0.0160000
        k(   34) = (   0.0000000   0.3000000  -0.3000000), wk =   0.0080000
        k(   35) = (   0.0000000   0.3000000  -0.2000000), wk =   0.0160000
        k(   36) = (   0.0000000   0.3000000  -0.1000000), wk =   0.0160000
        k(   37) = (  -0.0000000   0.4000000   0.0000000), wk =   0.0080000
        k(   38) = (  -0.0000000   0.4000000   0.1000000), wk =   0.0160000
        k(   39) = (  -0.0000000   0.4000000   0.2000000), wk =   0.0160000
        k(   40) = (  -0.0000000   0.4000000   0.3000000), wk =   0.0160000
        k(   41) = (  -0.0000000   0.4000000   0.4000000), wk =   0.0160000
        k(   42) = (   0.0000000   0.4000000  -0.5000000), wk =   0.0160000
        k(   43) = (   0.0000000   0.4000000  -0.4000000), wk =   0.0080000
        k(   44) = (   0.0000000   0.4000000  -0.3000000), wk =   0.0160000
        k(   45) = (   0.0000000   0.4000000  -0.2000000), wk =   0.0160000
        k(   46) = (  -0.0000000   0.4000000  -0.1000000), wk =   0.0160000
        k(   47) = (   0.0000000  -0.5000000   0.0000000), wk =   0.0040000
        k(   48) = (   0.0000000  -0.5000000   0.1000000), wk =   0.0160000
        k(   49) = (   0.0000000  -0.5000000   0.2000000), wk =   0.0160000
        k(   50) = (   0.0000000  -0.5000000   0.3000000), wk =   0.0160000
        k(   51) = (   0.0000000  -0.5000000   0.4000000), wk =   0.0160000
        k(   52) = (   0.0000000  -0.5000000  -0.5000000), wk =   0.0040000
        k(   53) = (   0.1000000   0.1000000   0.1000000), wk =   0.0160000
        k(   54) = (   0.1000000   0.1000000   0.2000000), wk =   0.0160000
        k(   55) = (   0.1000000   0.1000000   0.3000000), wk =   0.0160000
        k(   56) = (   0.1000000   0.1000000   0.4000000), wk =   0.0080000
        k(   57) = (   0.1000000   0.1000000  -0.1000000), wk =   0.0040000
        k(   58) = (   0.1000000   0.2000000   0.1000000), wk =   0.0160000
        k(   59) = (   0.1000000   0.2000000   0.2000000), wk =   0.0160000
        k(   60) = (   0.1000000   0.2000000   0.3000000), wk =   0.0160000
        k(   61) = (   0.1000000   0.2000000   0.4000000), wk =   0.0160000
        k(   62) = (   0.1000000   0.2000000  -0.5000000), wk =   0.0160000
        k(   63) = (   0.1000000   0.2000000  -0.4000000), wk =   0.0160000
        k(   64) = (   0.1000000   0.2000000  -0.2000000), wk =   0.0080000
        k(   65) = (   0.1000000   0.2000000  -0.1000000), wk =   0.0080000
        k(   66) = (   0.1000000   0.3000000   0.1000000), wk =   0.0160000
        k(   67) = (   0.1000000   0.3000000   0.2000000), wk =   0.0160000
        k(   68) = (   0.1000000   0.3000000   0.3000000), wk =   0.0160000
        k(   69) = (   0.1000000   0.3000000   0.4000000), wk =   0.0160000
        k(   70) = (   0.1000000   0.3000000  -0.5000000), wk =   0.0160000
        k(   71) = (   0.1000000   0.3000000  -0.3000000), wk =   0.0080000
        k(   72) = (   0.1000000   0.3000000  -0.2000000), wk =   0.0160000
        k(   73) = (   0.1000000   0.3000000  -0.1000000), wk =   0.0080000
        k(   74) = (   0.1000000   0.4000000   0.1000000), wk =   0.0080000
        k(   75) = (   0.1000000   0.4000000   0.2000000), wk =   0.0160000
        k(   76) = (   0.1000000   0.4000000   0.3000000), wk =   0.0160000
        k(   77) = (   0.1000000   0.4000000   0.4000000), wk =   0.0080000
        k(   78) = (   0.1000000   0.4000000  -0.4000000), wk =   0.0080000
        k(   79) = (   0.1000000   0.4000000  -0.3000000), wk =   0.0160000
        k(   80) = (   0.1000000   0.4000000  -0.2000000), wk =   0.0160000
        k(   81) = (   0.1000000   0.4000000  -0.1000000), wk =   0.0080000
        k(   82) = (   0.1000000  -0.5000000   0.2000000), wk =   0.0160000
        k(   83) = (   0.1000000  -0.5000000  -0.5000000), wk =   0.0080000
        k(   84) = (   0.1000000  -0.5000000  -0.4000000), wk =   0.0160000
        k(   85) = (   0.1000000  -0.5000000  -0.3000000), wk =   0.0160000
        k(   86) = (   0.1000000  -0.5000000  -0.2000000), wk =   0.0160000
        k(   87) = (   0.1000000  -0.5000000  -0.1000000), wk =   0.0080000
        k(   88) = (   0.1000000  -0.4000000   0.4000000), wk =   0.0080000
        k(   89) = (   0.1000000  -0.4000000  -0.5000000), wk =   0.0160000
        k(   90) = (   0.1000000  -0.4000000  -0.4000000), wk =   0.0160000
        k(   91) = (   0.1000000  -0.4000000  -0.3000000), wk =   0.0160000
        k(   92) = (   0.1000000  -0.4000000  -0.2000000), wk =   0.0160000
        k(   93) = (   0.1000000  -0.4000000  -0.1000000), wk =   0.0080000
        k(   94) = (   0.1000000  -0.3000000   0.3000000), wk =   0.0080000
        k(   95) = (   0.1000000  -0.3000000   0.4000000), wk =   0.0160000
        k(   96) = (   0.1000000  -0.3000000  -0.5000000), wk =   0.0160000
        k(   97) = (   0.1000000  -0.3000000  -0.4000000), wk =   0.0160000
        k(   98) = (   0.1000000  -0.3000000  -0.3000000), wk =   0.0160000
        k(   99) = (   0.1000000  -0.3000000  -0.2000000), wk =   0.0160000
        k(  100) = (   0.1000000  -0.3000000  -0.1000000), wk =   0.0080000
        k(  101) = (   0.1000000  -0.2000000   0.2000000), wk =   0.0080000
        k(  102) = (   0.1000000  -0.2000000   0.3000000), wk =   0.0160000
        k(  103) = (   0.1000000  -0.2000000   0.4000000), wk =   0.0160000
        k(  104) = (   0.1000000  -0.2000000  -0.5000000), wk =   0.0160000
        k(  105) = (   0.1000000  -0.2000000  -0.4000000), wk =   0.0160000
        k(  106) = (   0.1000000  -0.2000000  -0.3000000), wk =   0.0160000
        k(  107) = (   0.1000000  -0.2000000  -0.2000000), wk =   0.0160000
        k(  108) = (   0.1000000  -0.2000000  -0.1000000), wk =   0.0080000
        k(  109) = (   0.1000000  -0.1000000   0.1000000), wk =   0.0040000
        k(  110) = (   0.1000000  -0.1000000   0.2000000), wk =   0.0080000
        k(  111) = (   0.1000000  -0.1000000   0.3000000), wk =   0.0080000
        k(  112) = (   0.1000000  -0.1000000   0.4000000), wk =   0.0080000
        k(  113) = (   0.1000000  -0.1000000  -0.5000000), wk =   0.0080000
        k(  114) = (   0.1000000  -0.1000000  -0.4000000), wk =   0.0080000
        k(  115) = (   0.1000000  -0.1000000  -0.3000000), wk =   0.0080000
        k(  116) = (   0.1000000  -0.1000000  -0.2000000), wk =   0.0080000
        k(  117) = (   0.1000000  -0.1000000  -0.1000000), wk =   0.0040000
        k(  118) = (   0.2000000   0.2000000   0.2000000), wk =   0.0160000
        k(  119) = (   0.2000000   0.2000000   0.3000000), wk =   0.0080000
        k(  120) = (   0.2000000   0.2000000  -0.2000000), wk =   0.0040000
        k(  121) = (   0.2000000   0.3000000   0.2000000), wk =   0.0080000
        k(  122) = (   0.2000000   0.3000000   0.3000000), wk =   0.0080000
        k(  123) = (   0.2000000   0.3000000  -0.3000000), wk =   0.0080000
        k(  124) = (   0.2000000   0.3000000  -0.2000000), wk =   0.0080000
        k(  125) = (   0.2000000   0.4000000  -0.4000000), wk =   0.0080000
        k(  126) = (   0.2000000   0.4000000  -0.3000000), wk =   0.0160000
        k(  127) = (   0.2000000   0.4000000  -0.2000000), wk =   0.0080000
        k(  128) = (   0.2000000  -0.5000000  -0.5000000), wk =   0.0080000
        k(  129) = (   0.2000000  -0.5000000  -0.4000000), wk =   0.0160000
        k(  130) = (   0.2000000  -0.5000000  -0.3000000), wk =   0.0160000
        k(  131) = (   0.2000000  -0.5000000  -0.2000000), wk =   0.0080000
        k(  132) = (   0.2000000  -0.4000000   0.4000000), wk =   0.0080000
        k(  133) = (   0.2000000  -0.4000000  -0.5000000), wk =   0.0160000
        k(  134) = (   0.2000000  -0.4000000  -0.4000000), wk =   0.0160000
        k(  135) = (   0.2000000  -0.4000000  -0.3000000), wk =   0.0160000
        k(  136) = (   0.2000000  -0.4000000  -0.2000000), wk =   0.0080000
        k(  137) = (   0.2000000  -0.3000000   0.3000000), wk =   0.0080000
        k(  138) = (   0.2000000  -0.3000000   0.4000000), wk =   0.0160000
        k(  139) = (   0.2000000  -0.3000000  -0.5000000), wk =   0.0160000
        k(  140) = (   0.2000000  -0.3000000  -0.4000000), wk =   0.0160000
        k(  141) = (   0.2000000  -0.3000000  -0.3000000), wk =   0.0160000
        k(  142) = (   0.2000000  -0.3000000  -0.2000000), wk =   0.0080000
        k(  143) = (   0.2000000  -0.2000000   0.2000000), wk =   0.0040000
        k(  144) = (   0.2000000  -0.2000000   0.3000000), wk =   0.0080000
        k(  145) = (   0.2000000  -0.2000000   0.4000000), wk =   0.0080000
        k(  146) = (   0.2000000  -0.2000000  -0.5000000), wk =   0.0080000
        k(  147) = (   0.2000000  -0.2000000  -0.4000000), wk =   0.0080000
        k(  148) = (   0.2000000  -0.2000000  -0.3000000), wk =   0.0080000
        k(  149) = (   0.2000000  -0.2000000  -0.2000000), wk =   0.0040000
        k(  150) = (   0.3000000   0.3000000  -0.3000000), wk =   0.0040000
        k(  151) = (   0.3000000   0.4000000  -0.4000000), wk =   0.0080000
        k(  152) = (   0.3000000   0.4000000  -0.3000000), wk =   0.0080000
        k(  153) = (   0.3000000  -0.5000000  -0.5000000), wk =   0.0080000
        k(  154) = (   0.3000000  -0.5000000  -0.4000000), wk =   0.0160000
        k(  155) = (   0.3000000  -0.5000000  -0.3000000), wk =   0.0080000
        k(  156) = (   0.3000000  -0.4000000   0.4000000), wk =   0.0080000
        k(  157) = (   0.3000000  -0.4000000  -0.5000000), wk =   0.0160000
        k(  158) = (   0.3000000  -0.4000000  -0.4000000), wk =   0.0160000
        k(  159) = (   0.3000000  -0.4000000  -0.3000000), wk =   0.0080000
        k(  160) = (   0.3000000  -0.3000000   0.3000000), wk =   0.0040000
        k(  161) = (   0.3000000  -0.3000000   0.4000000), wk =   0.0080000
        k(  162) = (   0.3000000  -0.3000000  -0.5000000), wk =   0.0080000
        k(  163) = (   0.3000000  -0.3000000  -0.4000000), wk =   0.0080000
        k(  164) = (   0.3000000  -0.3000000  -0.3000000), wk =   0.0040000
        k(  165) = (   0.4000000   0.4000000  -0.4000000), wk =   0.0040000
        k(  166) = (   0.4000000  -0.5000000  -0.5000000), wk =   0.0080000
        k(  167) = (   0.4000000  -0.5000000  -0.4000000), wk =   0.0080000
        k(  168) = (   0.4000000  -0.4000000   0.4000000), wk =   0.0040000
        k(  169) = (   0.4000000  -0.4000000  -0.5000000), wk =   0.0080000
        k(  170) = (   0.4000000  -0.4000000  -0.4000000), wk =   0.0040000
        k(  171) = (  -0.5000000  -0.5000000  -0.5000000), wk =   0.0020000

     Dense  grid:   384583 G-vectors     FFT dimensions: ( 144, 144, 144)

     Smooth grid:    97215 G-vectors     FFT dimensions: (  90,  90,  90)

     Dynamical RAM for                 wfc:       0.08 MB

     Dynamical RAM for     wfc (w. buffer):      13.94 MB

     Dynamical RAM for           str. fact:       0.37 MB

     Dynamical RAM for           local pot:       0.00 MB

     Dynamical RAM for          nlocal pot:       0.16 MB

     Dynamical RAM for                qrad:       8.33 MB

     Dynamical RAM for          rho,v,vnew:       1.79 MB

     Dynamical RAM for               rhoin:       0.60 MB

     Dynamical RAM for            rho*nmix:       1.96 MB

     Dynamical RAM for           G-vectors:       0.47 MB

     Dynamical RAM for          h,s,v(r/c):       0.08 MB

     Dynamical RAM for          <psi|beta>:       0.01 MB

     Dynamical RAM for                 psi:       0.16 MB

     Dynamical RAM for                hpsi:       0.16 MB

     Dynamical RAM for                spsi:       0.16 MB

     Dynamical RAM for      wfcinit/wfcrot:       0.21 MB

     Dynamical RAM for           addusdens:      22.98 MB

     Dynamical RAM for          addusforce:      23.30 MB

     Dynamical RAM for         addusstress:      24.57 MB

     Estimated static dynamical RAM per process >      30.49 MB

     Estimated max dynamical RAM per process >      55.06 MB

     Estimated total dynamical RAM >       2.58 GB

     Initial potential from superposition of free atoms

     starting charge   32.99867, renormalised to   33.00000
     Starting wfcs are   25 randomized atomic wfcs
     Checking if some PAW data can be deallocated... 
       PAW data deallocated on   36 nodes for type:  1
       PAW data deallocated on   24 nodes for type:  2
       PAW data deallocated on   36 nodes for type:  3

     total cpu time spent up to now is        4.9 secs

     Self-consistent Calculation

     iteration #  1     ecut=   120.00 Ry     beta= 0.70
     Davidson diagonalization with overlap
     ethr =  1.00E-02,  avg # of iterations =  2.2

     total cpu time spent up to now is       13.3 secs

     total energy              =    -534.52911938 Ry
     estimated scf accuracy    <       0.76107280 Ry

     iteration #  2     ecut=   120.00 Ry     beta= 0.70
     Davidson diagonalization with overlap
     ethr =  2.31E-03,  avg # of iterations =  3.8

     total cpu time spent up to now is       23.2 secs

     total energy              =    -533.59388429 Ry
     estimated scf accuracy    <       8.55043160 Ry

     iteration #  3     ecut=   120.00 Ry     beta= 0.70
     Davidson diagonalization with overlap
     ethr =  2.31E-03,  avg # of iterations =  3.5

     total cpu time spent up to now is       32.4 secs

     total energy              =    -534.97557295 Ry
     estimated scf accuracy    <       0.12714156 Ry

     iteration #  4     ecut=   120.00 Ry     beta= 0.70
     Davidson diagonalization with overlap
     ethr =  3.85E-04,  avg # of iterations =  1.3

     total cpu time spent up to now is       39.9 secs

     total energy              =    -534.96783207 Ry
     estimated scf accuracy    <       0.06117103 Ry

     iteration #  5     ecut=   120.00 Ry     beta= 0.70
     Davidson diagonalization with overlap
     ethr =  1.85E-04,  avg # of iterations =  1.5

     total cpu time spent up to now is       47.3 secs

     total energy              =    -534.96479383 Ry
     estimated scf accuracy    <       0.02279786 Ry

     iteration #  6     ecut=   120.00 Ry     beta= 0.70
     Davidson diagonalization with overlap
     ethr =  6.91E-05,  avg # of iterations =  1.9

     total cpu time spent up to now is       55.0 secs

     total energy              =    -534.96715191 Ry
     estimated scf accuracy    <       0.00076823 Ry

     iteration #  7     ecut=   120.00 Ry     beta= 0.70
     Davidson diagonalization with overlap
     ethr =  2.33E-06,  avg # of iterations =  3.4

     total cpu time spent up to now is       64.7 secs

     total energy              =    -534.96738961 Ry
     estimated scf accuracy    <       0.00017795 Ry

     iteration #  8     ecut=   120.00 Ry     beta= 0.70
     Davidson diagonalization with overlap
     ethr =  5.39E-07,  avg # of iterations =  1.3

     total cpu time spent up to now is       72.1 secs

     total energy              =    -534.96738747 Ry
     estimated scf accuracy    <       0.00003623 Ry

     iteration #  9     ecut=   120.00 Ry     beta= 0.70
     Davidson diagonalization with overlap
     ethr =  1.10E-07,  avg # of iterations =  2.0

     total cpu time spent up to now is       80.3 secs

     total energy              =    -534.96739603 Ry
     estimated scf accuracy    <       0.00000119 Ry

     iteration # 10     ecut=   120.00 Ry     beta= 0.70
     Davidson diagonalization with overlap
     ethr =  3.60E-09,  avg # of iterations =  3.6

     total cpu time spent up to now is       89.9 secs

     total energy              =    -534.96739648 Ry
     estimated scf accuracy    <          7.3E-09 Ry

     iteration # 11     ecut=   120.00 Ry     beta= 0.70
     Davidson diagonalization with overlap
     ethr =  2.20E-11,  avg # of iterations =  5.2

     total cpu time spent up to now is      103.0 secs

     total energy              =    -534.96739649 Ry
     estimated scf accuracy    <       0.00000002 Ry

     iteration # 12     ecut=   120.00 Ry     beta= 0.70
     Davidson diagonalization with overlap
     ethr =  2.20E-11,  avg # of iterations =  2.9

     total cpu time spent up to now is      111.8 secs

     total energy              =    -534.96739649 Ry
     estimated scf accuracy    <          5.1E-10 Ry

     iteration # 13     ecut=   120.00 Ry     beta= 0.70
     Davidson diagonalization with overlap
     ethr =  1.54E-12,  avg # of iterations =  2.0

     total cpu time spent up to now is      119.6 secs

     End of self-consistent calculation

          k = 0.0000 0.0000 0.0000 ( 12131 PWs)   bands (ev):

   -49.8723 -26.1390 -25.7978 -25.7130 -12.4338  -9.4984  -8.8084   0.6388
     2.4880   2.7208   2.8782   2.9621   3.4339   3.9407   4.1911   4.2870
     5.5214   7.1828   7.3245   8.6636   9.3638

     occupation numbers 
     1.0000   1.0000   1.0000   1.0000   1.0000   1.0000   1.0000   1.0000
     1.0000   1.0000   1.0000   1.0000   1.0000   1.0000   1.0000   1.0000
     1.0000  -0.0145  -0.0025  -0.0000  -0.0000

          k = 0.1997 0.1717 0.0000 ( 12123 PWs)   bands (ev):

   -49.8706 -26.1553 -25.7935 -25.7332 -12.3074  -9.4279  -8.8132   0.7754
     2.2274   2.3470   2.5913   3.1363   3.2685   3.7437   3.8838   4.0620
     5.8208   7.3937   7.4813   8.7231   9.8431

     occupation numbers 
     1.0000   1.0000   1.0000   1.0000   1.0000   1.0000   1.0000   1.0000
     1.0000   1.0000   1.0000   1.0000   1.0000   1.0000   1.0000   1.0000
     1.0000  -0.0008  -0.0002  -0.0000  -0.0000

          k = 0.3993 0.3435 0.0000 ( 12142 PWs)   bands (ev):

   -49.8662 -26.1972 -25.7855 -25.7823 -11.9634  -9.2361  -8.8276   1.1423
     1.6474   1.8250   2.0521   2.3888   2.7083   3.1643   3.8736   4.0016
     6.4440   7.8560   7.9290   8.9862  10.7721

     occupation numbers 
     1.0000   1.0000   1.0000   1.0000   1.0000   1.0000   1.0000   1.0000
     1.0000   1.0000   1.0000   1.0000   1.0000   1.0000   1.0000   1.0000
     1.0141  -0.0000  -0.0000  -0.0000  -0.0000

          k = 0.5990 0.5152 0.0000 ( 12161 PWs)   bands (ev):

   -49.8606 -26.2474 -25.8493 -25.7684 -11.5074  -8.9824  -8.8488   0.5343
     1.4189   1.6655   1.7262   1.8167   1.8770   2.6908   3.7402   4.0100
     7.2439   8.4222   8.5719   9.3616  11.3240

     occupation numbers 
     1.0000   1.0000   1.0000   1.0000   1.0000   1.0000   1.0000   1.0000
     1.0000   1.0000   1.0000   1.0000   1.0000   1.0000   1.0000   1.0000
    -0.0074  -0.0000  -0.0000  -0.0000  -0.0000

          k = 0.7986 0.6869 0.0000 ( 12158 PWs)   bands (ev):

   -49.8562 -26.2868 -25.9001 -25.7572 -11.1062  -8.8689  -8.7601  -0.3051
     0.8231   1.1693   1.6798   1.7855   2.2196   2.3324   3.4488   3.9503
     8.0738   8.9324   9.1371   9.6525  11.3630

     occupation numbers 
     1.0000   1.0000   1.0000   1.0000   1.0000   1.0000   1.0000   1.0000
     1.0000   1.0000   1.0000   1.0000   1.0000   1.0000   1.0000   1.0000
    -0.0000  -0.0000  -0.0000  -0.0000  -0.0000

          k =-0.9983-0.8586 0.0000 ( 12140 PWs)   bands (ev):

   -49.8545 -26.3015 -25.9193 -25.7530 -10.9434  -8.8772  -8.6701  -0.6242
     0.5835   0.9679   1.7529   1.8513   1.9627   2.5983   3.2782   3.8772
     8.4804   9.1524   9.3404   9.7798  11.3926

     occupation numbers 
     1.0000   1.0000   1.0000   1.0000   1.0000   1.0000   1.0000   1.0000
     1.0000   1.0000   1.0000   1.0000   1.0000   1.0000   1.0000   1.0000
    -0.0000  -0.0000  -0.0000  -0.0000  -0.0000

          k = 0.1997 0.0000 0.0542 ( 12144 PWs)   bands (ev):

   -49.8710 -26.1374 -25.7942 -25.7338 -12.4226  -9.4404  -8.8169   0.7629
     2.3388   2.6820   2.9217   3.0046   3.2290   3.8743   3.9729   4.1375
     5.8090   7.1246   7.2862   8.7122   9.6263

     occupation numbers 
     1.0000   1.0000   1.0000   1.0000   1.0000   1.0000   1.0000   1.0000
     1.0000   1.0000   1.0000   1.0000   1.0000   1.0000   1.0000   1.0000
     1.0000  -0.0238  -0.0043  -0.0000  -0.0000

          k = 0.3993 0.1717 0.0542 ( 12149 PWs)   bands (ev):

   -49.8670 -26.1510 -25.7872 -25.7840 -12.2784  -9.2758  -8.8292   1.0763
     2.0452   2.2937   2.5375   2.6219   3.1370   3.2186   3.8539   4.0544
     6.4118   7.2408   7.3664   8.9721  10.2798

     occupation numbers 
     1.0000   1.0000   1.0000   1.0000   1.0000   1.0000   1.0000   1.0000
     1.0000   1.0000   1.0000   1.0000   1.0000   1.0000   1.0000   1.0000
     1.0284  -0.0077  -0.0013  -0.0000  -0.0000

          k = 0.5990 0.3435 0.0542 ( 12156 PWs)   bands (ev):

   -49.8617 -26.1916 -25.8515 -25.7705 -11.9286  -9.0354  -8.8482   1.4008
     1.5939   1.7906   1.9295   2.0005   2.2222   2.8020   3.8417   4.1051
     7.1716   7.7073   7.8189   9.4015  10.9609

     occupation numbers 
     1.0000   1.0000   1.0000   1.0000   1.0000   1.0000   1.0000   1.0000
     1.0000   1.0000   1.0000   1.0000   1.0000   1.0000   1.0000   1.0000
    -0.0161  -0.0000  -0.0000  -0.0000  -0.0000

          k = 0.7986 0.5152 0.0542 ( 12169 PWs)   bands (ev):

   -49.8570 -26.2426 -25.9019 -25.7589 -11.4803  -8.8756  -8.7976   0.5554
     1.1248   1.1335   1.7013   1.8712   2.3311   2.3617   3.5924   4.0719
     7.9810   8.3424   8.5097   9.7154  11.2312

     occupation numbers 
     1.0000   1.0000   1.0000   1.0000   1.0000   1.0000   1.0000   1.0000
     1.0000   1.0000   1.0000   1.0000   1.0000   1.0000   1.0000   1.0000
    -0.0000  -0.0000  -0.0000  -0.0000  -0.0000

          k = 0.9983 0.6869 0.0542 ( 12165 PWs)   bands (ev):

   -49.8548 -26.2849 -25.9200 -25.7536 -11.0963  -8.8851  -8.6789  -0.2973
     0.6823   0.9459   1.6058   1.9492   2.1087   2.6159   3.3260   3.9209
     8.4731   8.8863   9.1079   9.7697  11.3112

     occupation numbers 
     1.0000   1.0000   1.0000   1.0000   1.0000   1.0000   1.0000   1.0000
     1.0000   1.0000   1.0000   1.0000   1.0000   1.0000   1.0000   1.0000
    -0.0000  -0.0000  -0.0000  -0.0000  -0.0000

          k =-0.7986-0.8586 0.0542 ( 12168 PWs)   bands (ev):

   -49.8558 -26.3035 -25.8994 -25.7566 -10.9530  -8.8811  -8.7297  -0.6311
     0.7034   1.1579   1.4935   1.8308   2.2950   2.4339   3.3828   3.8459
     8.1101   9.1883   9.3734   9.5859  11.3229

     occupation numbers 
     1.0000   1.0000   1.0000   1.0000   1.0000   1.0000   1.0000   1.0000
     1.0000   1.0000   1.0000   1.0000   1.0000   1.0000   1.0000   1.0000
    -0.0000  -0.0000  -0.0000  -0.0000  -0.0000

          k =-0.5990-0.6869 0.0542 ( 12172 PWs)   bands (ev):

   -49.8598 -26.2918 -25.8476 -25.7668 -11.1319  -8.9275  -8.8612  -0.3250
     1.1516   1.4057   1.7343   1.7574   1.9231   2.7221   3.6357   3.8401
     7.3039   9.0346   9.1615   9.3152  11.4366

     occupation numbers 
     1.0000   1.0000   1.0000   1.0000   1.0000   1.0000   1.0000   1.0000
     1.0000   1.0000   1.0000   1.0000   1.0000   1.0000   1.0000   1.0000
    -0.0034  -0.0000  -0.0000  -0.0000  -0.0000

          k =-0.3993-0.5152 0.0542 ( 12158 PWs)   bands (ev):

   -49.8651 -26.2534 -25.7835 -25.7802 -11.5407  -9.1753  -8.8388   0.5062
     1.2735   1.4230   1.9133   2.0512   2.6068   3.1558   3.7672   3.8743
     6.5041   8.5909   8.6241   8.9962  11.1464

     occupation numbers 
     1.0000   1.0000   1.0000   1.0000   1.0000   1.0000   1.0000   1.0000
     1.0000   1.0000   1.0000   1.0000   1.0000   1.0000   1.0000   1.0000
     0.9583  -0.0000  -0.0000  -0.0000  -0.0000

          k =-0.1997-0.3435 0.0542 ( 12131 PWs)   bands (ev):

   -49.8698 -26.2018 -25.7918 -25.7316 -11.9916  -9.3809  -8.8212   0.8468
     1.6168   1.6820   2.3566   2.7980   3.3732   3.5418   3.8032   3.9128
     5.8659   8.0207   8.0384   8.7488  10.2978

     occupation numbers 
     1.0000   1.0000   1.0000   1.0000   1.0000   1.0000   1.0000   1.0000
     1.0000   1.0000   1.0000   1.0000   1.0000   1.0000   1.0000   1.0000
     1.0001  -0.0000  -0.0000  -0.0000  -0.0000

          k = 0.0000-0.1717 0.0542 ( 12115 PWs)   bands (ev):

   -49.8720 -26.1570 -25.7972 -25.7124 -12.3184  -9.4788  -8.8139   0.6730
     2.1957   2.5026   2.5822   3.2927   3.3213   3.8291   3.9982   4.2059
     5.5410   7.4651   7.5256   8.6829   9.5956

     occupation numbers 
     1.0000   1.0000   1.0000   1.0000   1.0000   1.0000   1.0000   1.0000
     1.0000   1.0000   1.0000   1.0000   1.0000   1.0000   1.0000   1.0000
     1.0000  -0.0002  -0.0001  -0.0000  -0.0000

          k = 0.3993 0.0000 0.1083 ( 12140 PWs)   bands (ev):

   -49.8673 -26.1331 -25.7878 -25.7846 -12.3934  -9.2843  -8.8373   1.0620
     2.0590   2.4169   2.6468   2.9832   3.1889   3.5230   3.8281   3.9898
     6.4218   6.9862   7.1628   8.9353  10.0104

     occupation numbers 
     1.0000   1.0000   1.0000   1.0000   1.0000   1.0000   1.0000   1.0000
     1.0000   1.0000   1.0000   1.0000   1.0000   1.0000   1.0000   1.0000
     1.0249  -0.0313  -0.0175  -0.0000  -0.0000

          k = 0.5990 0.1717 0.1083 ( 12167 PWs)   bands (ev):

   -49.8625 -26.1456 -25.8532 -25.7722 -12.2427  -9.0742  -8.8513   1.3237
     1.6824   1.8938   2.2321   2.6585   2.9591   3.1339   3.8226   4.0012
     7.0148   7.1855   7.2739   9.3852  10.3883

     occupation numbers 
     1.0000   1.0000   1.0000   1.0000   1.0000   1.0000   1.0000   1.0000
     1.0000   1.0000   1.0000   1.0000   1.0000   1.0000   1.0000   1.0000
    -0.0351  -0.0141  -0.0051  -0.0000  -0.0000

          k = 0.7986 0.3435 0.1083 ( 12170 PWs)   bands (ev):

   -49.8580 -26.1870 -25.9042 -25.7609 -11.9004  -8.9069  -8.8191   1.0267
     1.4302   1.6263   1.7940   1.9575   2.4963   2.7806   3.7568   4.1005
     7.4722   7.7122   8.0817   9.7356  10.8157

     occupation numbers 
     1.0000   1.0000   1.0000   1.0000   1.0000   1.0000   1.0000   1.0000
     1.0000   1.0000   1.0000   1.0000   1.0000   1.0000   1.0000   1.0000
    -0.0002  -0.0000  -0.0000  -0.0000  -0.0000

          k = 0.9983 0.5152 0.1083 ( 12171 PWs)   bands (ev):

   -49.8556 -26.2407 -25.9219 -25.7552 -11.4698  -8.9056  -8.7016   0.5572
     0.8652   1.0096   1.4806   1.9696   2.4620   2.6982   3.4657   4.0111
     8.2015   8.4803   8.4878   9.7580  11.0662

     occupation numbers 
     1.0000   1.0000   1.0000   1.0000   1.0000   1.0000   1.0000   1.0000
     1.0000   1.0000   1.0000   1.0000   1.0000   1.0000   1.0000   1.0000
    -0.0000  -0.0000  -0.0000  -0.0000  -0.0000

          k = 1.1980 0.6869 0.1083 ( 12179 PWs)   bands (ev):

   -49.8562 -26.2868 -25.9001 -25.7573 -11.1060  -8.9063  -8.7193  -0.3052
     0.7879   1.0994   1.3839   1.9072   2.4445   2.5709   3.4200   3.8266
     8.1260   8.9232   9.1393   9.5259  11.2002

     occupation numbers 
     1.0000   1.0000   1.0000   1.0000   1.0000   1.0000   1.0000   1.0000
     1.0000   1.0000   1.0000   1.0000   1.0000   1.0000   1.0000   1.0000
    -0.0000  -0.0000  -0.0000  -0.0000  -0.0000

          k =-0.5990-0.8586 0.1083 ( 12174 PWs)   bands (ev):

   -49.8595 -26.3086 -25.8469 -25.7662 -10.9779  -8.8919  -8.8802  -0.6493
     1.0095   1.2869   1.6842   1.7067   2.1099   2.7985   3.6119   3.6947
     7.3459   9.1365   9.3394   9.4461  11.4216

     occupation numbers 
     1.0000   1.0000   1.0000   1.0000   1.0000   1.0000   1.0000   1.0000
     1.0000   1.0000   1.0000   1.0000   1.0000   1.0000   1.0000   1.0000
    -0.0018  -0.0000  -0.0000  -0.0000  -0.0000

          k =-0.3993-0.6869 0.1083 ( 12185 PWs)   bands (ev):

   -49.8643 -26.2981 -25.7819 -25.7785 -11.1632  -9.1084  -8.8678  -0.3489
     1.1140   1.4213   1.6240   1.9853   2.5764   3.1187   3.5879   3.8340
     6.5623   8.8713   9.2135   9.2955  11.3510

     occupation numbers 
     1.0000   1.0000   1.0000   1.0000   1.0000   1.0000   1.0000   1.0000
     1.0000   1.0000   1.0000   1.0000   1.0000   1.0000   1.0000   1.0000
     0.8599  -0.0000  -0.0000  -0.0000  -0.0000

          k =-0.1997-0.5152 0.1083 ( 12132 PWs)   bands (ev):

   -49.8687 -26.2582 -25.7897 -25.7297 -11.5674  -9.3114  -8.8451   0.4821
     0.9555   1.2766   2.3013   2.4420   3.1097   3.5138   3.6398   3.9293
     5.9211   8.6763   8.7727   8.8243  10.7177

     occupation numbers 
     1.0000   1.0000   1.0000   1.0000   1.0000   1.0000   1.0000   1.0000
     1.0000   1.0000   1.0000   1.0000   1.0000   1.0000   1.0000   1.0000
     1.0002  -0.0000  -0.0000  -0.0000  -0.0000

          k = 0.0000-0.3435 0.1083 ( 12124 PWs)   bands (ev):

   -49.8712 -26.2035 -25.7955 -25.7109 -12.0022  -9.4244  -8.8317   0.7609
     1.5978   1.6535   2.5420   3.0306   3.2839   3.5846   3.9179   4.0804
     5.5817   8.0552   8.1249   8.7335  10.0718

     occupation numbers 
     1.0000   1.0000   1.0000   1.0000   1.0000   1.0000   1.0000   1.0000
     1.0000   1.0000   1.0000   1.0000   1.0000   1.0000   1.0000   1.0000
     1.0000  -0.0000  -0.0000  -0.0000  -0.0000

          k = 0.1997-0.1717 0.1083 ( 12128 PWs)   bands (ev):

   -49.8706 -26.1553 -25.7935 -25.7332 -12.3072  -9.4147  -8.8294   0.8168
     2.2375   2.3481   2.5934   3.1159   3.2432   3.6649   3.9132   4.0611
     5.8356   7.3900   7.4949   8.7210   9.8951

     occupation numbers 
     1.0000   1.0000   1.0000   1.0000   1.0000   1.0000   1.0000   1.0000
     1.0000   1.0000   1.0000   1.0000   1.0000   1.0000   1.0000   1.0000
     1.0000  -0.0009  -0.0001  -0.0000  -0.0000

          k = 0.5990 0.0000 0.1625 ( 12144 PWs)   bands (ev):

   -49.8628 -26.1278 -25.8539 -25.7728 -12.3574  -9.0894  -8.8515   1.2672
     1.6024   1.9574   2.3354   3.0608   3.3897   3.4669   3.7162   3.7935
     6.8457   6.9442   7.2224   9.3227  10.0507

     occupation numbers 
     1.0000   1.0000   1.0000   1.0000   1.0000   1.0000   1.0000   1.0000
     1.0000   1.0000   1.0000   1.0000   1.0000   1.0000   1.0000   1.0000
     0.0987  -0.0150  -0.0095  -0.0000  -0.0000

          k = 0.7986 0.1717 0.1625 ( 12183 PWs)   bands (ev):

   -49.8589 -26.1413 -25.9060 -25.7626 -12.2138  -8.9465  -8.8210   0.9578
     1.4220   1.8731   1.9995   2.7917   2.9300   3.3142   3.8017   3.9446
     6.9453   7.0054   8.0432   9.6888  10.2368

     occupation numbers 
     1.0000   1.0000   1.0000   1.0000   1.0000   1.0000   1.0000   1.0000
     1.0000   1.0000   1.0000   1.0000   1.0000   1.0000   1.0000   1.0000
    -0.0156  -0.0344  -0.0000  -0.0000  -0.0000

          k = 0.9983 0.3435 0.1625 ( 12171 PWs)   bands (ev):

   -49.8566 -26.1853 -25.9242 -25.7573 -11.8895  -8.9306  -8.7292   0.7593
     1.3470   1.4702   1.7682   1.9676   2.7345   3.0236   3.6665   4.0358
     7.4580   7.6668   8.4607   9.7360  10.6512

     occupation numbers 
     1.0000   1.0000   1.0000   1.0000   1.0000   1.0000   1.0000   1.0000
     1.0000   1.0000   1.0000   1.0000   1.0000   1.0000   1.0000   1.0000
    -0.0003  -0.0000  -0.0000  -0.0000  -0.0000

          k = 1.1980 0.5152 0.1625 ( 12179 PWs)   bands (ev):

   -49.8570 -26.2426 -25.9019 -25.7589 -11.4801  -8.9375  -8.7303   0.5533
     0.9973   1.1089   1.3229   2.0331   2.6038   2.7222   3.5582   3.9062
     8.1128   8.2761   8.5154   9.4982  10.9781

     occupation numbers 
     1.0000   1.0000   1.0000   1.0000   1.0000   1.0000   1.0000   1.0000
     1.0000   1.0000   1.0000   1.0000   1.0000   1.0000   1.0000   1.0000
    -0.0000  -0.0000  -0.0000  -0.0000  -0.0000

          k = 1.3976 0.6869 0.1625 ( 12174 PWs)   bands (ev):

   -49.8598 -26.2918 -25.8475 -25.7668 -11.1316  -8.9368  -8.8504  -0.3255
     1.0763   1.2929   1.6142   1.7108   2.2956   2.8669   3.6290   3.7118
     7.3594   8.9665   9.1972   9.2238  11.3278

     occupation numbers 
     1.0000   1.0000   1.0000   1.0000   1.0000   1.0000   1.0000   1.0000
     1.0000   1.0000   1.0000   1.0000   1.0000   1.0000   1.0000   1.0000
    -0.0015  -0.0000  -0.0000  -0.0000  -0.0000

          k =-0.3993-0.8586 0.1625 ( 12181 PWs)   bands (ev):

   -49.8639 -26.3150 -25.7813 -25.7779 -11.0082  -9.0570  -8.9064  -0.6716
     1.0233   1.3725   1.6957   1.8837   2.5895   3.0541   3.5014   3.8522
     6.5984   8.8511   9.4580   9.5102  11.4135

     occupation numbers 
     1.0000   1.0000   1.0000   1.0000   1.0000   1.0000   1.0000   1.0000
     1.0000   1.0000   1.0000   1.0000   1.0000   1.0000   1.0000   1.0000
     0.7764  -0.0000  -0.0000  -0.0000  -0.0000

          k =-0.1997-0.6869 0.1625 ( 12157 PWs)   bands (ev):

   -49.8679 -26.3031 -25.7880 -25.7282 -11.1882  -9.2390  -8.8840  -0.3680
     0.8570   1.2547   2.0344   2.3337   2.8917   3.4629   3.5359   3.9553
     5.9677   8.7912   9.3093   9.3719  11.0039

     occupation numbers 
     1.0000   1.0000   1.0000   1.0000   1.0000   1.0000   1.0000   1.0000
     1.0000   1.0000   1.0000   1.0000   1.0000   1.0000   1.0000   1.0000
     1.0005  -0.0000  -0.0000  -0.0000  -0.0000

          k =-0.0000-0.5152 0.1625 ( 12150 PWs)   bands (ev):

   -49.8701 -26.2601 -25.7933 -25.7090 -11.5774  -9.3491  -8.8633   0.4703
     0.8613   1.2697   2.5924   2.7074   2.7631   3.5311   3.9620   3.9917
     5.6285   8.7310   8.7938   8.8676  10.5281

     occupation numbers 
     1.0000   1.0000   1.0000   1.0000   1.0000   1.0000   1.0000   1.0000
     1.0000   1.0000   1.0000   1.0000   1.0000   1.0000   1.0000   1.0000
     1.0000  -0.0000  -0.0000  -0.0000  -0.0000

          k = 0.1997-0.3435 0.1625 ( 12136 PWs)   bands (ev):

   -49.8698 -26.2018 -25.7918 -25.7316 -11.9912  -9.3562  -8.8511   0.9133
     1.6098   1.7367   2.3464   2.7936   3.1577   3.5570   3.7234   4.0425
     5.8847   8.0292   8.0388   8.7502  10.3908

     occupation numbers 
     1.0000   1.0000   1.0000   1.0000   1.0000   1.0000   1.0000   1.0000
     1.0000   1.0000   1.0000   1.0000   1.0000   1.0000   1.0000   1.0000
     1.0001  -0.0000  -0.0000  -0.0000  -0.0000

          k = 0.3993-0.1717 0.1625 ( 12150 PWs)   bands (ev):

   -49.8670 -26.1510 -25.7872 -25.7840 -12.2782  -9.2586  -8.8486   1.1052
     2.0600   2.2417   2.4976   2.6265   3.1121   3.2895   3.8532   4.0536
     6.4477   7.2203   7.3855   8.8986  10.2865

     occupation numbers 
     1.0000   1.0000   1.0000   1.0000   1.0000   1.0000   1.0000   1.0000
     1.0000   1.0000   1.0000   1.0000   1.0000   1.0000   1.0000   1.0000
     1.0119  -0.0098  -0.0010  -0.0000  -0.0000

          k = 0.7986 0.0000 0.2166 ( 12180 PWs)   bands (ev):

   -49.8592 -26.1236 -25.9067 -25.7632 -12.3283  -8.9733  -8.8087   0.9096
     1.3369   2.0091   2.0520   3.1730   3.4399   3.5145   3.7102   3.8132
     6.6920   6.7544   8.0415   9.5813   9.9418

     occupation numbers 
     1.0000   1.0000   1.0000   1.0000   1.0000   1.0000   1.0000   1.0000
     1.0000   1.0000   1.0000   1.0000   1.0000   1.0000   1.0000   1.0000
     0.5043   0.3154  -0.0000  -0.0000  -0.0000

          k = 0.9983 0.1717 0.2166 ( 12176 PWs)   bands (ev):

   -49.8575 -26.1396 -25.9261 -25.7589 -12.2027  -8.9507  -8.7512   0.7038
     1.3384   1.8396   1.9488   2.8640   2.9829   3.4819   3.8522   3.8585
     6.8883   6.9335   8.4436   9.6503  10.1855

     occupation numbers 
     1.0000   1.0000   1.0000   1.0000   1.0000   1.0000   1.0000   1.0000
     1.0000   1.0000   1.0000   1.0000   1.0000   1.0000   1.0000   1.0000
     0.0345  -0.0082  -0.0000  -0.0000  -0.0000

          k = 1.1980 0.3435 0.2166 ( 12170 PWs)   bands (ev):

   -49.8580 -26.1870 -25.9042 -25.7609 -11.9002  -8.9651  -8.7558   0.9260
     1.2778   1.4809   1.7792   2.1200   2.7480   2.9909   3.7361   3.9982
     7.4974   7.7120   8.1041   9.5123  10.6129

     occupation numbers 
     1.0000   1.0000   1.0000   1.0000   1.0000   1.0000   1.0000   1.0000
     1.0000   1.0000   1.0000   1.0000   1.0000   1.0000   1.0000   1.0000
    -0.0001  -0.0000  -0.0000  -0.0000  -0.0000

          k = 1.3976 0.5152 0.2166 ( 12163 PWs)   bands (ev):

   -49.8606 -26.2474 -25.8493 -25.7685 -11.5070  -8.9908  -8.8379   0.5302
     1.3081   1.3450   1.5705   1.8579   2.4246   2.9232   3.6746   3.8995
     7.3379   8.3893   8.5890   9.1562  11.1314

     occupation numbers 
     1.0000   1.0000   1.0000   1.0000   1.0000   1.0000   1.0000   1.0000
     1.0000   1.0000   1.0000   1.0000   1.0000   1.0000   1.0000   1.0000
    -0.0020  -0.0000  -0.0000  -0.0000  -0.0000

          k = 1.5973 0.6869 0.2166 ( 12180 PWs)   bands (ev):

   -49.8643 -26.2981 -25.7819 -25.7786 -11.1628  -9.0657  -8.9131  -0.3497
     1.0968   1.4559   1.6693   1.9549   2.5795   3.0772   3.4913   3.9316
     6.6000   8.8202   9.2399   9.2698  11.3520

     occupation numbers 
     1.0000   1.0000   1.0000   1.0000   1.0000   1.0000   1.0000   1.0000
     1.0000   1.0000   1.0000   1.0000   1.0000   1.0000   1.0000   1.0000
     0.7723  -0.0000  -0.0000  -0.0000  -0.0000

          k =-0.1997-0.8586 0.2166 ( 12166 PWs)   bands (ev):

   -49.8676 -26.3201 -25.7874 -25.7276 -11.0323  -9.1937  -8.9189  -0.6896
     0.7775   1.3991   1.8555   2.2600   2.8200   3.4265   3.5048   3.9730
     5.9902   8.8080   9.5363   9.5976  11.1235

     occupation numbers 
     1.0000   1.0000   1.0000   1.0000   1.0000   1.0000   1.0000   1.0000
     1.0000   1.0000   1.0000   1.0000   1.0000   1.0000   1.0000   1.0000
     1.0008  -0.0000  -0.0000  -0.0000  -0.0000

          k = 0.0000-0.6869 0.2166 ( 12148 PWs)   bands (ev):

   -49.8693 -26.3050 -25.7916 -25.7075 -11.1975  -9.2770  -8.9027  -0.3755
     0.7539   1.2599   2.3253   2.4733   2.6379   3.4617   3.9376   3.9751
     5.6666   8.8467   9.3071   9.4433  10.8404

     occupation numbers 
     1.0000   1.0000   1.0000   1.0000   1.0000   1.0000   1.0000   1.0000
     1.0000   1.0000   1.0000   1.0000   1.0000   1.0000   1.0000   1.0000
     1.0000  -0.0000  -0.0000  -0.0000  -0.0000

          k = 0.1997-0.5152 0.2166 ( 12155 PWs)   bands (ev):

   -49.8687 -26.2582 -25.7897 -25.7297 -11.5670  -9.2794  -8.8825   0.4782
     0.9933   1.4071   2.1836   2.4776   2.9415   3.5239   3.5657   4.0360
     5.9400   8.7143   8.7541   8.8135  10.8146

     occupation numbers 
     1.0000   1.0000   1.0000   1.0000   1.0000   1.0000   1.0000   1.0000
     1.0000   1.0000   1.0000   1.0000   1.0000   1.0000   1.0000   1.0000
     1.0003  -0.0000  -0.0000  -0.0000  -0.0000

          k = 0.3993-0.3435 0.2166 ( 12158 PWs)   bands (ev):

   -49.8662 -26.1972 -25.7855 -25.7823 -11.9630  -9.2033  -8.8641   1.1762
     1.6197   1.9070   2.0240   2.3361   2.6374   3.2639   3.7242   4.1091
     6.5036   7.8386   7.9535   8.8766  10.7853

     occupation numbers 
     1.0000   1.0000   1.0000   1.0000   1.0000   1.0000   1.0000   1.0000
     1.0000   1.0000   1.0000   1.0000   1.0000   1.0000   1.0000   1.0000
     0.9589  -0.0000  -0.0000  -0.0000  -0.0000

          k = 0.5990-0.1717 0.2166 ( 12169 PWs)   bands (ev):

   -49.8625 -26.1456 -25.8532 -25.7722 -12.2425  -9.0774  -8.8465   1.2544
     1.5422   1.9259   2.3075   2.6893   3.0251   3.2126   3.8056   4.0176
     7.0176   7.1816   7.2888   9.2464  10.2997

     occupation numbers 
     1.0000   1.0000   1.0000   1.0000   1.0000   1.0000   1.0000   1.0000
     1.0000   1.0000   1.0000   1.0000   1.0000   1.0000   1.0000   1.0000
    -0.0353  -0.0146  -0.0042  -0.0000  -0.0000

          k =-0.9983 0.0000-0.2708 ( 12202 PWs)   bands (ev):

   -49.8578 -26.1220 -25.9268 -25.7595 -12.3172  -8.9583  -8.7596   0.6819
     1.3262   1.9141   2.0349   3.3107   3.3464   3.4793   3.7604   3.9316
     6.5706   6.7241   8.4348   9.5263  10.0170

     occupation numbers 
     1.0000   1.0000   1.0000   1.0000   1.0000   1.0000   1.0000   1.0000
     1.0000   1.0000   1.0000   1.0000   1.0000   1.0000   1.0000   1.0000
     0.8421   0.4051  -0.0000  -0.0000  -0.0000

          k =-0.7986 0.1717-0.2708 ( 12180 PWs)   bands (ev):

   -49.8589 -26.1413 -25.9060 -25.7626 -12.2137  -8.9792  -8.7851   0.9000
     1.2882   1.8741   2.1086   2.8027   3.0052   3.3976   3.7780   3.9622
     6.9292   6.9984   8.0687   9.5458  10.1502

     occupation numbers 
     1.0000   1.0000   1.0000   1.0000   1.0000   1.0000   1.0000   1.0000
     1.0000   1.0000   1.0000   1.0000   1.0000   1.0000   1.0000   1.0000
    -0.0052  -0.0336  -0.0000  -0.0000  -0.0000

          k =-0.5990 0.3435-0.2708 ( 12163 PWs)   bands (ev):

   -49.8617 -26.1916 -25.8515 -25.7705 -11.9282  -9.0416  -8.8394   1.2735
     1.4558   1.6391   1.8516   2.1273   2.5743   2.9994   3.7818   4.0619
     7.2741   7.6552   7.8289   9.1833  10.7810

     occupation numbers 
     1.0000   1.0000   1.0000   1.0000   1.0000   1.0000   1.0000   1.0000
     1.0000   1.0000   1.0000   1.0000   1.0000   1.0000   1.0000   1.0000
    -0.0051  -0.0000  -0.0000  -0.0000  -0.0000

          k =-0.3993 0.5152-0.2708 ( 12180 PWs)   bands (ev):

   -49.8651 -26.2534 -25.7835 -25.7802 -11.5401  -9.1310  -8.8871   0.5011
     1.2379   1.6189   1.7385   2.1371   2.5316   3.2029   3.5536   4.0412
     6.5645   8.5621   8.6691   8.8910  11.1551

     occupation numbers 
     1.0000   1.0000   1.0000   1.0000   1.0000   1.0000   1.0000   1.0000
     1.0000   1.0000   1.0000   1.0000   1.0000   1.0000   1.0000   1.0000
     0.8552  -0.0000  -0.0000  -0.0000  -0.0000

          k =-0.1997 0.6869-0.2708 ( 12164 PWs)   bands (ev):

   -49.8679 -26.3031 -25.7880 -25.7282 -11.1879  -9.2114  -8.9152  -0.3686
     0.8532   1.4218   1.9062   2.3203   2.8336   3.4385   3.5250   4.0025
     5.9801   8.8034   9.2998   9.3742  11.0638

     occupation numbers 
     1.0000   1.0000   1.0000   1.0000   1.0000   1.0000   1.0000   1.0000
     1.0000   1.0000   1.0000   1.0000   1.0000   1.0000   1.0000   1.0000
     1.0007  -0.0000  -0.0000  -0.0000  -0.0000

          k =-1.9966-0.8586-0.2708 ( 12134 PWs)   bands (ev):

   -49.8689 -26.3220 -25.7910 -25.7069 -11.0414  -9.2446  -8.9239  -0.6964
     0.6804   1.3353   2.1343   2.3908   2.6549   3.4350   3.9187   3.9722
     5.6811   8.8664   9.5370   9.6635  10.9512

     occupation numbers 
     1.0000   1.0000   1.0000   1.0000   1.0000   1.0000   1.0000   1.0000
     1.0000   1.0000   1.0000   1.0000   1.0000   1.0000   1.0000   1.0000
     1.0000  -0.0000  -0.0000  -0.0000  -0.0000

          k = 0.3993 0.3435 0.1083 ( 12146 PWs)   bands (ev):

   -49.8662 -26.1972 -25.7855 -25.7823 -11.9633  -9.2276  -8.8371   1.1495
     1.6401   1.8495   2.0448   2.3917   2.6553   3.2075   3.8197   4.0440
     6.4600   7.8491   7.9384   8.9536  10.7789

     occupation numbers 
     1.0000   1.0000   1.0000   1.0000   1.0000   1.0000   1.0000   1.0000
     1.0000   1.0000   1.0000   1.0000   1.0000   1.0000   1.0000   1.0000
     1.0033  -0.0000  -0.0000  -0.0000  -0.0000

          k = 0.5990 0.5152 0.1083 ( 12157 PWs)   bands (ev):

   -49.8606 -26.2474 -25.8493 -25.7684 -11.5073  -8.9837  -8.8472   0.5337
     1.3998   1.6013   1.6926   1.7643   2.0380   2.7319   3.7311   3.9945
     7.2571   8.4120   8.5755   9.3364  11.3013

     occupation numbers 
     1.0000   1.0000   1.0000   1.0000   1.0000   1.0000   1.0000   1.0000
     1.0000   1.0000   1.0000   1.0000   1.0000   1.0000   1.0000   1.0000
    -0.0063  -0.0000  -0.0000  -0.0000  -0.0000

          k = 0.7986 0.6869 0.1083 ( 12163 PWs)   bands (ev):

   -49.8562 -26.2868 -25.9001 -25.7573 -11.1062  -8.8740  -8.7546  -0.3051
     0.8229   1.1487   1.6920   1.7458   2.2462   2.3756   3.4405   3.9404
     8.0800   8.9264   9.1375   9.6410  11.3546

     occupation numbers 
     1.0000   1.0000   1.0000   1.0000   1.0000   1.0000   1.0000   1.0000
     1.0000   1.0000   1.0000   1.0000   1.0000   1.0000   1.0000   1.0000
    -0.0000  -0.0000  -0.0000  -0.0000  -0.0000

          k = 0.9983 0.8586 0.1083 ( 12158 PWs)   bands (ev):

   -49.8545 -26.3015 -25.9193 -25.7530 -10.9434  -8.8772  -8.6702  -0.6242
     0.5915   0.9495   1.7696   1.8730   1.9390   2.6058   3.2473   3.8974
     8.4817   9.1534   9.3461   9.7608  11.3797

     occupation numbers 
     1.0000   1.0000   1.0000   1.0000   1.0000   1.0000   1.0000   1.0000
     1.0000   1.0000   1.0000   1.0000   1.0000   1.0000   1.0000   1.0000
    -0.0000  -0.0000  -0.0000  -0.0000  -0.0000

          k = 0.0000 0.0000 0.1083 ( 12125 PWs)   bands (ev):

   -49.8723 -26.1390 -25.7978 -25.7130 -12.4336  -9.4838  -8.8271   0.6892
     2.5036   2.7040   2.8470   3.0118   3.4264   3.8592   4.1602   4.2626
     5.5334   7.1829   7.3443   8.6974   9.4237

     occupation numbers 
     1.0000   1.0000   1.0000   1.0000   1.0000   1.0000   1.0000   1.0000
     1.0000   1.0000   1.0000   1.0000   1.0000   1.0000   1.0000   1.0000
     1.0000  -0.0145  -0.0018  -0.0000  -0.0000

          k = 0.5990 0.3435 0.1625 ( 12175 PWs)   bands (ev):

   -49.8617 -26.1916 -25.8515 -25.7705 -11.9285  -9.0379  -8.8448   1.3490
     1.5417   1.7094   1.8870   2.0539   2.3822   2.8836   3.8197   4.0897
     7.2088   7.6845   7.8241   9.3201  10.8939

     occupation numbers 
     1.0000   1.0000   1.0000   1.0000   1.0000   1.0000   1.0000   1.0000
     1.0000   1.0000   1.0000   1.0000   1.0000   1.0000   1.0000   1.0000
    -0.0111  -0.0000  -0.0000  -0.0000  -0.0000

          k = 0.7986 0.5152 0.1625 ( 12175 PWs)   bands (ev):

   -49.8570 -26.2426 -25.9019 -25.7589 -11.4802  -8.8967  -8.7752   0.5548
     1.0917   1.1192   1.6032   1.8913   2.4092   2.4700   3.5795   4.0390
     8.0117   8.3236   8.5106   9.6636  11.1762

     occupation numbers 
     1.0000   1.0000   1.0000   1.0000   1.0000   1.0000   1.0000   1.0000
     1.0000   1.0000   1.0000   1.0000   1.0000   1.0000   1.0000   1.0000
    -0.0000  -0.0000  -0.0000  -0.0000  -0.0000

          k = 0.9983 0.6869 0.1625 ( 12172 PWs)   bands (ev):

   -49.8548 -26.2849 -25.9200 -25.7536 -11.0963  -8.8851  -8.6789  -0.2973
     0.6987   0.9137   1.6585   1.8943   2.1225   2.6398   3.2810   3.9476
     8.4777   8.8850   9.1138   9.7434  11.2997

     occupation numbers 
     1.0000   1.0000   1.0000   1.0000   1.0000   1.0000   1.0000   1.0000
     1.0000   1.0000   1.0000   1.0000   1.0000   1.0000   1.0000   1.0000
    -0.0000  -0.0000  -0.0000  -0.0000  -0.0000

          k = 1.1980 0.8586 0.1625 ( 12169 PWs)   bands (ev):

   -49.8558 -26.3035 -25.8994 -25.7566 -10.9530  -8.8811  -8.7297  -0.6311
     0.7092   1.1314   1.5568   1.7685   2.3040   2.4528   3.3691   3.8513
     8.1112   9.1730   9.3778   9.5917  11.3452

     occupation numbers 
     1.0000   1.0000   1.0000   1.0000   1.0000   1.0000   1.0000   1.0000
     1.0000   1.0000   1.0000   1.0000   1.0000   1.0000   1.0000   1.0000
    -0.0000  -0.0000  -0.0000  -0.0000  -0.0000

          k =-0.5990-0.6869 0.1625 ( 12176 PWs)   bands (ev):

   -49.8598 -26.2918 -25.8475 -25.7668 -11.1318  -8.9300  -8.8584  -0.3251
     1.1234   1.4315   1.6242   1.7163   2.0779   2.7605   3.6318   3.8102
     7.3166   8.9879   9.1837   9.3130  11.4303

     occupation numbers 
     1.0000   1.0000   1.0000   1.0000   1.0000   1.0000   1.0000   1.0000
     1.0000   1.0000   1.0000   1.0000   1.0000   1.0000   1.0000   1.0000
    -0.0028  -0.0000  -0.0000  -0.0000  -0.0000

          k =-0.3993-0.5152 0.1625 ( 12172 PWs)   bands (ev):

   -49.8651 -26.2534 -25.7835 -25.7802 -11.5405  -9.1600  -8.8556   0.5043
     1.2407   1.5132   1.8297   2.1268   2.5386   3.1924   3.6574   3.9655
     6.5266   8.5723   8.6517   8.9516  11.1528

     occupation numbers 
     1.0000   1.0000   1.0000   1.0000   1.0000   1.0000   1.0000   1.0000
     1.0000   1.0000   1.0000   1.0000   1.0000   1.0000   1.0000   1.0000
     0.9256  -0.0000  -0.0000  -0.0000  -0.0000

          k = 0.0000-0.1717 0.1625 ( 12102 PWs)   bands (ev):

   -49.8720 -26.1570 -25.7972 -25.7124 -12.3180  -9.4501  -8.8499   0.7688
     2.2152   2.5319   2.5787   3.2163   3.3115   3.6610   4.0446   4.1577
     5.5544   7.4650   7.5471   8.7440   9.7160

     occupation numbers 
     1.0000   1.0000   1.0000   1.0000   1.0000   1.0000   1.0000   1.0000
     1.0000   1.0000   1.0000   1.0000   1.0000   1.0000   1.0000   1.0000
     1.0000  -0.0002  -0.0000  -0.0000  -0.0000

          k = 0.1997 0.0000 0.1625 ( 12126 PWs)   bands (ev):

   -49.8710 -26.1374 -25.7942 -25.7338 -12.4223  -9.4140  -8.8493   0.8483
     2.3527   2.6399   2.8653   3.0963   3.1950   3.7467   4.0007   4.0853
     5.8427   7.1141   7.3215   8.7107   9.7141

     occupation numbers 
     1.0000   1.0000   1.0000   1.0000   1.0000   1.0000   1.0000   1.0000
     1.0000   1.0000   1.0000   1.0000   1.0000   1.0000   1.0000   1.0000
     1.0000  -0.0256  -0.0026  -0.0000  -0.0000

          k = 0.7986 0.3435 0.2166 ( 12174 PWs)   bands (ev):

   -49.8580 -26.1870 -25.9042 -25.7609 -11.9003  -8.9391  -8.7847   0.9726
     1.3724   1.5566   1.7818   2.0160   2.6292   2.8753   3.7438   4.0605
     7.4855   7.7116   8.0876   9.6320  10.7304

     occupation numbers 
     1.0000   1.0000   1.0000   1.0000   1.0000   1.0000   1.0000   1.0000
     1.0000   1.0000   1.0000   1.0000   1.0000   1.0000   1.0000   1.0000
    -0.0002  -0.0000  -0.0000  -0.0000  -0.0000

          k = 0.9983 0.5152 0.2166 ( 12175 PWs)   bands (ev):

   -49.8556 -26.2407 -25.9219 -25.7552 -11.4698  -8.9056  -8.7016   0.5565
     0.8602   1.0010   1.5509   1.8879   2.4492   2.7574   3.4303   4.0263
     8.2169   8.4729   8.4853   9.7341  11.0758

     occupation numbers 
     1.0000   1.0000   1.0000   1.0000   1.0000   1.0000   1.0000   1.0000
     1.0000   1.0000   1.0000   1.0000   1.0000   1.0000   1.0000   1.0000
    -0.0000  -0.0000  -0.0000  -0.0000  -0.0000

          k = 1.1980 0.6869 0.2166 ( 12177 PWs)   bands (ev):

   -49.8562 -26.2868 -25.9001 -25.7573 -11.1061  -8.8977  -8.7288  -0.3052
     0.8061   1.0886   1.4866   1.8452   2.3886   2.5340   3.4129   3.8697
     8.1135   8.9134   9.1403   9.5647  11.2638

     occupation numbers 
     1.0000   1.0000   1.0000   1.0000   1.0000   1.0000   1.0000   1.0000
     1.0000   1.0000   1.0000   1.0000   1.0000   1.0000   1.0000   1.0000
    -0.0000  -0.0000  -0.0000  -0.0000  -0.0000

          k = 1.3976 0.8586 0.2166 ( 12177 PWs)   bands (ev):

   -49.8595 -26.3086 -25.8469 -25.7662 -10.9779  -8.8919  -8.8802  -0.6493
     1.0001   1.3325   1.6365   1.6814   2.1530   2.7961   3.6311   3.6708
     7.3456   9.0978   9.3885   9.4395  11.4513

     occupation numbers 
     1.0000   1.0000   1.0000   1.0000   1.0000   1.0000   1.0000   1.0000
     1.0000   1.0000   1.0000   1.0000   1.0000   1.0000   1.0000   1.0000
    -0.0018  -0.0000  -0.0000  -0.0000  -0.0000

          k =-0.3993-0.6869 0.2166 ( 12179 PWs)   bands (ev):

   -49.8643 -26.2981 -25.7819 -25.7785 -11.1630  -9.0917  -8.8857  -0.3493
     1.0929   1.4816   1.6082   1.9851   2.5627   3.0976   3.5498   3.8817
     6.5791   8.8475   9.2337   9.2753  11.3521

     occupation numbers 
     1.0000   1.0000   1.0000   1.0000   1.0000   1.0000   1.0000   1.0000
     1.0000   1.0000   1.0000   1.0000   1.0000   1.0000   1.0000   1.0000
     0.8230  -0.0000  -0.0000  -0.0000  -0.0000

          k =-0.0000-0.3435 0.2166 ( 12157 PWs)   bands (ev):

   -49.8712 -26.2035 -25.7955 -25.7109 -12.0017  -9.3843  -8.8806   0.8763
     1.5982   1.7268   2.5785   2.9710   3.0260   3.4770   4.0158   4.0816
     5.5913   8.0548   8.1241   8.8052  10.2386

     occupation numbers 
     1.0000   1.0000   1.0000   1.0000   1.0000   1.0000   1.0000   1.0000
     1.0000   1.0000   1.0000   1.0000   1.0000   1.0000   1.0000   1.0000
     1.0000  -0.0000  -0.0000  -0.0000  -0.0000

          k = 0.1997-0.1717 0.2166 ( 12136 PWs)   bands (ev):

   -49.8706 -26.1553 -25.7936 -25.7332 -12.3067  -9.3764  -8.8758   0.9373
     2.2443   2.3581   2.5956   3.0360   3.1922   3.5711   3.8902   4.0627
     5.8716   7.3836   7.5259   8.7326  10.0122

     occupation numbers 
     1.0000   1.0000   1.0000   1.0000   1.0000   1.0000   1.0000   1.0000
     1.0000   1.0000   1.0000   1.0000   1.0000   1.0000   1.0000   1.0000
     1.0001  -0.0010  -0.0001  -0.0000  -0.0000

          k = 0.3993 0.0000 0.2166 ( 12146 PWs)   bands (ev):

   -49.8673 -26.1331 -25.7878 -25.7847 -12.3931  -9.2592  -8.8657   1.1103
     2.0756   2.2617   2.6826   2.9286   3.2883   3.5434   3.8697   3.9432
     6.4724   6.9540   7.1889   8.8349  10.0071

     occupation numbers 
     1.0000   1.0000   1.0000   1.0000   1.0000   1.0000   1.0000   1.0000
     1.0000   1.0000   1.0000   1.0000   1.0000   1.0000   1.0000   1.0000
     0.9930  -0.0202  -0.0136  -0.0000  -0.0000

          k = 0.9983 0.3435 0.2708 ( 12160 PWs)   bands (ev):

   -49.8566 -26.1853 -25.9242 -25.7573 -11.8895  -8.9306  -8.7292   0.7487
     1.3505   1.5282   1.7607   1.9064   2.7298   3.0584   3.6516   4.0384
     7.4627   7.6674   8.4573   9.7161  10.6728

     occupation numbers 
     1.0000   1.0000   1.0000   1.0000   1.0000   1.0000   1.0000   1.0000
     1.0000   1.0000   1.0000   1.0000   1.0000   1.0000   1.0000   1.0000
    -0.0002  -0.0000  -0.0000  -0.0000  -0.0000

          k = 1.1980 0.5152 0.2708 ( 12171 PWs)   bands (ev):

   -49.8570 -26.2426 -25.9019 -25.7589 -11.4802  -8.9198  -8.7500   0.5540
     1.0389   1.1106   1.4547   1.9617   2.5012   2.6187   3.5626   3.9793
     8.0631   8.2959   8.5129   9.5804  11.0819

     occupation numbers 
     1.0000   1.0000   1.0000   1.0000   1.0000   1.0000   1.0000   1.0000
     1.0000   1.0000   1.0000   1.0000   1.0000   1.0000   1.0000   1.0000
    -0.0000  -0.0000  -0.0000  -0.0000  -0.0000

          k = 1.3976 0.6869 0.2708 ( 12176 PWs)   bands (ev):

   -49.8598 -26.2918 -25.8475 -25.7668 -11.1317  -8.9335  -8.8542  -0.3253
     1.0939   1.3782   1.6366   1.6614   2.2104   2.8160   3.6286   3.7613
     7.3377   8.9561   9.1979   9.2841  11.3938

     occupation numbers 
     1.0000   1.0000   1.0000   1.0000   1.0000   1.0000   1.0000   1.0000
     1.0000   1.0000   1.0000   1.0000   1.0000   1.0000   1.0000   1.0000
    -0.0020  -0.0000  -0.0000  -0.0000  -0.0000

          k = 1.5973 0.8586 0.2708 ( 12178 PWs)   bands (ev):

   -49.8639 -26.3150 -25.7813 -25.7779 -11.0082  -9.0570  -8.9063  -0.6716
     1.0130   1.3929   1.6950   1.8751   2.5964   3.0280   3.5258   3.8467
     6.5986   8.8497   9.4664   9.5017  11.4129

     occupation numbers 
     1.0000   1.0000   1.0000   1.0000   1.0000   1.0000   1.0000   1.0000
     1.0000   1.0000   1.0000   1.0000   1.0000   1.0000   1.0000   1.0000
     0.7757  -0.0000  -0.0000  -0.0000  -0.0000

          k = 0.0000-0.5152 0.2708 ( 12146 PWs)   bands (ev):

   -49.8701 -26.2601 -25.7934 -25.7090 -11.5769  -9.3039  -8.9164   0.4658
     0.9409   1.4164   2.4736   2.6248   2.7073   3.4061   3.9321   4.1115
     5.6370   8.7193   8.8449   8.8771  10.6831

     occupation numbers 
     1.0000   1.0000   1.0000   1.0000   1.0000   1.0000   1.0000   1.0000
     1.0000   1.0000   1.0000   1.0000   1.0000   1.0000   1.0000   1.0000
     1.0000  -0.0000  -0.0000  -0.0000  -0.0000

          k = 0.1997-0.3435 0.2708 ( 12151 PWs)   bands (ev):

   -49.8698 -26.2018 -25.7919 -25.7316 -11.9907  -9.3087  -8.9070   1.0372
     1.6116   1.8233   2.2845   2.7842   2.9745   3.4708   3.6477   4.1633
     5.9151   8.0361   8.0393   8.7746  10.5248

     occupation numbers 
     1.0000   1.0000   1.0000   1.0000   1.0000   1.0000   1.0000   1.0000
     1.0000   1.0000   1.0000   1.0000   1.0000   1.0000   1.0000   1.0000
     1.0002  -0.0000  -0.0000  -0.0000  -0.0000

          k = 0.3993-0.1717 0.2708 ( 12145 PWs)   bands (ev):

   -49.8670 -26.1510 -25.7872 -25.7840 -12.2778  -9.2268  -8.8841   1.1663
     1.9859   2.2252   2.4602   2.6362   3.1445   3.3303   3.8231   4.0667
     6.5088   7.1974   7.4048   8.7994  10.2746

     occupation numbers 
[...]

   -49.8720 -26.1570 -25.7973 -25.7124 -12.3168  -9.3183  -9.0056   1.1868
     2.2430   2.5527   2.6449   2.7551   3.2635   3.5003   3.9935   4.0042
     5.5806   7.4646   7.6286   8.9407  10.0706

     occupation numbers 
     1.0000   1.0000   1.0000   1.0000   1.0000   1.0000   1.0000   1.0000
     1.0000   1.0000   1.0000   1.0000   1.0000   1.0000   1.0000   1.0000
     1.0000  -0.0002  -0.0000  -0.0000  -0.0000

          k = 0.1997 0.0000 0.3791 ( 12139 PWs)   bands (ev):

   -49.8710 -26.1374 -25.7943 -25.7338 -12.4212  -9.2950  -8.9880   1.2363
     2.1366   2.6325   2.7966   3.0647   3.3233   3.5809   3.8743   3.9064
     5.9205   7.0961   7.4180   8.7902   9.8957

     occupation numbers 
     1.0000   1.0000   1.0000   1.0000   1.0000   1.0000   1.0000   1.0000
     1.0000   1.0000   1.0000   1.0000   1.0000   1.0000   1.0000   1.0000
     1.0002  -0.0285  -0.0005  -0.0000  -0.0000

          k =-1.9966-0.3435-0.1083 ( 12184 PWs)   bands (ev):

   -49.8712 -26.2035 -25.7955 -25.7109 -12.0005  -9.2389  -9.0459   1.2135
     1.6598   1.9043   2.3595   2.6765   3.0083   3.1688   3.8655   4.2752
     5.6117   8.0811   8.1231   8.9646  10.5877

     occupation numbers 
     1.0000   1.0000   1.0000   1.0000   1.0000   1.0000   1.0000   1.0000
     1.0000   1.0000   1.0000   1.0000   1.0000   1.0000   1.0000   1.0000
     1.0000  -0.0000  -0.0000  -0.0000  -0.0000

          k =-1.7969-0.1717-0.1083 ( 12146 PWs)   bands (ev):

   -49.8706 -26.1553 -25.7936 -25.7332 -12.3057  -9.2428  -9.0275   1.3539
     1.9955   2.4572   2.5501   2.9315   3.0937   3.4875   3.7599   4.0305
     5.9371   7.3754   7.5837   8.8243  10.1939

     occupation numbers 
     1.0000   1.0000   1.0000   1.0000   1.0000   1.0000   1.0000   1.0000
     1.0000   1.0000   1.0000   1.0000   1.0000   1.0000   1.0000   1.0000
     1.0003  -0.0011  -0.0000  -0.0000  -0.0000

          k =-1.5973 0.0000-0.1083 ( 12149 PWs)   bands (ev):

   -49.8673 -26.1331 -25.7878 -25.7847 -12.3923  -9.1826  -8.9493   1.3078
     1.7447   2.3105   2.6740   2.8609   3.5156   3.6490   3.7793   3.8642
     6.5951   6.9026   7.2267   8.6772   9.9346

     occupation numbers 
     1.0000   1.0000   1.0000   1.0000   1.0000   1.0000   1.0000   1.0000
     1.0000   1.0000   1.0000   1.0000   1.0000   1.0000   1.0000   1.0000
     0.7846   0.0183  -0.0091  -0.0000  -0.0000

          k = 0.0000 1.2021-0.0542 ( 12199 PWs)   bands (ev):

   -49.8701 -26.2601 -25.7934 -25.7090 -11.5761  -9.1715  -9.0617   0.4604
     1.2453   1.4284   2.3332   2.6878   2.7023   2.9333   3.8311   4.3493
     5.6466   8.7253   8.8631   8.9566  10.8860

     occupation numbers 
     1.0000   1.0000   1.0000   1.0000   1.0000   1.0000   1.0000   1.0000
     1.0000   1.0000   1.0000   1.0000   1.0000   1.0000   1.0000   1.0000
     1.0000  -0.0000  -0.0000  -0.0000  -0.0000

          k =-1.7969-0.3435-0.0542 ( 12166 PWs)   bands (ev):

   -49.8698 -26.2018 -25.7919 -25.7316 -11.9898  -9.1658  -9.0633   1.3191
     1.7076   1.9015   2.0008   2.7154   2.9551   3.2676   3.5047   4.2893
     5.9634   8.0378   8.0389   8.8570  10.7040

     occupation numbers 
     1.0000   1.0000   1.0000   1.0000   1.0000   1.0000   1.0000   1.0000
     1.0000   1.0000   1.0000   1.0000   1.0000   1.0000   1.0000   1.0000
     1.0005  -0.0000  -0.0000  -0.0000  -0.0000

          k =-1.5973-0.1717-0.0542 ( 12148 PWs)   bands (ev):

   -49.8670 -26.1510 -25.7872 -25.7841 -12.2771  -9.1527  -8.9640   1.3774
     1.6416   2.2755   2.4974   2.6180   3.2886   3.3314   3.6991   4.1019
     6.6149   7.1751   7.4170   8.6834  10.2082

     occupation numbers 
     1.0000   1.0000   1.0000   1.0000   1.0000   1.0000   1.0000   1.0000
     1.0000   1.0000   1.0000   1.0000   1.0000   1.0000   1.0000   1.0000
     0.7331  -0.0156  -0.0006  -0.0000  -0.0000

          k =-1.3976 0.0000-0.0542 ( 12172 PWs)   bands (ev):

   -49.8628 -26.1278 -25.8539 -25.7729 -12.3568  -9.0986  -8.8370   1.1115
     1.2800   2.0540   2.5474   2.9676   3.6184   3.6365   3.7906   3.8752
     6.7361   6.9337   7.3750   8.8645   9.7881

     occupation numbers 
     1.0000   1.0000   1.0000   1.0000   1.0000   1.0000   1.0000   1.0000
     1.0000   1.0000   1.0000   1.0000   1.0000   1.0000   1.0000   1.0000
     0.3688  -0.0084  -0.0011  -0.0000  -0.0000

          k =-0.0000 1.0304-0.0000 ( 12163 PWs)   bands (ev):

   -49.8693 -26.3050 -25.7917 -25.7075 -11.1969  -9.1900  -8.9994  -0.3769
     0.9847   1.1629   2.4722   2.5251   2.6810   2.7888   3.8641   4.2845
     5.6687   8.9188   9.3097   9.4420  10.9377

     occupation numbers 
     1.0000   1.0000   1.0000   1.0000   1.0000   1.0000   1.0000   1.0000
     1.0000   1.0000   1.0000   1.0000   1.0000   1.0000   1.0000   1.0000
     1.0000  -0.0000  -0.0000  -0.0000  -0.0000

          k = 0.1997 1.2021-0.0000 ( 12188 PWs)   bands (ev):

   -49.8687 -26.2582 -25.7898 -25.7297 -11.5660  -9.1060  -9.0700   0.4703
     1.3883   1.3969   2.0338   2.4047   2.9605   3.1286   3.4018   4.3117
     5.9849   8.6398   8.7870   8.9176  11.0222

     occupation numbers 
     1.0000   1.0000   1.0000   1.0000   1.0000   1.0000   1.0000   1.0000
     1.0000   1.0000   1.0000   1.0000   1.0000   1.0000   1.0000   1.0000
     1.0007  -0.0000  -0.0000  -0.0000  -0.0000

          k =-1.5973-0.3435-0.0000 ( 12148 PWs)   bands (ev):

   -49.8662 -26.1972 -25.7855 -25.7824 -11.9621  -9.1024  -8.9722   1.4155
     1.4302   1.8255   2.1049   2.1553   2.9339   3.1726   3.5237   4.2185
     6.6295   7.8423   7.9409   8.7334  10.7340

     occupation numbers 
     1.0000   1.0000   1.0000   1.0000   1.0000   1.0000   1.0000   1.0000
     1.0000   1.0000   1.0000   1.0000   1.0000   1.0000   1.0000   1.0000
     0.6925  -0.0000  -0.0000  -0.0000  -0.0000

          k =-1.3976-0.1717-0.0000 ( 12171 PWs)   bands (ev):

   -49.8625 -26.1456 -25.8532 -25.7722 -12.2420  -9.0853  -8.8344   1.1250
     1.2914   1.9238   2.4737   2.7084   3.1989   3.4607   3.7424   4.0503
     6.9908   7.1879   7.3867   8.8702  10.0567

     occupation numbers 
     1.0000   1.0000   1.0000   1.0000   1.0000   1.0000   1.0000   1.0000
     1.0000   1.0000   1.0000   1.0000   1.0000   1.0000   1.0000   1.0000
    -0.0323  -0.0138  -0.0009  -0.0000  -0.0000

          k =-1.1980 0.0000-0.0000 ( 12181 PWs)   bands (ev):

   -49.8592 -26.1236 -25.9067 -25.7632 -12.3281  -9.0272  -8.7474   0.8283
     1.0526   1.9931   2.3445   3.1195   3.4900   3.6408   3.7776   3.9451
     6.6688   6.6776   8.1217   9.3393   9.6635

     occupation numbers 
     1.0000   1.0000   1.0000   1.0000   1.0000   1.0000   1.0000   1.0000
     1.0000   1.0000   1.0000   1.0000   1.0000   1.0000   1.0000   1.0000
     0.5759   0.5489  -0.0000  -0.0000  -0.0000

          k = 0.0000 0.0000 0.4332 ( 12116 PWs)   bands (ev):

   -49.8723 -26.1390 -25.7979 -25.7130 -12.4320  -9.2887  -9.0562   1.3217
     2.2645   2.6683   2.7631   3.3253   3.3274   3.3483   3.8294   4.0699
     5.5720   7.1837   7.5076   8.9819   9.8600

     occupation numbers 
     1.0000   1.0000   1.0000   1.0000   1.0000   1.0000   1.0000   1.0000
     1.0000   1.0000   1.0000   1.0000   1.0000   1.0000   1.0000   1.0000
     1.0000  -0.0144  -0.0001  -0.0000  -0.0000

          k =-1.9966-0.1717-0.0542 ( 12155 PWs)   bands (ev):

   -49.8720 -26.1570 -25.7973 -25.7124 -12.3164  -9.2314  -9.0998   1.4047
     2.1617   2.5137   2.6333   2.6888   3.2399   3.4810   3.9579   3.9658
     5.5845   7.4646   7.6567   9.0014  10.1672

     occupation numbers 
     1.0000   1.0000   1.0000   1.0000   1.0000   1.0000   1.0000   1.0000
     1.0000   1.0000   1.0000   1.0000   1.0000   1.0000   1.0000   1.0000
     1.0000  -0.0002  -0.0000  -0.0000  -0.0000

          k =-1.7969 0.0000-0.0542 ( 12131 PWs)   bands (ev):

   -49.8710 -26.1374 -25.7943 -25.7338 -12.4209  -9.2241  -9.0650   1.4826
     1.8919   2.6906   2.7835   3.0101   3.4221   3.5552   3.7730   3.8629
     5.9364   7.0928   7.4451   8.8347   9.9264

     occupation numbers 
     1.0000   1.0000   1.0000   1.0000   1.0000   1.0000   1.0000   1.0000
     1.0000   1.0000   1.0000   1.0000   1.0000   1.0000   1.0000   1.0000
     1.0003  -0.0290  -0.0003  -0.0000  -0.0000

          k = 0.0000 1.3738 0.0000 ( 12161 PWs)   bands (ev):

   -49.8712 -26.2035 -25.7955 -25.7109 -12.0003  -9.1554  -9.1328   1.2868
     1.7174   1.9138   2.2338   2.6968   3.0033   3.1055   3.8387   4.2986
     5.6150   8.0887   8.1230   8.9918  10.6442

     occupation numbers 
     1.0000   1.0000   1.0000   1.0000   1.0000   1.0000   1.0000   1.0000
     1.0000   1.0000   1.0000   1.0000   1.0000   1.0000   1.0000   1.0000
     1.0000  -0.0000  -0.0000  -0.0000  -0.0000

          k =-1.7969-0.1717 0.0000 ( 12155 PWs)   bands (ev):

   -49.8706 -26.1553 -25.7936 -25.7332 -12.3055  -9.1906  -9.0827   1.5127
     1.8461   2.4921   2.5256   2.9565   3.0561   3.4767   3.7350   4.0215
     5.9462   7.3744   7.5929   8.8473  10.2152

     occupation numbers 
     1.0000   1.0000   1.0000   1.0000   1.0000   1.0000   1.0000   1.0000
     1.0000   1.0000   1.0000   1.0000   1.0000   1.0000   1.0000   1.0000
     1.0004  -0.0011  -0.0000  -0.0000  -0.0000

          k =-1.5973 0.0000 0.0000 ( 12141 PWs)   bands (ev):

   -49.8673 -26.1331 -25.7878 -25.7847 -12.3922  -9.1632  -8.9700   1.3932
     1.6277   2.3371   2.6661   2.8522   3.5905   3.6845   3.7123   3.8414
     6.6170   6.8953   7.2317   8.6584   9.9148

     occupation numbers 
     1.0000   1.0000   1.0000   1.0000   1.0000   1.0000   1.0000   1.0000
     1.0000   1.0000   1.0000   1.0000   1.0000   1.0000   1.0000   1.0000
     0.7274   0.0262  -0.0086  -0.0000  -0.0000

          k =-1.9966-1.7173-0.5415 ( 12132 PWs)   bands (ev):

   -49.8723 -26.1390 -25.7979 -25.7130 -12.4318  -9.2245  -9.1244   1.4785
     2.1126   2.6941   2.7577   3.3060   3.3130   3.3849   3.7662   4.0491
     5.5721   7.1838   7.5264   9.0154   9.9015

     occupation numbers 
     1.0000   1.0000   1.0000   1.0000   1.0000   1.0000   1.0000   1.0000
     1.0000   1.0000   1.0000   1.0000   1.0000   1.0000   1.0000   1.0000
     1.0000  -0.0143  -0.0001  -0.0000  -0.0000

     the Fermi energy is     6.6933 ev

!    total energy              =    -534.96739649 Ry

     total all-electron energy =     -9636.857639 Ry
     estimated scf accuracy    <          6.4E-12 Ry
     smearing contrib. (-TS)   =      -0.00016325 Ry
     internal energy E=F+TS    =    -534.96723324 Ry

     The total energy is F=E-TS. E is the sum of the following terms:
     one-electron contribution =     -93.93106456 Ry
     hartree contribution      =      61.19966473 Ry
     xc contribution           =     -39.53647219 Ry
     ewald contribution        =    -135.48921389 Ry
     one-center paw contrib.   =    -327.21014733 Ry
      -> PAW hartree energy AE =      29.11924910 Ry
      -> PAW hartree energy PS =     -29.08917425 Ry
      -> PAW xc energy AE      =     -17.04217091 Ry
      -> PAW xc energy PS      =       7.41802290 Ry
      -> total E_H with PAW    =      61.22973959 Ry
      -> total E_XC with PAW   =     -49.16062020 Ry

     convergence has been achieved in  13 iterations

     Forces acting on atoms (cartesian axes, Ry/au):

     atom    1 type  1   force =     0.00000000    0.00000000    0.00000000
     atom    2 type  2   force =     0.00000000    0.00000000    0.03585069
     atom    3 type  2   force =     0.00000000    0.00000000   -0.03585069
     atom    4 type  3   force =     0.00000000    0.00000000    0.00000000
     The non-local contrib.  to forces
     atom    1 type  1   force =    -0.00000000   -0.00000000   -0.00000000
     atom    2 type  2   force =     0.00000000    0.00000000    0.06505273
     atom    3 type  2   force =     0.00000000    0.00000000   -0.06505273
     atom    4 type  3   force =     0.00000000    0.00000000    0.00000000
     The ionic contribution  to forces
     atom    1 type  1   force =    -0.00000000   -0.00000000    0.00000000
     atom    2 type  2   force =     0.00000001    0.00000000  -10.07462875
     atom    3 type  2   force =    -0.00000001   -0.00000000   10.07462875
     atom    4 type  3   force =    -0.00000000   -0.00000000    0.00000000
     The local contribution  to forces
     atom    1 type  1   force =     0.00000000    0.00000000    0.00000000
     atom    2 type  2   force =     0.00000002   -0.00000003   10.04392627
     atom    3 type  2   force =    -0.00000002    0.00000003  -10.04392627
     atom    4 type  3   force =     0.00000000    0.00000000    0.00000000
     The core correction contribution to forces
     atom    1 type  1   force =     0.00000000    0.00000000    0.00000000
     atom    2 type  2   force =    -0.00000000    0.00000000    0.00149990
     atom    3 type  2   force =     0.00000000   -0.00000000   -0.00149990
     atom    4 type  3   force =     0.00000000    0.00000000    0.00000000
     The Hubbard contrib.    to forces
     atom    1 type  1   force =     0.00000000    0.00000000    0.00000000
     atom    2 type  2   force =     0.00000000    0.00000000    0.00000000
     atom    3 type  2   force =     0.00000000    0.00000000    0.00000000
     atom    4 type  3   force =     0.00000000    0.00000000    0.00000000
     The SCF correction term to forces
     atom    1 type  1   force =     0.00000000    0.00000000   -0.00000000
     atom    2 type  2   force =     0.00000000   -0.00000000    0.00000054
     atom    3 type  2   force =    -0.00000000    0.00000000   -0.00000054
     atom    4 type  3   force =    -0.00000000    0.00000000   -0.00000000

     Total force =     0.050701     Total SCF correction =     0.000001


     Computing stress (Cartesian axis) and pressure

          total   stress  (Ry/bohr**3)                   (kbar)     P=      -39.04
  -0.00028082   0.00000000  -0.00000000          -41.31        0.00       -0.00
   0.00000000  -0.00025746  -0.00000000            0.00      -37.87       -0.00
  -0.00000000  -0.00000000  -0.00025783           -0.00       -0.00      -37.93

     kinetic stress (kbar)  14777.05     -0.00      0.00
                                0.00  14784.10      0.00
                                0.00     -0.00  14788.46

     local   stress (kbar) -18926.15      0.00      0.00
                                0.00 -24151.56      0.00
                                0.00      0.00   4079.33

     nonloc. stress (kbar)   8008.91     -0.00      0.00
                                0.00   7931.78     -0.00
                                0.00     -0.00   8006.80

     hartree stress (kbar)   8384.33      0.00     -0.00
                                0.00  10090.11     -0.00
                               -0.00     -0.00  -2043.94

     exc-cor stress (kbar)  -1130.82     -0.00     -0.00
                               -0.00  -1121.98     -0.00
                               -0.00     -0.00  -1130.43

     corecor stress (kbar)  -2029.50     -0.00      0.00
                               -0.00  -2028.87      0.00
                                0.00      0.00  -2029.45

     ewald   stress (kbar)  -9125.13      0.00     -0.00
                                0.00  -5541.44     -0.00
                               -0.00     -0.00 -21708.70

     hubbard stress (kbar)      0.00      0.00      0.00
                                0.00      0.00      0.00
                                0.00      0.00      0.00

     DFT-D   stress (kbar)      0.00      0.00      0.00
                                0.00      0.00      0.00
                                0.00      0.00      0.00

     XDM     stress (kbar)      0.00      0.00      0.00
                                0.00      0.00      0.00
                                0.00      0.00      0.00

     dft-nl  stress (kbar)      0.00      0.00      0.00
                                0.00      0.00      0.00
                                0.00      0.00      0.00

     TS-vdW  stress (kbar)      0.00      0.00      0.00
                                0.00      0.00      0.00
                                0.00      0.00      0.00



     Writing output data file /zfs_data/gutierre/Scratch/Cl2NbO/smearing/10x10x10/0.020/tmp/Cl2NbO.save/
 
     init_run     :      4.41s CPU      4.57s WALL (       1 calls)
     electrons    :    112.12s CPU    114.80s WALL (       1 calls)
     forces       :      0.88s CPU      0.88s WALL (       1 calls)
     stress       :      2.13s CPU      2.13s WALL (       1 calls)

     Called by init_run:
     wfcinit      :      3.19s CPU      3.29s WALL (       1 calls)
     wfcinit:atom :      0.02s CPU      0.02s WALL (     171 calls)
     wfcinit:wfcr :      3.07s CPU      3.17s WALL (     171 calls)
     potinit      :      0.37s CPU      0.39s WALL (       1 calls)
     hinit0       :      0.49s CPU      0.50s WALL (       1 calls)

     Called by electrons:
     c_bands      :     89.46s CPU     91.61s WALL (      13 calls)
     sum_band     :     19.42s CPU     19.87s WALL (      13 calls)
     v_of_rho     :      1.29s CPU      1.31s WALL (      14 calls)
     v_h          :      0.11s CPU      0.11s WALL (      14 calls)
     v_xc         :      1.34s CPU      1.37s WALL (      16 calls)
     newd         :      1.08s CPU      1.10s WALL (      14 calls)
     PAW_pot      :      0.73s CPU      0.75s WALL (      14 calls)
     mix_rho      :      0.19s CPU      0.19s WALL (      13 calls)

     Called by c_bands:
     init_us_2    :      1.21s CPU      1.27s WALL (    4959 calls)
     cegterg      :     86.87s CPU     88.89s WALL (    2223 calls)

     Called by sum_band:
     sum_band:wei :      0.08s CPU      0.09s WALL (      13 calls)
     sum_band:loo :     18.10s CPU     18.51s WALL (      13 calls)
     sum_band:buf :      0.17s CPU      0.18s WALL (    2223 calls)
     sum_band:ini :      0.58s CPU      0.59s WALL (    2223 calls)
     sum_band:cal :      0.63s CPU      0.64s WALL (    2223 calls)
     sum_band:bec :      0.06s CPU      0.07s WALL (    2223 calls)
     addusdens    :      1.08s CPU      1.11s WALL (      13 calls)
     addusd:skk   :      0.01s CPU      0.01s WALL (      39 calls)
     addusd:dgemm :      0.31s CPU      0.34s WALL (      39 calls)
     addusd:qvan2 :      0.71s CPU      0.71s WALL (      39 calls)

     Called by *egterg:
     cdiaghg      :      4.69s CPU      4.91s WALL (    8156 calls)
     cegterg:over :      1.66s CPU      1.70s WALL (    5933 calls)
     cegterg:upda :      0.51s CPU      0.52s WALL (    5933 calls)
     cegterg:last :      0.81s CPU      0.82s WALL (    4393 calls)
     h_psi        :     79.91s CPU     81.74s WALL (    8327 calls)
     s_psi        :      0.58s CPU      0.59s WALL (    8327 calls)
     g_psi        :      0.11s CPU      0.11s WALL (    5933 calls)

     Called by h_psi:
     h_psi:calbec :      1.91s CPU      1.95s WALL (    8327 calls)
     vloc_psi     :     76.82s CPU     78.58s WALL (    8327 calls)
     add_vuspsi   :      0.88s CPU      0.90s WALL (    8327 calls)

     General routines
     calbec       :      2.60s CPU      2.66s WALL (   11405 calls)
     fft          :      1.11s CPU      1.12s WALL (     205 calls)
     ffts         :      0.02s CPU      0.02s WALL (      27 calls)
     fftw         :     84.01s CPU     86.00s WALL (  284329 calls)
     interpolate  :      0.10s CPU      0.10s WALL (      14 calls)
 
     Parallel routines
     fft_scatt_xy :     11.08s CPU     11.25s WALL (  284561 calls)
     fft_scatt_yz :     37.19s CPU     38.06s WALL (  284561 calls)

     PAW routines
     PAW_pot      :      0.73s CPU      0.75s WALL (      14 calls)
     PAW_symme    :      0.02s CPU      0.03s WALL (      27 calls)
 
     PWSCF        :   2m 0.88s CPU   2m 9.14s WALL

 
   This run was terminated on:  17:39:43  18May2022            

=------------------------------------------------------------------------------=
   JOB DONE.
=------------------------------------------------------------------------------=
