
     Program PWSCF v.6.7MaX starts on 18May2022 at 17:51:32 

     This program is part of the open-source Quantum ESPRESSO suite
     for quantum simulation of materials; please cite
         "P. Giannozzi et al., J. Phys.:Condens. Matter 21 395502 (2009);
         "P. Giannozzi et al., J. Phys.:Condens. Matter 29 465901 (2017);
          URL http://www.quantum-espresso.org", 
     in publications or presentations arising from this work. More details at
     http://www.quantum-espresso.org/quote

     Parallel version (MPI), running on    48 processors

     MPI processes distributed on     1 nodes
     R & G space division:  proc/nbgrp/npool/nimage =      48
     Waiting for input...
     Reading input from standard input

     Current dimensions of program PWSCF are:
     Max number of different atomic species (ntypx) = 10
     Max number of k-points (npk) =  40000
     Max angular momentum in pseudopotentials (lmaxx) =  3
     file O.pbe-nl-kjpaw_psl.1.0.0.UPF: wavefunction(s)  2S 2P renormalized
     file Cl.pbe-nl-kjpaw_psl.1.0.0.UPF: wavefunction(s)  3S renormalized
     file Nb.pbe-spn-kjpaw_psl.1.0.0.UPF: wavefunction(s)  4S 4P 4D renormalized

     Subspace diagonalization in iterative solution of the eigenvalue problem:
     a serial algorithm will be used

     Message from routine setup:
     using ibrav=0 with symmetry is DISCOURAGED, use correct ibrav instead
 
     Parallelization info
     --------------------
     sticks:   dense  smooth     PW     G-vecs:    dense   smooth      PW
     Min         226      90     28                 8011     2025     357
     Max         227      91     29                 8013     2026     359
     Sum       10861    4353   1363               384583    97215   17183
 


     bravais-lattice index     =            0
     lattice parameter (alat)  =      12.6717  a.u.
     unit-cell volume          =     547.9313 (a.u.)^3
     number of atoms/cell      =            4
     number of atomic types    =            3
     number of electrons       =        33.00
     number of Kohn-Sham states=           21
     kinetic-energy cutoff     =     120.0000  Ry
     charge density cutoff     =    1200.0000  Ry
     scf convergence threshold =      1.0E-10
     mixing beta               =       0.7000
     number of iterations used =            8  plain     mixing
     Exchange-correlation= SLA  PW   PBX  PBC
                           (   1   4   3   4   0   0   0)

     celldm(1)=  12.671676  celldm(2)=   0.000000  celldm(3)=   0.000000
     celldm(4)=   0.000000  celldm(5)=   0.000000  celldm(6)=   0.000000

     crystal axes: (cart. coord. in units of alat)
               a(1) = (  -0.250426   0.291161   0.923316 )  
               a(2) = (   0.250426  -0.291161   0.923316 )  
               a(3) = (   0.250426   0.291161  -0.923316 )  

     reciprocal axes: (cart. coord. in units 2 pi/alat)
               b(1) = (  0.000000  1.717261  0.541527 )  
               b(2) = (  1.996594  0.000000  0.541527 )  
               b(3) = (  1.996594  1.717261  0.000000 )  


     PseudoPot. # 1 for O  read from file:
     /zfs_data/gutierre/Scratch/Cl2NbO/smearing/8x8x8/0.020/pseudo/O.pbe-nl-kjpaw_psl.1.0.0.UPF
     MD5 check sum: df3ddea38124b4e5de5e1084591730e4
     Pseudo is Projector augmented-wave + core cor, Zval =  6.0
     Generated using 'atomic' code by A. Dal Corso  v.6.7MaX
     Shape of augmentation charge: PSQ
     Using radial grid of 1095 points,  4 beta functions with: 
                l(1) =   0
                l(2) =   0
                l(3) =   1
                l(4) =   1
     Q(r) pseudized with 0 coefficients 


     PseudoPot. # 2 for Cl read from file:
     /zfs_data/gutierre/Scratch/Cl2NbO/smearing/8x8x8/0.020/pseudo/Cl.pbe-nl-kjpaw_psl.1.0.0.UPF
     MD5 check sum: 8cf6bde52c08f6236e0f72a8870677af
     Pseudo is Projector augmented-wave + core cor, Zval =  7.0
     Generated using 'atomic' code by A. Dal Corso  v.6.7MaX
     Shape of augmentation charge: PSQ
     Using radial grid of 1157 points,  4 beta functions with: 
                l(1) =   0
                l(2) =   0
                l(3) =   1
                l(4) =   1
     Q(r) pseudized with 0 coefficients 


     PseudoPot. # 3 for Nb read from file:
     /zfs_data/gutierre/Scratch/Cl2NbO/smearing/8x8x8/0.020/pseudo/Nb.pbe-spn-kjpaw_psl.1.0.0.UPF
     MD5 check sum: 1ec1a3aa7bf3cbf7f7e0d720422bce7a
     Pseudo is Projector augmented-wave + core cor, Zval = 13.0
     Generated using 'atomic' code by A. Dal Corso  v.6.7MaX
     Shape of augmentation charge: PSQ
     Using radial grid of 1227 points,  6 beta functions with: 
                l(1) =   0
                l(2) =   0
                l(3) =   1
                l(4) =   1
                l(5) =   2
                l(6) =   2
     Q(r) pseudized with 0 coefficients 


     atomic species   valence    mass     pseudopotential
        O              6.00    15.99940     O ( 1.00)
        Cl             7.00    35.45150     Cl( 1.00)
        Nb            13.00    92.90637     Nb( 1.00)

      8 Sym. Ops., with inversion, found


                                    s                        frac. trans.

      isym =  1     identity                                     

 cryst.   s( 1) = (     1          0          0      )
                  (     0          1          0      )
                  (     0          0          1      )

 cart.    s( 1) = (  1.0000000  0.0000000  0.0000000 )
                  (  0.0000000  1.0000000  0.0000000 )
                  (  0.0000000  0.0000000  1.0000000 )


      isym =  2     180 deg rotation - cart. axis [0,0,1]        

 cryst.   s( 2) = (     0          1          0      )
                  (     1          0          0      )
                  (    -1         -1         -1      )

 cart.    s( 2) = ( -1.0000000  0.0000000  0.0000000 )
                  (  0.0000000 -1.0000000  0.0000000 )
                  (  0.0000000  0.0000000  1.0000000 )


      isym =  3     180 deg rotation - cart. axis [0,1,0]        

 cryst.   s( 3) = (     0          0          1      )
                  (    -1         -1         -1      )
                  (     1          0          0      )

 cart.    s( 3) = ( -1.0000000  0.0000000  0.0000000 )
                  (  0.0000000  1.0000000  0.0000000 )
                  (  0.0000000  0.0000000 -1.0000000 )


      isym =  4     180 deg rotation - cart. axis [1,0,0]        

 cryst.   s( 4) = (    -1         -1         -1      )
                  (     0          0          1      )
                  (     0          1          0      )

 cart.    s( 4) = (  1.0000000  0.0000000  0.0000000 )
                  (  0.0000000 -1.0000000  0.0000000 )
                  (  0.0000000  0.0000000 -1.0000000 )


      isym =  5     inversion                                    

 cryst.   s( 5) = (    -1          0          0      )
                  (     0         -1          0      )
                  (     0          0         -1      )

 cart.    s( 5) = ( -1.0000000  0.0000000  0.0000000 )
                  (  0.0000000 -1.0000000  0.0000000 )
                  (  0.0000000  0.0000000 -1.0000000 )


      isym =  6     inv. 180 deg rotation - cart. axis [0,0,1]   

 cryst.   s( 6) = (     0         -1          0      )
                  (    -1          0          0      )
                  (     1          1          1      )

 cart.    s( 6) = (  1.0000000  0.0000000  0.0000000 )
                  (  0.0000000  1.0000000  0.0000000 )
                  (  0.0000000  0.0000000 -1.0000000 )


      isym =  7     inv. 180 deg rotation - cart. axis [0,1,0]   

 cryst.   s( 7) = (     0          0         -1      )
                  (     1          1          1      )
                  (    -1          0          0      )

 cart.    s( 7) = (  1.0000000  0.0000000  0.0000000 )
                  (  0.0000000 -1.0000000  0.0000000 )
                  (  0.0000000  0.0000000  1.0000000 )


      isym =  8     inv. 180 deg rotation - cart. axis [1,0,0]   

 cryst.   s( 8) = (     1          1          1      )
                  (     0          0         -1      )
                  (     0         -1          0      )

 cart.    s( 8) = ( -1.0000000  0.0000000  0.0000000 )
                  (  0.0000000  1.0000000  0.0000000 )
                  (  0.0000000  0.0000000  1.0000000 )


   Cartesian axes

     site n.     atom                  positions (alat units)
         1           O   tau(   1) = (   0.0000000   0.2911613   0.0000000  )
         2           Cl  tau(   2) = (  -0.0000000   0.2911613   0.6365338  )
         3           Cl  tau(   3) = (   0.2504264  -0.0000000   0.2867819  )
         4           Nb  tau(   4) = (   0.0000000   0.0000000   0.0000000  )

   Crystallographic axes

     site n.     atom                  positions (cryst. coord.)
         1           O   tau(   1) = (  0.5000000  0.0000000  0.5000000  )
         2           Cl  tau(   2) = (  0.8447000  0.3447000  0.5000000  )
         3           Cl  tau(   3) = (  0.1553000  0.6553000  0.5000000  )
         4           Nb  tau(   4) = (  0.0000000  0.0000000  0.0000000  )

     number of k points=    95  Methfessel-Paxton smearing, width (Ry)=  0.0200
                       cart. coord. in units 2pi/alat
        k(    1) = (   0.0000000   0.0000000   0.0000000), wk =   0.0039062
        k(    2) = (   0.2495743   0.2146577   0.0000000), wk =   0.0156250
        k(    3) = (   0.4991486   0.4293153   0.0000000), wk =   0.0156250
        k(    4) = (   0.7487229   0.6439730   0.0000000), wk =   0.0156250
        k(    5) = (  -0.9982971  -0.8586307   0.0000000), wk =   0.0078125
        k(    6) = (   0.2495743   0.0000000   0.0676908), wk =   0.0156250
        k(    7) = (   0.4991486   0.2146577   0.0676908), wk =   0.0312500
        k(    8) = (   0.7487229   0.4293153   0.0676908), wk =   0.0312500
        k(    9) = (   0.9982971   0.6439730   0.0676908), wk =   0.0312500
        k(   10) = (  -0.7487229  -0.8586307   0.0676908), wk =   0.0312500
        k(   11) = (  -0.4991486  -0.6439730   0.0676908), wk =   0.0312500
        k(   12) = (  -0.2495743  -0.4293153   0.0676908), wk =   0.0312500
        k(   13) = (   0.0000000  -0.2146577   0.0676908), wk =   0.0156250
        k(   14) = (   0.4991486   0.0000000   0.1353817), wk =   0.0156250
        k(   15) = (   0.7487229   0.2146577   0.1353817), wk =   0.0312500
        k(   16) = (   0.9982971   0.4293153   0.1353817), wk =   0.0312500
        k(   17) = (   1.2478714   0.6439730   0.1353817), wk =   0.0312500
        k(   18) = (  -0.4991486  -0.8586307   0.1353817), wk =   0.0312500
        k(   19) = (  -0.2495743  -0.6439730   0.1353817), wk =   0.0312500
        k(   20) = (   0.0000000  -0.4293153   0.1353817), wk =   0.0156250
        k(   21) = (   0.2495743  -0.2146577   0.1353817), wk =   0.0312500
        k(   22) = (   0.7487229   0.0000000   0.2030725), wk =   0.0156250
        k(   23) = (   0.9982971   0.2146577   0.2030725), wk =   0.0312500
        k(   24) = (   1.2478714   0.4293153   0.2030725), wk =   0.0312500
        k(   25) = (   1.4974457   0.6439730   0.2030725), wk =   0.0312500
        k(   26) = (  -0.2495743  -0.8586307   0.2030725), wk =   0.0312500
        k(   27) = (   0.0000000  -0.6439730   0.2030725), wk =   0.0156250
        k(   28) = (   0.2495743  -0.4293153   0.2030725), wk =   0.0312500
        k(   29) = (   0.4991486  -0.2146577   0.2030725), wk =   0.0312500
        k(   30) = (  -0.9982971   0.0000000  -0.2707633), wk =   0.0078125
        k(   31) = (  -0.7487229   0.2146577  -0.2707633), wk =   0.0312500
        k(   32) = (  -0.4991486   0.4293153  -0.2707633), wk =   0.0312500
        k(   33) = (  -0.2495743   0.6439730  -0.2707633), wk =   0.0312500
        k(   34) = (  -1.9965943  -0.8586307  -0.2707633), wk =   0.0078125
        k(   35) = (   0.4991486   0.4293153   0.1353817), wk =   0.0312500
        k(   36) = (   0.7487229   0.6439730   0.1353817), wk =   0.0312500
        k(   37) = (   0.9982971   0.8586307   0.1353817), wk =   0.0156250
        k(   38) = (   0.0000000   0.0000000   0.1353817), wk =   0.0078125
        k(   39) = (   0.7487229   0.4293153   0.2030725), wk =   0.0312500
        k(   40) = (   0.9982971   0.6439730   0.2030725), wk =   0.0312500
        k(   41) = (   1.2478714   0.8586307   0.2030725), wk =   0.0312500
        k(   42) = (  -0.4991486  -0.6439730   0.2030725), wk =   0.0312500
        k(   43) = (   0.0000000  -0.2146577   0.2030725), wk =   0.0156250
        k(   44) = (   0.2495743   0.0000000   0.2030725), wk =   0.0156250
        k(   45) = (   0.9982971   0.4293153   0.2707633), wk =   0.0156250
        k(   46) = (   1.2478714   0.6439730   0.2707633), wk =   0.0312500
        k(   47) = (   1.4974457   0.8586307   0.2707633), wk =   0.0156250
        k(   48) = (   0.0000000  -0.4293153   0.2707633), wk =   0.0156250
        k(   49) = (   0.2495743  -0.2146577   0.2707633), wk =   0.0312500
        k(   50) = (   0.4991486   0.0000000   0.2707633), wk =   0.0156250
        k(   51) = (  -1.9965943  -0.6439730  -0.2030725), wk =   0.0156250
        k(   52) = (  -1.7470200  -0.4293153  -0.2030725), wk =   0.0312500
        k(   53) = (  -1.4974457  -0.2146577  -0.2030725), wk =   0.0312500
        k(   54) = (  -1.2478714   0.0000000  -0.2030725), wk =   0.0156250
        k(   55) = (   0.0000000   0.8586307  -0.1353817), wk =   0.0156250
        k(   56) = (  -1.7470200  -0.6439730  -0.1353817), wk =   0.0312500
        k(   57) = (  -1.4974457  -0.4293153  -0.1353817), wk =   0.0312500
        k(   58) = (  -1.2478714  -0.2146577  -0.1353817), wk =   0.0312500
        k(   59) = (  -0.9982971   0.0000000  -0.1353817), wk =   0.0156250
        k(   60) = (   0.0000000   0.6439730  -0.0676908), wk =   0.0156250
        k(   61) = (   0.2495743   0.8586307  -0.0676908), wk =   0.0312500
        k(   62) = (  -1.4974457  -0.6439730  -0.0676908), wk =   0.0312500
        k(   63) = (  -1.2478714  -0.4293153  -0.0676908), wk =   0.0312500
        k(   64) = (  -0.9982971  -0.2146577  -0.0676908), wk =   0.0312500
        k(   65) = (  -0.7487229   0.0000000  -0.0676908), wk =   0.0156250
        k(   66) = (   0.0000000   0.4293153   0.0000000), wk =   0.0078125
        k(   67) = (   0.2495743   0.6439730   0.0000000), wk =   0.0156250
        k(   68) = (   0.4991486   0.8586307   0.0000000), wk =   0.0156250
        k(   69) = (  -1.2478714  -0.6439730   0.0000000), wk =   0.0156250
        k(   70) = (  -0.9982971  -0.4293153   0.0000000), wk =   0.0156250
        k(   71) = (  -0.7487229  -0.2146577   0.0000000), wk =   0.0156250
        k(   72) = (  -0.4991486   0.0000000   0.0000000), wk =   0.0078125
        k(   73) = (   0.9982971   0.8586307   0.2707633), wk =   0.0078125
        k(   74) = (   0.0000000   0.0000000   0.2707633), wk =   0.0078125
        k(   75) = (   0.0000000  -0.2146577   0.3384542), wk =   0.0156250
        k(   76) = (   0.2495743   0.0000000   0.3384542), wk =   0.0156250
        k(   77) = (  -1.9965943  -0.4293153  -0.1353817), wk =   0.0156250
        k(   78) = (  -1.7470200  -0.2146577  -0.1353817), wk =   0.0312500
        k(   79) = (  -1.4974457   0.0000000  -0.1353817), wk =   0.0156250
        k(   80) = (   0.0000000   1.0732883  -0.0676908), wk =   0.0156250
        k(   81) = (  -1.7470200  -0.4293153  -0.0676908), wk =   0.0312500
        k(   82) = (  -1.4974457  -0.2146577  -0.0676908), wk =   0.0312500
        k(   83) = (  -1.2478714   0.0000000  -0.0676908), wk =   0.0156250
        k(   84) = (   0.0000000   0.8586307   0.0000000), wk =   0.0078125
        k(   85) = (   0.2495743   1.0732883   0.0000000), wk =   0.0156250
        k(   86) = (  -1.4974457  -0.4293153   0.0000000), wk =   0.0156250
        k(   87) = (  -1.2478714  -0.2146577   0.0000000), wk =   0.0156250
        k(   88) = (  -0.9982971   0.0000000   0.0000000), wk =   0.0078125
        k(   89) = (   0.0000000   0.0000000   0.4061450), wk =   0.0078125
        k(   90) = (  -1.9965943  -0.2146577  -0.0676908), wk =   0.0156250
        k(   91) = (  -1.7470200   0.0000000  -0.0676908), wk =   0.0156250
        k(   92) = (   0.0000000   1.2879460   0.0000000), wk =   0.0078125
        k(   93) = (  -1.7470200  -0.2146577   0.0000000), wk =   0.0156250
        k(   94) = (  -1.4974457   0.0000000   0.0000000), wk =   0.0078125
        k(   95) = (  -1.9965943  -1.7172613  -0.5415266), wk =   0.0039062

                       cryst. coord.
        k(    1) = (   0.0000000   0.0000000   0.0000000), wk =   0.0039062
        k(    2) = (   0.0000000   0.0000000   0.1250000), wk =   0.0156250
        k(    3) = (   0.0000000   0.0000000   0.2500000), wk =   0.0156250
        k(    4) = (  -0.0000000   0.0000000   0.3750000), wk =   0.0156250
        k(    5) = (   0.0000000   0.0000000  -0.5000000), wk =   0.0078125
        k(    6) = (   0.0000000   0.1250000   0.0000000), wk =   0.0156250
        k(    7) = (   0.0000000   0.1250000   0.1250000), wk =   0.0312500
        k(    8) = (   0.0000000   0.1250000   0.2500000), wk =   0.0312500
        k(    9) = (  -0.0000000   0.1250000   0.3750000), wk =   0.0312500
        k(   10) = (   0.0000000   0.1250000  -0.5000000), wk =   0.0312500
        k(   11) = (   0.0000000   0.1250000  -0.3750000), wk =   0.0312500
        k(   12) = (   0.0000000   0.1250000  -0.2500000), wk =   0.0312500
        k(   13) = (   0.0000000   0.1250000  -0.1250000), wk =   0.0156250
        k(   14) = (   0.0000000   0.2500000   0.0000000), wk =   0.0156250
        k(   15) = (   0.0000000   0.2500000   0.1250000), wk =   0.0312500
        k(   16) = (   0.0000000   0.2500000   0.2500000), wk =   0.0312500
        k(   17) = (  -0.0000000   0.2500000   0.3750000), wk =   0.0312500
        k(   18) = (   0.0000000   0.2500000  -0.5000000), wk =   0.0312500
        k(   19) = (   0.0000000   0.2500000  -0.3750000), wk =   0.0312500
        k(   20) = (   0.0000000   0.2500000  -0.2500000), wk =   0.0156250
        k(   21) = (   0.0000000   0.2500000  -0.1250000), wk =   0.0312500
        k(   22) = (   0.0000000   0.3750000   0.0000000), wk =   0.0156250
        k(   23) = (   0.0000000   0.3750000   0.1250000), wk =   0.0312500
        k(   24) = (  -0.0000000   0.3750000   0.2500000), wk =   0.0312500
        k(   25) = (  -0.0000000   0.3750000   0.3750000), wk =   0.0312500
        k(   26) = (   0.0000000   0.3750000  -0.5000000), wk =   0.0312500
        k(   27) = (   0.0000000   0.3750000  -0.3750000), wk =   0.0156250
        k(   28) = (   0.0000000   0.3750000  -0.2500000), wk =   0.0312500
        k(   29) = (   0.0000000   0.3750000  -0.1250000), wk =   0.0312500
        k(   30) = (   0.0000000  -0.5000000   0.0000000), wk =   0.0078125
        k(   31) = (   0.0000000  -0.5000000   0.1250000), wk =   0.0312500
        k(   32) = (   0.0000000  -0.5000000   0.2500000), wk =   0.0312500
        k(   33) = (   0.0000000  -0.5000000   0.3750000), wk =   0.0312500
        k(   34) = (   0.0000000  -0.5000000  -0.5000000), wk =   0.0078125
        k(   35) = (   0.1250000   0.1250000   0.1250000), wk =   0.0312500
        k(   36) = (   0.1250000   0.1250000   0.2500000), wk =   0.0312500
        k(   37) = (   0.1250000   0.1250000   0.3750000), wk =   0.0156250
        k(   38) = (   0.1250000   0.1250000  -0.1250000), wk =   0.0078125
        k(   39) = (   0.1250000   0.2500000   0.1250000), wk =   0.0312500
        k(   40) = (   0.1250000   0.2500000   0.2500000), wk =   0.0312500
        k(   41) = (   0.1250000   0.2500000   0.3750000), wk =   0.0312500
        k(   42) = (   0.1250000   0.2500000  -0.5000000), wk =   0.0312500
        k(   43) = (   0.1250000   0.2500000  -0.2500000), wk =   0.0156250
        k(   44) = (   0.1250000   0.2500000  -0.1250000), wk =   0.0156250
        k(   45) = (   0.1250000   0.3750000   0.1250000), wk =   0.0156250
        k(   46) = (   0.1250000   0.3750000   0.2500000), wk =   0.0312500
        k(   47) = (   0.1250000   0.3750000   0.3750000), wk =   0.0156250
        k(   48) = (   0.1250000   0.3750000  -0.3750000), wk =   0.0156250
        k(   49) = (   0.1250000   0.3750000  -0.2500000), wk =   0.0312500
        k(   50) = (   0.1250000   0.3750000  -0.1250000), wk =   0.0156250
        k(   51) = (   0.1250000  -0.5000000  -0.5000000), wk =   0.0156250
        k(   52) = (   0.1250000  -0.5000000  -0.3750000), wk =   0.0312500
        k(   53) = (   0.1250000  -0.5000000  -0.2500000), wk =   0.0312500
        k(   54) = (   0.1250000  -0.5000000  -0.1250000), wk =   0.0156250
        k(   55) = (   0.1250000  -0.3750000   0.3750000), wk =   0.0156250
        k(   56) = (   0.1250000  -0.3750000  -0.5000000), wk =   0.0312500
        k(   57) = (   0.1250000  -0.3750000  -0.3750000), wk =   0.0312500
        k(   58) = (   0.1250000  -0.3750000  -0.2500000), wk =   0.0312500
        k(   59) = (   0.1250000  -0.3750000  -0.1250000), wk =   0.0156250
        k(   60) = (   0.1250000  -0.2500000   0.2500000), wk =   0.0156250
        k(   61) = (   0.1250000  -0.2500000   0.3750000), wk =   0.0312500
        k(   62) = (   0.1250000  -0.2500000  -0.5000000), wk =   0.0312500
        k(   63) = (   0.1250000  -0.2500000  -0.3750000), wk =   0.0312500
        k(   64) = (   0.1250000  -0.2500000  -0.2500000), wk =   0.0312500
        k(   65) = (   0.1250000  -0.2500000  -0.1250000), wk =   0.0156250
        k(   66) = (   0.1250000  -0.1250000   0.1250000), wk =   0.0078125
        k(   67) = (   0.1250000  -0.1250000   0.2500000), wk =   0.0156250
        k(   68) = (   0.1250000  -0.1250000   0.3750000), wk =   0.0156250
        k(   69) = (   0.1250000  -0.1250000  -0.5000000), wk =   0.0156250
        k(   70) = (   0.1250000  -0.1250000  -0.3750000), wk =   0.0156250
        k(   71) = (   0.1250000  -0.1250000  -0.2500000), wk =   0.0156250
        k(   72) = (   0.1250000  -0.1250000  -0.1250000), wk =   0.0078125
        k(   73) = (   0.2500000   0.2500000   0.2500000), wk =   0.0078125
        k(   74) = (   0.2500000   0.2500000  -0.2500000), wk =   0.0078125
        k(   75) = (   0.2500000   0.3750000  -0.3750000), wk =   0.0156250
        k(   76) = (   0.2500000   0.3750000  -0.2500000), wk =   0.0156250
        k(   77) = (   0.2500000  -0.5000000  -0.5000000), wk =   0.0156250
        k(   78) = (   0.2500000  -0.5000000  -0.3750000), wk =   0.0312500
        k(   79) = (   0.2500000  -0.5000000  -0.2500000), wk =   0.0156250
        k(   80) = (   0.2500000  -0.3750000   0.3750000), wk =   0.0156250
        k(   81) = (   0.2500000  -0.3750000  -0.5000000), wk =   0.0312500
        k(   82) = (   0.2500000  -0.3750000  -0.3750000), wk =   0.0312500
        k(   83) = (   0.2500000  -0.3750000  -0.2500000), wk =   0.0156250
        k(   84) = (   0.2500000  -0.2500000   0.2500000), wk =   0.0078125
        k(   85) = (   0.2500000  -0.2500000   0.3750000), wk =   0.0156250
        k(   86) = (   0.2500000  -0.2500000  -0.5000000), wk =   0.0156250
        k(   87) = (   0.2500000  -0.2500000  -0.3750000), wk =   0.0156250
        k(   88) = (   0.2500000  -0.2500000  -0.2500000), wk =   0.0078125
        k(   89) = (   0.3750000   0.3750000  -0.3750000), wk =   0.0078125
        k(   90) = (   0.3750000  -0.5000000  -0.5000000), wk =   0.0156250
        k(   91) = (   0.3750000  -0.5000000  -0.3750000), wk =   0.0156250
        k(   92) = (   0.3750000  -0.3750000   0.3750000), wk =   0.0078125
        k(   93) = (   0.3750000  -0.3750000  -0.5000000), wk =   0.0156250
        k(   94) = (   0.3750000  -0.3750000  -0.3750000), wk =   0.0078125
        k(   95) = (  -0.5000000  -0.5000000  -0.5000000), wk =   0.0039062

     Dense  grid:   384583 G-vectors     FFT dimensions: ( 144, 144, 144)

     Smooth grid:    97215 G-vectors     FFT dimensions: (  90,  90,  90)

     Dynamical RAM for                 wfc:       0.08 MB

     Dynamical RAM for     wfc (w. buffer):       7.78 MB

     Dynamical RAM for           str. fact:       0.37 MB

     Dynamical RAM for           local pot:       0.00 MB

     Dynamical RAM for          nlocal pot:       0.16 MB

     Dynamical RAM for                qrad:       8.33 MB

     Dynamical RAM for          rho,v,vnew:       1.79 MB

     Dynamical RAM for               rhoin:       0.60 MB

     Dynamical RAM for            rho*nmix:       1.96 MB

     Dynamical RAM for           G-vectors:       0.47 MB

     Dynamical RAM for          h,s,v(r/c):       0.08 MB

     Dynamical RAM for          <psi|beta>:       0.01 MB

     Dynamical RAM for                 psi:       0.16 MB

     Dynamical RAM for                hpsi:       0.16 MB

     Dynamical RAM for                spsi:       0.16 MB

     Dynamical RAM for      wfcinit/wfcrot:       0.21 MB

     Dynamical RAM for           addusdens:      22.98 MB

     Dynamical RAM for          addusforce:      23.30 MB

     Dynamical RAM for         addusstress:      24.57 MB

     Estimated static dynamical RAM per process >      24.33 MB

     Estimated max dynamical RAM per process >      48.90 MB

     Estimated total dynamical RAM >       2.29 GB

     Initial potential from superposition of free atoms

     starting charge   32.99867, renormalised to   33.00000
     Starting wfcs are   25 randomized atomic wfcs
     Checking if some PAW data can be deallocated... 
       PAW data deallocated on   36 nodes for type:  1
       PAW data deallocated on   24 nodes for type:  2
       PAW data deallocated on   36 nodes for type:  3

     total cpu time spent up to now is        3.4 secs

     Self-consistent Calculation

     iteration #  1     ecut=   120.00 Ry     beta= 0.70
     Davidson diagonalization with overlap
     ethr =  1.00E-02,  avg # of iterations =  2.3

     total cpu time spent up to now is        8.2 secs

     total energy              =    -534.52386516 Ry
     estimated scf accuracy    <       0.76525374 Ry

     iteration #  2     ecut=   120.00 Ry     beta= 0.70
     Davidson diagonalization with overlap
     ethr =  2.32E-03,  avg # of iterations =  3.7

     total cpu time spent up to now is       14.0 secs

     total energy              =    -533.63878401 Ry
     estimated scf accuracy    <       8.34989431 Ry

     iteration #  3     ecut=   120.00 Ry     beta= 0.70
     Davidson diagonalization with overlap
     ethr =  2.32E-03,  avg # of iterations =  3.5

     total cpu time spent up to now is       19.2 secs

     total energy              =    -534.97384406 Ry
     estimated scf accuracy    <       0.12413204 Ry

     iteration #  4     ecut=   120.00 Ry     beta= 0.70
     Davidson diagonalization with overlap
     ethr =  3.76E-04,  avg # of iterations =  1.3

     total cpu time spent up to now is       23.5 secs

     total energy              =    -534.96789077 Ry
     estimated scf accuracy    <       0.05885614 Ry

     iteration #  5     ecut=   120.00 Ry     beta= 0.70
     Davidson diagonalization with overlap
     ethr =  1.78E-04,  avg # of iterations =  1.5

     total cpu time spent up to now is       27.8 secs

     total energy              =    -534.96381501 Ry
     estimated scf accuracy    <       0.02397661 Ry

     iteration #  6     ecut=   120.00 Ry     beta= 0.70
     Davidson diagonalization with overlap
     ethr =  7.27E-05,  avg # of iterations =  2.0

     total cpu time spent up to now is       32.3 secs

     total energy              =    -534.96656688 Ry
     estimated scf accuracy    <       0.00056403 Ry

     iteration #  7     ecut=   120.00 Ry     beta= 0.70
     Davidson diagonalization with overlap
     ethr =  1.71E-06,  avg # of iterations =  3.7

     total cpu time spent up to now is       38.0 secs

     total energy              =    -534.96675653 Ry
     estimated scf accuracy    <       0.00019629 Ry

     iteration #  8     ecut=   120.00 Ry     beta= 0.70
     Davidson diagonalization with overlap
     ethr =  5.95E-07,  avg # of iterations =  1.3

     total cpu time spent up to now is       42.3 secs

     total energy              =    -534.96676058 Ry
     estimated scf accuracy    <       0.00002728 Ry

     iteration #  9     ecut=   120.00 Ry     beta= 0.70
     Davidson diagonalization with overlap
     ethr =  8.27E-08,  avg # of iterations =  2.4

     total cpu time spent up to now is       47.0 secs

     total energy              =    -534.96676736 Ry
     estimated scf accuracy    <       0.00000080 Ry

     iteration # 10     ecut=   120.00 Ry     beta= 0.70
     Davidson diagonalization with overlap
     ethr =  2.44E-09,  avg # of iterations =  3.7

     total cpu time spent up to now is       52.6 secs

     total energy              =    -534.96676771 Ry
     estimated scf accuracy    <          6.1E-09 Ry

     iteration # 11     ecut=   120.00 Ry     beta= 0.70
     Davidson diagonalization with overlap
     ethr =  1.85E-11,  avg # of iterations =  5.1

     total cpu time spent up to now is       60.0 secs

     total energy              =    -534.96676771 Ry
     estimated scf accuracy    <       0.00000002 Ry

     iteration # 12     ecut=   120.00 Ry     beta= 0.70
     Davidson diagonalization with overlap
     ethr =  1.85E-11,  avg # of iterations =  2.5

     total cpu time spent up to now is       65.1 secs

     End of self-consistent calculation

          k = 0.0000 0.0000 0.0000 ( 12131 PWs)   bands (ev):

   -49.8468 -26.0754 -25.7943 -25.7109 -12.3941  -9.5134  -8.8238   0.6226
     2.4711   2.7325   2.8748   2.9943   3.4533   3.9416   4.1991   4.2837
     5.5096   7.2097   7.3479   8.6511   9.3827

     occupation numbers 
     1.0000   1.0000   1.0000   1.0000   1.0000   1.0000   1.0000   1.0000
     1.0000   1.0000   1.0000   1.0000   1.0000   1.0000   1.0000   1.0000
     1.0000  -0.0281  -0.0081  -0.0000  -0.0000

          k = 0.2496 0.2147 0.0000 ( 12121 PWs)   bands (ev):

   -49.8441 -26.1005 -25.7877 -25.7419 -12.1990  -9.4047  -8.8315   0.8340
     2.1179   2.2611   2.4314   2.9900   3.2961   3.5033   3.8797   4.0337
     5.9440   7.5195   7.5922   8.7552  10.0860

     occupation numbers 
     1.0000   1.0000   1.0000   1.0000   1.0000   1.0000   1.0000   1.0000
     1.0000   1.0000   1.0000   1.0000   1.0000   1.0000   1.0000   1.0000
     1.0000  -0.0006  -0.0002  -0.0000  -0.0000

          k = 0.4991 0.4293 0.0000 ( 12152 PWs)   bands (ev):

   -49.8378 -26.1592 -25.8158 -25.7718 -11.7002  -9.1271  -8.8535   1.0972
     1.4043   1.7283   1.9016   2.0023   2.1902   2.9276   3.8431   4.0125
     6.8150   8.1580   8.2652   9.1641  11.1457

     occupation numbers 
     1.0000   1.0000   1.0000   1.0000   1.0000   1.0000   1.0000   1.0000
     1.0000   1.0000   1.0000   1.0000   1.0000   1.0000   1.0000   1.0000
     0.4674  -0.0000  -0.0000  -0.0000  -0.0000

          k = 0.7487 0.6440 0.0000 ( 12176 PWs)   bands (ev):

   -49.8315 -26.2156 -25.8882 -25.7559 -11.1506  -8.8806  -8.8225  -0.0866
     0.9725   1.2675   1.6667   1.7754   2.1924   2.3140   3.5232   3.9753
     7.8720   8.8462   9.0499   9.5808  11.3782

     occupation numbers 
     1.0000   1.0000   1.0000   1.0000   1.0000   1.0000   1.0000   1.0000
     1.0000   1.0000   1.0000   1.0000   1.0000   1.0000   1.0000   1.0000
    -0.0000  -0.0000  -0.0000  -0.0000  -0.0000

          k =-0.9983-0.8586 0.0000 ( 12140 PWs)   bands (ev):

   -49.8288 -26.2383 -25.9179 -25.7493 -10.9033  -8.8932  -8.6858  -0.5755
     0.6007   0.9581   1.7514   1.8347   1.9770   2.5791   3.2716   3.8795
     8.4712   9.1768   9.3659   9.7713  11.4026

     occupation numbers 
     1.0000   1.0000   1.0000   1.0000   1.0000   1.0000   1.0000   1.0000
     1.0000   1.0000   1.0000   1.0000   1.0000   1.0000   1.0000   1.0000
    -0.0000  -0.0000  -0.0000  -0.0000  -0.0000

          k = 0.2496 0.0000 0.0677 ( 12148 PWs)   bands (ev):

   -49.8446 -26.0729 -25.7887 -25.7428 -12.3769  -9.4240  -8.8368   0.8120
     2.2544   2.6606   2.9488   3.0530   3.1020   3.7952   3.9305   4.1177
     5.9283   7.1197   7.2877   8.7353   9.7602

     occupation numbers 
     1.0000   1.0000   1.0000   1.0000   1.0000   1.0000   1.0000   1.0000
     1.0000   1.0000   1.0000   1.0000   1.0000   1.0000   1.0000   1.0000
     1.0000  -0.0347  -0.0154  -0.0000  -0.0000

          k = 0.4991 0.2147 0.0677 ( 12153 PWs)   bands (ev):

   -49.8390 -26.0942 -25.8182 -25.7742 -12.1581  -9.1843  -8.8552   1.2400
     1.9062   2.0852   2.2399   2.4757   2.8834   3.0673   3.8656   4.0684
     6.7634   7.3169   7.4312   9.1671  10.5448

     occupation numbers 
     1.0000   1.0000   1.0000   1.0000   1.0000   1.0000   1.0000   1.0000
     1.0000   1.0000   1.0000   1.0000   1.0000   1.0000   1.0000   1.0000
     0.6263  -0.0115  -0.0027  -0.0000  -0.0000

          k = 0.7487 0.4293 0.0677 ( 12179 PWs)   bands (ev):

   -49.8327 -26.1525 -25.8908 -25.7582 -11.6608  -8.9056  -8.8589   1.0844
     1.2371   1.4364   1.6824   1.9156   2.2662   2.5403   3.7125   4.1134
     7.7198   8.0633   8.1619   9.6581  11.1209

     occupation numbers 
     1.0000   1.0000   1.0000   1.0000   1.0000   1.0000   1.0000   1.0000
     1.0000   1.0000   1.0000   1.0000   1.0000   1.0000   1.0000   1.0000
    -0.0000  -0.0000  -0.0000  -0.0000  -0.0000

          k = 0.9983 0.6440 0.0677 ( 12173 PWs)   bands (ev):

   -49.8293 -26.2127 -25.9189 -25.7503 -11.1351  -8.9053  -8.6992  -0.0739
     0.7473   0.9316   1.5612   1.9451   2.2051   2.6091   3.3464   3.9447
     8.4586   8.7737   9.0090   9.7563  11.2771

     occupation numbers 
     1.0000   1.0000   1.0000   1.0000   1.0000   1.0000   1.0000   1.0000
     1.0000   1.0000   1.0000   1.0000   1.0000   1.0000   1.0000   1.0000
    -0.0000  -0.0000  -0.0000  -0.0000  -0.0000

          k =-0.7487-0.8586 0.0677 ( 12172 PWs)   bands (ev):

   -49.8310 -26.2414 -25.8872 -25.7550 -10.9180  -8.8992  -8.7766  -0.5862
     0.7860   1.2484   1.4386   1.8004   2.3359   2.4076   3.4328   3.8227
     7.9238   9.2281   9.4151   9.4896  11.3386

     occupation numbers 
     1.0000   1.0000   1.0000   1.0000   1.0000   1.0000   1.0000   1.0000
     1.0000   1.0000   1.0000   1.0000   1.0000   1.0000   1.0000   1.0000
    -0.0000  -0.0000  -0.0000  -0.0000  -0.0000

          k =-0.4991-0.6440 0.0677 ( 12166 PWs)   bands (ev):

   -49.8366 -26.2227 -25.8134 -25.7694 -11.1873  -9.0512  -8.8718  -0.1157
     1.3196   1.4556   1.5761   1.8818   2.1401   2.9364   3.7137   3.8058
     6.8917   8.9637   9.0473   9.2165  11.4213

     occupation numbers 
     1.0000   1.0000   1.0000   1.0000   1.0000   1.0000   1.0000   1.0000
     1.0000   1.0000   1.0000   1.0000   1.0000   1.0000   1.0000   1.0000
     0.2439  -0.0000  -0.0000  -0.0000  -0.0000

          k =-0.2496-0.4293 0.0677 ( 12135 PWs)   bands (ev):

   -49.8430 -26.1659 -25.7853 -25.7397 -11.7393  -9.3363  -8.8451   0.9193
     1.1213   1.4902   2.2571   2.5135   3.1873   3.4138   3.7272   3.9131
     6.0085   8.3646   8.3974   8.7897  10.6458

     occupation numbers 
     1.0000   1.0000   1.0000   1.0000   1.0000   1.0000   1.0000   1.0000
     1.0000   1.0000   1.0000   1.0000   1.0000   1.0000   1.0000   1.0000
     1.0001  -0.0000  -0.0000  -0.0000  -0.0000

          k = 0.0000-0.2147 0.0677 ( 12112 PWs)   bands (ev):

   -49.8463 -26.1030 -25.7933 -25.7100 -12.2159  -9.4830  -8.8326   0.6752
     2.0588   2.4195   2.4937   3.2864   3.3604   3.7516   3.9554   4.1629
     5.5383   7.6345   7.6574   8.6806   9.7200

     occupation numbers 
     1.0000   1.0000   1.0000   1.0000   1.0000   1.0000   1.0000   1.0000
     1.0000   1.0000   1.0000   1.0000   1.0000   1.0000   1.0000   1.0000
     1.0000  -0.0001  -0.0000  -0.0000  -0.0000

          k = 0.4991 0.0000 0.1354 ( 12156 PWs)   bands (ev):

   -49.8395 -26.0669 -25.8192 -25.7751 -12.3353  -9.2012  -8.8629   1.1883
     1.9281   2.0289   2.4810   3.0427   3.3259   3.4544   3.7790   3.9051
     6.7930   6.9333   7.0882   9.1083  10.1053

     occupation numbers 
     1.0000   1.0000   1.0000   1.0000   1.0000   1.0000   1.0000   1.0000
     1.0000   1.0000   1.0000   1.0000   1.0000   1.0000   1.0000   1.0000
     0.5359   0.1449  -0.0290  -0.0000  -0.0000

          k = 0.7487 0.2147 0.1354 ( 12169 PWs)   bands (ev):

   -49.8338 -26.0880 -25.8934 -25.7606 -12.1172  -8.9659  -8.8578   1.0827
     1.4605   1.8240   2.0218   2.6091   2.7598   3.1357   3.8311   4.0149
     7.0886   7.2194   7.8564   9.6480  10.4436

     occupation numbers 
     1.0000   1.0000   1.0000   1.0000   1.0000   1.0000   1.0000   1.0000
     1.0000   1.0000   1.0000   1.0000   1.0000   1.0000   1.0000   1.0000
    -0.0291  -0.0265  -0.0000  -0.0000  -0.0000

          k = 0.9983 0.4293 0.1354 ( 12163 PWs)   bands (ev):

   -49.8305 -26.1497 -25.9216 -25.7526 -11.6444  -8.9341  -8.7310   0.7704
     1.2112   1.2268   1.4315   1.9559   2.6316   2.8137   3.5559   4.0440
     7.8466   8.1106   8.4617   9.7398  10.8953

     occupation numbers 
     1.0000   1.0000   1.0000   1.0000   1.0000   1.0000   1.0000   1.0000
     1.0000   1.0000   1.0000   1.0000   1.0000   1.0000   1.0000   1.0000
    -0.0000  -0.0000  -0.0000  -0.0000  -0.0000

          k = 1.2479 0.6440 0.1354 ( 12184 PWs)   bands (ev):

   -49.8315 -26.2156 -25.8882 -25.7559 -11.1503  -8.9365  -8.7625  -0.0869
     0.9170   1.1605   1.3386   1.9026   2.5168   2.5845   3.5042   3.8057
     7.9405   8.8301   9.0553   9.4175  11.1807

     occupation numbers 
     1.0000   1.0000   1.0000   1.0000   1.0000   1.0000   1.0000   1.0000
     1.0000   1.0000   1.0000   1.0000   1.0000   1.0000   1.0000   1.0000
    -0.0000  -0.0000  -0.0000  -0.0000  -0.0000

          k =-0.4991-0.8586 0.1354 ( 12184 PWs)   bands (ev):

   -49.8361 -26.2487 -25.8124 -25.7685 -10.9531  -8.9855  -8.9148  -0.6119
     1.1719   1.2171   1.7264   1.8048   2.1850   2.9681   3.5788   3.7457
     6.9457   8.9638   9.4137   9.5086  11.4664

     occupation numbers 
     1.0000   1.0000   1.0000   1.0000   1.0000   1.0000   1.0000   1.0000
     1.0000   1.0000   1.0000   1.0000   1.0000   1.0000   1.0000   1.0000
     0.1198  -0.0000  -0.0000  -0.0000  -0.0000

          k =-0.2496-0.6440 0.1354 ( 12161 PWs)   bands (ev):

   -49.8418 -26.2299 -25.7829 -25.7375 -11.2236  -9.2464  -8.8847  -0.1439
     0.9538   1.2488   2.0079   2.2602   2.9763   3.3240   3.5297   3.9344
     6.0770   8.7695   9.2122   9.2467  11.0482

     occupation numbers 
     1.0000   1.0000   1.0000   1.0000   1.0000   1.0000   1.0000   1.0000
     1.0000   1.0000   1.0000   1.0000   1.0000   1.0000   1.0000   1.0000
     1.0005  -0.0000  -0.0000  -0.0000  -0.0000

          k = 0.0000-0.4293 0.1354 ( 12137 PWs)   bands (ev):

   -49.8451 -26.1687 -25.7909 -25.7079 -11.7553  -9.4033  -8.8614   0.7851
     1.0961   1.4342   2.5502   2.8946   3.0168   3.5549   3.9487   4.0153
     5.5933   8.4154   8.5285   8.7526  10.3217

     occupation numbers 
     1.0000   1.0000   1.0000   1.0000   1.0000   1.0000   1.0000   1.0000
     1.0000   1.0000   1.0000   1.0000   1.0000   1.0000   1.0000   1.0000
     1.0000  -0.0000  -0.0000  -0.0000  -0.0000

          k = 0.2496-0.2147 0.1354 ( 12130 PWs)   bands (ev):

   -49.8441 -26.1005 -25.7877 -25.7419 -12.1987  -9.3856  -8.8546   0.8900
     2.1339   2.2545   2.4434   2.9557   3.2065   3.4971   3.8579   4.0643
     5.9674   7.5133   7.6100   8.7372  10.1511

     occupation numbers 
     1.0000   1.0000   1.0000   1.0000   1.0000   1.0000   1.0000   1.0000
     1.0000   1.0000   1.0000   1.0000   1.0000   1.0000   1.0000   1.0000
     1.0001  -0.0007  -0.0001  -0.0000  -0.0000

          k = 0.7487 0.0000 0.2031 ( 12173 PWs)   bands (ev):

   -49.8343 -26.0608 -25.8944 -25.7615 -12.2940  -9.0040  -8.8425   1.0138
     1.3371   1.9967   2.1002   3.1635   3.4359   3.5723   3.7212   3.7619
     6.7743   6.7909   7.8443   9.5503   9.9717

     occupation numbers 
     1.0000   1.0000   1.0000   1.0000   1.0000   1.0000   1.0000   1.0000
     1.0000   1.0000   1.0000   1.0000   1.0000   1.0000   1.0000   1.0000
     0.5935   0.5423  -0.0000  -0.0000  -0.0000

          k = 0.9983 0.2147 0.2031 ( 12179 PWs)   bands (ev):

   -49.8317 -26.0854 -25.9242 -25.7549 -12.1002  -8.9625  -8.7622   0.7010
     1.3364   1.7659   1.9337   2.6719   2.9056   3.3951   3.8066   3.9293
     7.0279   7.1116   8.4384   9.6775  10.3059

     occupation numbers 
     1.0000   1.0000   1.0000   1.0000   1.0000   1.0000   1.0000   1.0000
     1.0000   1.0000   1.0000   1.0000   1.0000   1.0000   1.0000   1.0000
     0.0048  -0.0338  -0.0000  -0.0000  -0.0000

          k = 1.2479 0.4293 0.2031 ( 12170 PWs)   bands (ev):

   -49.8326 -26.1525 -25.8908 -25.7583 -11.6606  -8.9788  -8.7800   1.0036
     1.1755   1.3020   1.3874   2.0947   2.6544   2.8097   3.6919   3.9525
     7.8593   7.9898   8.1666   9.4099  10.8566

     occupation numbers 
     1.0000   1.0000   1.0000   1.0000   1.0000   1.0000   1.0000   1.0000
     1.0000   1.0000   1.0000   1.0000   1.0000   1.0000   1.0000   1.0000
    -0.0000  -0.0000  -0.0000  -0.0000  -0.0000

          k = 1.4974 0.6440 0.2031 ( 12175 PWs)   bands (ev):

   -49.8366 -26.2227 -25.8134 -25.7695 -11.1869  -9.0162  -8.9075  -0.1169
     1.2532   1.3190   1.6920   1.8517   2.2901   3.0158   3.5546   3.8690
     6.9501   8.8563   9.1151   9.1463  11.3557

     occupation numbers 
     1.0000   1.0000   1.0000   1.0000   1.0000   1.0000   1.0000   1.0000
     1.0000   1.0000   1.0000   1.0000   1.0000   1.0000   1.0000   1.0000
     0.1113  -0.0000  -0.0000  -0.0000  -0.0000

          k =-0.2496-0.8586 0.2031 ( 12167 PWs)   bands (ev):

   -49.8413 -26.2559 -25.7819 -25.7366 -10.9874  -9.1820  -8.9320  -0.6375
     0.8366   1.4220   1.7741   2.1684   2.8896   3.2293   3.4828   3.9622
     6.1138   8.7846   9.5605   9.5935  11.2095

     occupation numbers 
     1.0000   1.0000   1.0000   1.0000   1.0000   1.0000   1.0000   1.0000
     1.0000   1.0000   1.0000   1.0000   1.0000   1.0000   1.0000   1.0000
     1.0010  -0.0000  -0.0000  -0.0000  -0.0000

          k = 0.0000-0.6440 0.2031 ( 12156 PWs)   bands (ev):

   -49.8439 -26.2328 -25.7885 -25.7058 -11.2383  -9.3085  -8.9088  -0.1558
     0.7872   1.2381   2.4098   2.5506   2.6127   3.4630   3.9301   3.9825
     5.6470   8.8236   9.2140   9.3540  10.7859

     occupation numbers 
     1.0000   1.0000   1.0000   1.0000   1.0000   1.0000   1.0000   1.0000
     1.0000   1.0000   1.0000   1.0000   1.0000   1.0000   1.0000   1.0000
     1.0000  -0.0000  -0.0000  -0.0000  -0.0000

          k = 0.2496-0.4293 0.2031 ( 12155 PWs)   bands (ev):

   -49.8430 -26.1659 -25.7853 -25.7397 -11.7388  -9.3020  -8.8854   0.9608
     1.1493   1.5856   2.1801   2.5370   2.9649   3.4695   3.5762   4.0723
     6.0378   8.3838   8.3956   8.7655  10.7459

     occupation numbers 
     1.0000   1.0000   1.0000   1.0000   1.0000   1.0000   1.0000   1.0000
     1.0000   1.0000   1.0000   1.0000   1.0000   1.0000   1.0000   1.0000
     1.0002  -0.0000  -0.0000  -0.0000  -0.0000

          k = 0.4991-0.2147 0.2031 ( 12152 PWs)   bands (ev):

   -49.8390 -26.0942 -25.8182 -25.7742 -12.1578  -9.1701  -8.8698   1.2134
     1.8910   1.9465   2.3052   2.5081   2.9266   3.1651   3.8383   4.0801
     6.8188   7.2823   7.4458   9.0360  10.4877

     occupation numbers 
     1.0000   1.0000   1.0000   1.0000   1.0000   1.0000   1.0000   1.0000
     1.0000   1.0000   1.0000   1.0000   1.0000   1.0000   1.0000   1.0000
     0.4557  -0.0162  -0.0021  -0.0000  -0.0000

          k =-0.9983 0.0000-0.2708 ( 12202 PWs)   bands (ev):

   -49.8322 -26.0583 -25.9253 -25.7559 -12.2769  -8.9741  -8.7749   0.6672
     1.3165   1.8962   2.0413   3.3091   3.3931   3.4954   3.7763   3.9247
     6.5962   6.7417   8.4259   9.5351  10.0257

     occupation numbers 
     1.0000   1.0000   1.0000   1.0000   1.0000   1.0000   1.0000   1.0000
     1.0000   1.0000   1.0000   1.0000   1.0000   1.0000   1.0000   1.0000
     0.9808   0.6899  -0.0000  -0.0000  -0.0000

          k =-0.7487 0.2147-0.2708 ( 12174 PWs)   bands (ev):

   -49.8338 -26.0880 -25.8934 -25.7606 -12.1170  -9.0067  -8.8131   1.0015
     1.2732   1.8223   2.1595   2.6237   2.8934   3.2479   3.8055   4.0097
     7.0775   7.2134   7.8867   9.4667  10.3111

     occupation numbers 
     1.0000   1.0000   1.0000   1.0000   1.0000   1.0000   1.0000   1.0000
     1.0000   1.0000   1.0000   1.0000   1.0000   1.0000   1.0000   1.0000
    -0.0254  -0.0275  -0.0000  -0.0000  -0.0000

          k =-0.4991 0.4293-0.2708 ( 12174 PWs)   bands (ev):

   -49.8378 -26.1592 -25.8158 -25.7718 -11.6996  -9.1004  -8.8811   1.0800
     1.3121   1.6894   1.8831   1.9353   2.4045   3.0869   3.6912   4.0568
     6.8984   8.1288   8.2888   8.9916  11.0501

     occupation numbers 
     1.0000   1.0000   1.0000   1.0000   1.0000   1.0000   1.0000   1.0000
     1.0000   1.0000   1.0000   1.0000   1.0000   1.0000   1.0000   1.0000
     0.2264  -0.0000  -0.0000  -0.0000  -0.0000

          k =-0.2496 0.6440-0.2708 ( 12165 PWs)   bands (ev):

   -49.8418 -26.2299 -25.7829 -25.7375 -11.2232  -9.2099  -8.9258  -0.1450
     0.9461   1.4640   1.8445   2.2663   2.8860   3.2784   3.5034   4.0179
     6.0988   8.7751   9.2000   9.2496  11.1159

     occupation numbers 
     1.0000   1.0000   1.0000   1.0000   1.0000   1.0000   1.0000   1.0000
     1.0000   1.0000   1.0000   1.0000   1.0000   1.0000   1.0000   1.0000
     1.0008  -0.0000  -0.0000  -0.0000  -0.0000

          k =-1.9966-0.8586-0.2708 ( 12134 PWs)   bands (ev):

   -49.8434 -26.2590 -25.7875 -25.7049 -11.0014  -9.2604  -8.9396  -0.6480
     0.6851   1.3325   2.1235   2.4240   2.6378   3.4217   3.9004   3.9793
     5.6694   8.8537   9.5644   9.6916  10.9566

     occupation numbers 
     1.0000   1.0000   1.0000   1.0000   1.0000   1.0000   1.0000   1.0000
     1.0000   1.0000   1.0000   1.0000   1.0000   1.0000   1.0000   1.0000
     1.0000  -0.0000  -0.0000  -0.0000  -0.0000

          k = 0.4991 0.4293 0.1354 ( 12160 PWs)   bands (ev):

   -49.8378 -26.1592 -25.8158 -25.7718 -11.7000  -9.1199  -8.8610   1.0917
     1.3687   1.7494   1.8314   2.0685   2.1932   2.9893   3.7920   4.0325
     6.8386   8.1446   8.2756   9.1141  11.1220

     occupation numbers 
     1.0000   1.0000   1.0000   1.0000   1.0000   1.0000   1.0000   1.0000
     1.0000   1.0000   1.0000   1.0000   1.0000   1.0000   1.0000   1.0000
     0.3952  -0.0000  -0.0000  -0.0000  -0.0000

          k = 0.7487 0.6440 0.1354 ( 12164 PWs)   bands (ev):

   -49.8315 -26.2156 -25.8882 -25.7559 -11.1505  -8.8958  -8.8065  -0.0866
     0.9654   1.2335   1.6492   1.7294   2.2884   2.3626   3.5175   3.9480
     7.8843   8.8342   9.0500   9.5617  11.3594

     occupation numbers 
     1.0000   1.0000   1.0000   1.0000   1.0000   1.0000   1.0000   1.0000
     1.0000   1.0000   1.0000   1.0000   1.0000   1.0000   1.0000   1.0000
    -0.0000  -0.0000  -0.0000  -0.0000  -0.0000

          k = 0.9983 0.8586 0.1354 ( 12170 PWs)   bands (ev):

   -49.8288 -26.2383 -25.9179 -25.7493 -10.9033  -8.8932  -8.6858  -0.5755
     0.6144   0.9291   1.7755   1.8665   1.9422   2.5906   3.2276   3.9078
     8.4729   9.1785   9.3752   9.7429  11.3837

     occupation numbers 
     1.0000   1.0000   1.0000   1.0000   1.0000   1.0000   1.0000   1.0000
     1.0000   1.0000   1.0000   1.0000   1.0000   1.0000   1.0000   1.0000
    -0.0000  -0.0000  -0.0000  -0.0000  -0.0000

          k = 0.0000 0.0000 0.1354 ( 12125 PWs)   bands (ev):

   -49.8468 -26.0754 -25.7943 -25.7109 -12.3938  -9.4906  -8.8529   0.7009
     2.4953   2.7026   2.8443   3.0528   3.4403   3.8211   4.1521   4.2478
     5.5272   7.2099   7.3781   8.7028   9.4746

     occupation numbers 
     1.0000   1.0000   1.0000   1.0000   1.0000   1.0000   1.0000   1.0000
     1.0000   1.0000   1.0000   1.0000   1.0000   1.0000   1.0000   1.0000
     1.0000  -0.0281  -0.0056  -0.0000  -0.0000

          k = 0.7487 0.4293 0.2031 ( 12170 PWs)   bands (ev):

   -49.8326 -26.1525 -25.8908 -25.7582 -11.6607  -8.9474  -8.8147   1.0500
     1.2043   1.4070   1.4994   1.9878   2.4727   2.6466   3.7003   4.0546
     7.7730   8.0321   8.1634   9.5578  11.0147

     occupation numbers 
     1.0000   1.0000   1.0000   1.0000   1.0000   1.0000   1.0000   1.0000
     1.0000   1.0000   1.0000   1.0000   1.0000   1.0000   1.0000   1.0000
    -0.0000  -0.0000  -0.0000  -0.0000  -0.0000

          k = 0.9983 0.6440 0.2031 ( 12179 PWs)   bands (ev):

   -49.8293 -26.2127 -25.9189 -25.7503 -11.1351  -8.9053  -8.6992  -0.0739
     0.7782   0.8810   1.6410   1.8585   2.2182   2.6480   3.2927   3.9745
     8.4674   8.7690   9.0156   9.7245  11.2678

     occupation numbers 
     1.0000   1.0000   1.0000   1.0000   1.0000   1.0000   1.0000   1.0000
     1.0000   1.0000   1.0000   1.0000   1.0000   1.0000   1.0000   1.0000
    -0.0000  -0.0000  -0.0000  -0.0000  -0.0000

          k = 1.2479 0.8586 0.2031 ( 12154 PWs)   bands (ev):

   -49.8310 -26.2414 -25.8872 -25.7550 -10.9180  -8.8992  -8.7767  -0.5862
     0.7893   1.2159   1.5404   1.6939   2.3692   2.4167   3.4294   3.8170
     7.9247   9.1914   9.4189   9.5214  11.3772

     occupation numbers 
     1.0000   1.0000   1.0000   1.0000   1.0000   1.0000   1.0000   1.0000
     1.0000   1.0000   1.0000   1.0000   1.0000   1.0000   1.0000   1.0000
    -0.0000  -0.0000  -0.0000  -0.0000  -0.0000

          k =-0.4991-0.6440 0.2031 ( 12177 PWs)   bands (ev):

   -49.8366 -26.2227 -25.8134 -25.7694 -11.1872  -9.0387  -8.8846  -0.1162
     1.2880   1.3890   1.6107   1.9287   2.1627   2.9779   3.6263   3.8527
     6.9151   8.8923   9.1084   9.1821  11.4030

     occupation numbers 
     1.0000   1.0000   1.0000   1.0000   1.0000   1.0000   1.0000   1.0000
     1.0000   1.0000   1.0000   1.0000   1.0000   1.0000   1.0000   1.0000
     0.1856  -0.0000  -0.0000  -0.0000  -0.0000

          k = 0.0000-0.2147 0.2031 ( 12117 PWs)   bands (ev):

   -49.8463 -26.1030 -25.7933 -25.7100 -12.2153  -9.4392  -8.8873   0.8192
     2.0987   2.4179   2.5372   3.1563   3.2728   3.5597   4.0571   4.0919
     5.5543   7.6341   7.6805   8.7690   9.9024

     occupation numbers 
     1.0000   1.0000   1.0000   1.0000   1.0000   1.0000   1.0000   1.0000
     1.0000   1.0000   1.0000   1.0000   1.0000   1.0000   1.0000   1.0000
     1.0000  -0.0001  -0.0000  -0.0000  -0.0000

          k = 0.2496 0.0000 0.2031 ( 12145 PWs)   bands (ev):

   -49.8446 -26.0729 -25.7887 -25.7428 -12.3764  -9.3858  -8.8829   0.9305
     2.2601   2.5862   2.8819   3.0456   3.1724   3.6923   3.9571   4.0454
     5.9810   7.0996   7.3347   8.7072   9.8571

     occupation numbers 
     1.0000   1.0000   1.0000   1.0000   1.0000   1.0000   1.0000   1.0000
     1.0000   1.0000   1.0000   1.0000   1.0000   1.0000   1.0000   1.0000
     1.0001  -0.0318  -0.0094  -0.0000  -0.0000

          k = 0.9983 0.4293 0.2708 ( 12166 PWs)   bands (ev):

   -49.8305 -26.1497 -25.9216 -25.7526 -11.6444  -8.9341  -8.7310   0.7575
     1.2109   1.2251   1.5083   1.8670   2.6172   2.8737   3.5291   4.0523
     7.8554   8.1122   8.4551   9.7168  10.9145

     occupation numbers 
     1.0000   1.0000   1.0000   1.0000   1.0000   1.0000   1.0000   1.0000
     1.0000   1.0000   1.0000   1.0000   1.0000   1.0000   1.0000   1.0000
    -0.0000  -0.0000  -0.0000  -0.0000  -0.0000

          k = 1.2479 0.6440 0.2708 ( 12163 PWs)   bands (ev):

   -49.8315 -26.2156 -25.8882 -25.7559 -11.1504  -8.9194  -8.7812  -0.0868
     0.9452   1.1767   1.4865   1.8100   2.4282   2.4783   3.5069   3.8796
     7.9134   8.8194   9.0520   9.5013  11.2867

     occupation numbers 
     1.0000   1.0000   1.0000   1.0000   1.0000   1.0000   1.0000   1.0000
     1.0000   1.0000   1.0000   1.0000   1.0000   1.0000   1.0000   1.0000
    -0.0000  -0.0000  -0.0000  -0.0000  -0.0000

          k = 1.4974 0.8586 0.2708 ( 12186 PWs)   bands (ev):

   -49.8361 -26.2487 -25.8124 -25.7685 -10.9531  -8.9855  -8.9148  -0.6119
     1.1869   1.2017   1.7124   1.8134   2.1998   2.9559   3.5705   3.7576
     6.9453   8.9538   9.4343   9.4994  11.4784

     occupation numbers 
     1.0000   1.0000   1.0000   1.0000   1.0000   1.0000   1.0000   1.0000
     1.0000   1.0000   1.0000   1.0000   1.0000   1.0000   1.0000   1.0000
     0.1206  -0.0000  -0.0000  -0.0000  -0.0000

          k = 0.0000-0.4293 0.2708 ( 12158 PWs)   bands (ev):

   -49.8451 -26.1687 -25.7909 -25.7079 -11.7546  -9.3452  -8.9308   0.8946
     1.1327   1.5700   2.5978   2.6265   2.8907   3.3891   3.9319   4.1524
     5.6051   8.4064   8.5273   8.8414  10.5386

     occupation numbers 
     1.0000   1.0000   1.0000   1.0000   1.0000   1.0000   1.0000   1.0000
     1.0000   1.0000   1.0000   1.0000   1.0000   1.0000   1.0000   1.0000
     1.0000  -0.0000  -0.0000  -0.0000  -0.0000

          k = 0.2496-0.2147 0.2708 ( 12146 PWs)   bands (ev):

   -49.8441 -26.1005 -25.7877 -25.7419 -12.1981  -9.3312  -8.9187   1.0510
     2.1092   2.2738   2.4596   2.8382   3.1146   3.4559   3.7822   4.1127
     6.0222   7.5050   7.6405   8.7277  10.2730

     occupation numbers 
     1.0000   1.0000   1.0000   1.0000   1.0000   1.0000   1.0000   1.0000
     1.0000   1.0000   1.0000   1.0000   1.0000   1.0000   1.0000   1.0000
     1.0002  -0.0008  -0.0001  -0.0000  -0.0000

          k = 0.4991 0.0000 0.2708 ( 12154 PWs)   bands (ev):

   -49.8395 -26.0669 -25.8192 -25.7752 -12.3349  -9.1816  -8.8831   1.1713
     1.7893   2.0268   2.5631   2.9793   3.4451   3.5357   3.8438   3.8622
     6.8607   6.8831   7.1024   8.9262  10.0260

     occupation numbers 
     1.0000   1.0000   1.0000   1.0000   1.0000   1.0000   1.0000   1.0000
     1.0000   1.0000   1.0000   1.0000   1.0000   1.0000   1.0000   1.0000
     0.3295   0.2666  -0.0324  -0.0000  -0.0000

          k =-1.9966-0.6440-0.2031 ( 12169 PWs)   bands (ev):

   -49.8439 -26.2328 -25.7885 -25.7058 -11.2378  -9.2581  -8.9662  -0.1573
     0.8488   1.3883   2.2042   2.5497   2.6429   3.2671   3.8778   4.1440
     5.6532   8.8756   9.2052   9.3533  10.9046

     occupation numbers 
     1.0000   1.0000   1.0000   1.0000   1.0000   1.0000   1.0000   1.0000
     1.0000   1.0000   1.0000   1.0000   1.0000   1.0000   1.0000   1.0000
     1.0000  -0.0000  -0.0000  -0.0000  -0.0000

          k =-1.7470-0.4293-0.2031 ( 12164 PWs)   bands (ev):

   -49.8430 -26.1659 -25.7854 -25.7397 -11.7382  -9.2374  -8.9585   1.0034
     1.2496   1.7297   2.0021   2.5298   2.8847   3.3881   3.4216   4.2187
     6.0799   8.3708   8.4027   8.7822  10.8650

     occupation numbers 
     1.0000   1.0000   1.0000   1.0000   1.0000   1.0000   1.0000   1.0000
     1.0000   1.0000   1.0000   1.0000   1.0000   1.0000   1.0000   1.0000
     1.0005  -0.0000  -0.0000  -0.0000  -0.0000

          k =-1.4974-0.2147-0.2031 ( 12140 PWs)   bands (ev):

   -49.8390 -26.0942 -25.8182 -25.7742 -12.1573  -9.1473  -8.8934   1.2029
     1.6823   1.9721   2.3765   2.5292   3.0305   3.2531   3.7820   4.1043
     6.9070   7.2487   7.4529   8.8609  10.3877

     occupation numbers 
     1.0000   1.0000   1.0000   1.0000   1.0000   1.0000   1.0000   1.0000
     1.0000   1.0000   1.0000   1.0000   1.0000   1.0000   1.0000   1.0000
     0.2051  -0.0216  -0.0019  -0.0000  -0.0000

          k =-1.2479 0.0000-0.2031 ( 12202 PWs)   bands (ev):

   -49.8343 -26.0608 -25.8944 -25.7615 -12.2938  -9.0394  -8.8025   0.9376
     1.1577   2.0143   2.2769   3.1223   3.5529   3.5586   3.7841   3.8503
     6.7372   6.7636   7.8937   9.3466   9.8355

     occupation numbers 
     1.0000   1.0000   1.0000   1.0000   1.0000   1.0000   1.0000   1.0000
     1.0000   1.0000   1.0000   1.0000   1.0000   1.0000   1.0000   1.0000
     0.7025   0.6258  -0.0000  -0.0000  -0.0000

          k = 0.0000 0.8586-0.1354 ( 12137 PWs)   bands (ev):

   -49.8434 -26.2590 -25.7875 -25.7049 -11.0014  -9.2603  -8.9396  -0.6480
     0.7386   1.1843   2.3407   2.4241   2.6377   3.1879   3.9005   4.0964
     5.6650   8.8537   9.5741   9.6915  10.9147

     occupation numbers 
     1.0000   1.0000   1.0000   1.0000   1.0000   1.0000   1.0000   1.0000
     1.0000   1.0000   1.0000   1.0000   1.0000   1.0000   1.0000   1.0000
     1.0000  -0.0000  -0.0000  -0.0000  -0.0000

          k =-1.7470-0.6440-0.1354 ( 12171 PWs)   bands (ev):

   -49.8418 -26.2299 -25.7829 -25.7375 -11.2228  -9.1575  -8.9826  -0.1462
     1.0325   1.4562   1.8673   2.2164   2.9316   3.1804   3.3472   4.1483
     6.1172   8.7672   9.2182   9.2488  11.1708

     occupation numbers 
     1.0000   1.0000   1.0000   1.0000   1.0000   1.0000   1.0000   1.0000
     1.0000   1.0000   1.0000   1.0000   1.0000   1.0000   1.0000   1.0000
     1.0010  -0.0000  -0.0000  -0.0000  -0.0000

          k =-1.4974-0.4293-0.1354 ( 12163 PWs)   bands (ev):

   -49.8378 -26.1592 -25.8158 -25.7718 -11.6993  -9.0763  -8.9058   1.0716
     1.2786   1.6227   1.7963   1.9820   2.6126   3.1278   3.6004   4.0692
     6.9629   8.1371   8.2864   8.8649  10.9593

     occupation numbers 
     1.0000   1.0000   1.0000   1.0000   1.0000   1.0000   1.0000   1.0000
     1.0000   1.0000   1.0000   1.0000   1.0000   1.0000   1.0000   1.0000
     0.0883  -0.0000  -0.0000  -0.0000  -0.0000

          k =-1.2479-0.2147-0.1354 ( 12175 PWs)   bands (ev):

   -49.8338 -26.0880 -25.8934 -25.7606 -12.1168  -9.0338  -8.7820   0.9456
     1.1230   1.7909   2.2956   2.6229   3.0126   3.3648   3.8051   3.9748
     7.0643   7.2087   7.9306   9.2914  10.1643

     occupation numbers 
     1.0000   1.0000   1.0000   1.0000   1.0000   1.0000   1.0000   1.0000
     1.0000   1.0000   1.0000   1.0000   1.0000   1.0000   1.0000   1.0000
    -0.0198  -0.0283  -0.0000  -0.0000  -0.0000

          k =-0.9983 0.0000-0.1354 ( 12175 PWs)   bands (ev):

   -49.8322 -26.0583 -25.9253 -25.7559 -12.2769  -8.9741  -8.7750   0.6851
     1.2638   1.9111   2.0721   3.3088   3.3937   3.5110   3.7461   3.9243
     6.6025   6.7352   8.4294   9.6028   9.9494

     occupation numbers 
     1.0000   1.0000   1.0000   1.0000   1.0000   1.0000   1.0000   1.0000
     1.0000   1.0000   1.0000   1.0000   1.0000   1.0000   1.0000   1.0000
     0.9738   0.7081  -0.0000  -0.0000  -0.0000

          k = 0.0000 0.6440-0.0677 ( 12143 PWs)   bands (ev):

   -49.8439 -26.2328 -25.7885 -25.7058 -11.2386  -9.3367  -8.8757  -0.1548
     0.8362   1.0121   2.5524   2.5912   2.8060   3.2262   3.9662   4.0263
     5.6380   8.7869   9.2348   9.3542  10.6636

     occupation numbers 
     1.0000   1.0000   1.0000   1.0000   1.0000   1.0000   1.0000   1.0000
     1.0000   1.0000   1.0000   1.0000   1.0000   1.0000   1.0000   1.0000
     1.0000  -0.0000  -0.0000  -0.0000  -0.0000

          k = 0.2496 0.8586-0.0677 ( 12173 PWs)   bands (ev):

   -49.8413 -26.2559 -25.7819 -25.7366 -10.9874  -9.1820  -8.9321  -0.6375
     0.9067   1.2263   1.9418   2.1484   2.9914   3.1558   3.3607   4.0361
     6.1101   8.7833   9.5743   9.5895  11.2000

     occupation numbers 
     1.0000   1.0000   1.0000   1.0000   1.0000   1.0000   1.0000   1.0000
     1.0000   1.0000   1.0000   1.0000   1.0000   1.0000   1.0000   1.0000
     1.0009  -0.0000  -0.0000  -0.0000  -0.0000

          k =-1.4974-0.6440-0.0677 ( 12172 PWs)   bands (ev):

   -49.8366 -26.2227 -25.8134 -25.7695 -11.1867  -8.9911  -8.9330  -0.1174
     1.2274   1.2914   1.7525   1.7845   2.3750   3.0384   3.5139   3.8686
     6.9762   8.8607   9.0458   9.1646  11.3069

     occupation numbers 
     1.0000   1.0000   1.0000   1.0000   1.0000   1.0000   1.0000   1.0000
     1.0000   1.0000   1.0000   1.0000   1.0000   1.0000   1.0000   1.0000
     0.0666  -0.0000  -0.0000  -0.0000  -0.0000

          k =-1.2479-0.4293-0.0677 ( 12169 PWs)   bands (ev):

   -49.8326 -26.1525 -25.8908 -25.7583 -11.6604  -8.9955  -8.7609   0.9811
     1.1535   1.1898   1.3760   2.1613   2.7704   2.9164   3.7142   3.8443
     7.9278   7.9639   8.1697   9.2987  10.7383

     occupation numbers 
     1.0000   1.0000   1.0000   1.0000   1.0000   1.0000   1.0000   1.0000
     1.0000   1.0000   1.0000   1.0000   1.0000   1.0000   1.0000   1.0000
    -0.0000  -0.0000  -0.0000  -0.0000  -0.0000

          k =-0.9983-0.2147-0.0677 ( 12179 PWs)   bands (ev):

   -49.8317 -26.0854 -25.9242 -25.7549 -12.1002  -8.9625  -8.7622   0.7269
     1.2681   1.7124   2.0636   2.6685   2.8978   3.3548   3.8240   3.9281
     7.0243   7.1089   8.4441   9.7496  10.2234

     occupation numbers 
     1.0000   1.0000   1.0000   1.0000   1.0000   1.0000   1.0000   1.0000
     1.0000   1.0000   1.0000   1.0000   1.0000   1.0000   1.0000   1.0000
     0.0080  -0.0335  -0.0000  -0.0000  -0.0000

          k =-0.7487 0.0000-0.0677 ( 12188 PWs)   bands (ev):

   -49.8343 -26.0608 -25.8944 -25.7615 -12.2941  -8.9600  -8.8897   1.0846
     1.5424   1.8264   2.0435   3.1979   3.3499   3.6054   3.6715   3.6759
     6.7894   6.8208   7.8159   9.7166  10.0413

     occupation numbers 
     1.0000   1.0000   1.0000   1.0000   1.0000   1.0000   1.0000   1.0000
     1.0000   1.0000   1.0000   1.0000   1.0000   1.0000   1.0000   1.0000
     0.5471   0.4497  -0.0000  -0.0000  -0.0000

          k = 0.0000 0.4293 0.0000 ( 12139 PWs)   bands (ev):

   -49.8451 -26.1687 -25.7909 -25.7079 -11.7556  -9.4234  -8.8366   0.7400
     1.0910   1.3810   2.5321   2.8958   3.3710   3.4025   3.8799   4.0491
     5.5881   8.4251   8.5295   8.7153  10.2261

     occupation numbers 
     1.0000   1.0000   1.0000   1.0000   1.0000   1.0000   1.0000   1.0000
     1.0000   1.0000   1.0000   1.0000   1.0000   1.0000   1.0000   1.0000
     1.0000  -0.0000  -0.0000  -0.0000  -0.0000

          k = 0.2496 0.6440 0.0000 ( 12153 PWs)   bands (ev):

   -49.8418 -26.2299 -25.7829 -25.7375 -11.2237  -9.2593  -8.8699  -0.1434
     1.0481   1.0725   2.0892   2.2356   3.1531   3.2084   3.5056   3.9350
     6.0669   8.7631   9.2354   9.2356  11.0159

     occupation numbers 
     1.0000   1.0000   1.0000   1.0000   1.0000   1.0000   1.0000   1.0000
     1.0000   1.0000   1.0000   1.0000   1.0000   1.0000   1.0000   1.0000
     1.0004  -0.0000  -0.0000  -0.0000  -0.0000

          k = 0.4991 0.8586 0.0000 ( 12181 PWs)   bands (ev):

   -49.8361 -26.2487 -25.8124 -25.7685 -10.9531  -8.9855  -8.9149  -0.6119
     1.1640   1.2254   1.7522   1.7842   2.1711   2.9797   3.5892   3.7320
     6.9461   8.9744   9.3952   9.5152  11.4546

     occupation numbers 
     1.0000   1.0000   1.0000   1.0000   1.0000   1.0000   1.0000   1.0000
     1.0000   1.0000   1.0000   1.0000   1.0000   1.0000   1.0000   1.0000
     0.1191  -0.0000  -0.0000  -0.0000  -0.0000

          k =-1.2479-0.6440 0.0000 ( 12181 PWs)   bands (ev):

   -49.8315 -26.2156 -25.8882 -25.7559 -11.1503  -8.9425  -8.7557  -0.0869
     0.9027   1.1793   1.2640   1.9422   2.5535   2.6164   3.5078   3.7719
     7.9509   8.8458   9.0557   9.3743  11.1279

     occupation numbers 
     1.0000   1.0000   1.0000   1.0000   1.0000   1.0000   1.0000   1.0000
     1.0000   1.0000   1.0000   1.0000   1.0000   1.0000   1.0000   1.0000
    -0.0000  -0.0000  -0.0000  -0.0000  -0.0000

          k =-0.9983-0.4293 0.0000 ( 12173 PWs)   bands (ev):

   -49.8305 -26.1497 -25.9216 -25.7526 -11.6444  -8.9341  -8.7310   0.7845
     1.2117   1.2292   1.3695   2.0305   2.6760   2.7226   3.5815   4.0351
     7.8381   8.1090   8.4680   9.7639  10.8747

     occupation numbers 
     1.0000   1.0000   1.0000   1.0000   1.0000   1.0000   1.0000   1.0000
     1.0000   1.0000   1.0000   1.0000   1.0000   1.0000   1.0000   1.0000
    -0.0000  -0.0000  -0.0000  -0.0000  -0.0000

          k =-0.7487-0.2147 0.0000 ( 12171 PWs)   bands (ev):

   -49.8338 -26.0880 -25.8934 -25.7606 -12.1172  -8.9287  -8.8967   1.1241
     1.6372   1.6842   2.0172   2.5773   2.7096   3.0929   3.8469   4.0101
     7.0928   7.2222   7.8470   9.7266  10.4934

     occupation numbers 
     1.0000   1.0000   1.0000   1.0000   1.0000   1.0000   1.0000   1.0000
     1.0000   1.0000   1.0000   1.0000   1.0000   1.0000   1.0000   1.0000
    -0.0302  -0.0261  -0.0000  -0.0000  -0.0000

          k =-0.4991 0.0000 0.0000 ( 12159 PWs)   bands (ev):

   -49.8395 -26.0669 -25.8192 -25.7751 -12.3355  -9.2086  -8.8552   1.2027
     1.8954   2.1549   2.4079   3.0875   3.2616   3.4209   3.7483   3.9192
     6.7682   6.9592   7.0772   9.1902  10.1316

     occupation numbers 
     1.0000   1.0000   1.0000   1.0000   1.0000   1.0000   1.0000   1.0000
     1.0000   1.0000   1.0000   1.0000   1.0000   1.0000   1.0000   1.0000
     0.6120   0.0946  -0.0253  -0.0000  -0.0000

          k = 0.9983 0.8586 0.2708 ( 12188 PWs)   bands (ev):

   -49.8288 -26.2383 -25.9179 -25.7493 -10.9033  -8.8932  -8.6859  -0.5755
     0.6304   0.8986   1.8164   1.8912   1.8983   2.6014   3.1858   3.9333
     8.4747   9.1802   9.3857   9.7138  11.3650

     occupation numbers 
     1.0000   1.0000   1.0000   1.0000   1.0000   1.0000   1.0000   1.0000
     1.0000   1.0000   1.0000   1.0000   1.0000   1.0000   1.0000   1.0000
    -0.0000  -0.0000  -0.0000  -0.0000  -0.0000

          k = 0.0000 0.0000 0.2708 ( 12121 PWs)   bands (ev):

   -49.8468 -26.0754 -25.7943 -25.7109 -12.3931  -9.4249  -8.9335   0.9231
     2.5602   2.5793   2.8064   3.1708   3.4009   3.5722   4.0282   4.1646
     5.5518   7.2103   7.4498   8.8272   9.6812

     occupation numbers 
     1.0000   1.0000   1.0000   1.0000   1.0000   1.0000   1.0000   1.0000
     1.0000   1.0000   1.0000   1.0000   1.0000   1.0000   1.0000   1.0000
     1.0000  -0.0281  -0.0020  -0.0000  -0.0000

          k = 0.0000-0.2147 0.3385 ( 12164 PWs)   bands (ev):

   -49.8463 -26.1030 -25.7934 -25.7100 -12.2145  -9.3566  -8.9850   1.0777
     2.1540   2.4146   2.6085   2.7791   3.2455   3.4510   3.9922   4.0833
     5.5711   7.6337   7.7228   8.8934  10.1439

     occupation numbers 
     1.0000   1.0000   1.0000   1.0000   1.0000   1.0000   1.0000   1.0000
     1.0000   1.0000   1.0000   1.0000   1.0000   1.0000   1.0000   1.0000
     1.0000  -0.0001  -0.0000  -0.0000  -0.0000

          k = 0.2496 0.0000 0.3385 ( 12138 PWs)   bands (ev):

   -49.8446 -26.0729 -25.7888 -25.7428 -12.3757  -9.3157  -8.9641   1.1530
     2.1174   2.5777   2.8377   2.9602   3.3130   3.6456   3.9051   3.9217
     6.0432   7.0822   7.3894   8.7185   9.9369

     occupation numbers 
     1.0000   1.0000   1.0000   1.0000   1.0000   1.0000   1.0000   1.0000
     1.0000   1.0000   1.0000   1.0000   1.0000   1.0000   1.0000   1.0000
     1.0003  -0.0271  -0.0048  -0.0000  -0.0000

          k =-1.9966-0.4293-0.1354 ( 12189 PWs)   bands (ev):

   -49.8451 -26.1687 -25.7910 -25.7079 -11.7539  -9.2559  -9.0313   0.9739
     1.2716   1.6846   2.3344   2.6530   2.8839   3.1236   3.8450   4.3078
     5.6159   8.4141   8.5269   8.9292  10.7370

     occupation numbers 
     1.0000   1.0000   1.0000   1.0000   1.0000   1.0000   1.0000   1.0000
     1.0000   1.0000   1.0000   1.0000   1.0000   1.0000   1.0000   1.0000
     1.0000  -0.0000  -0.0000  -0.0000  -0.0000

          k =-1.7470-0.2147-0.1354 ( 12147 PWs)   bands (ev):

   -49.8441 -26.1005 -25.7878 -25.7419 -12.1974  -9.2509  -9.0087   1.2935
     1.9292   2.3454   2.4399   2.7759   3.0868   3.3914   3.6927   4.1362
     6.0733   7.4999   7.6611   8.7573  10.3528

     occupation numbers 
     1.0000   1.0000   1.0000   1.0000   1.0000   1.0000   1.0000   1.0000
     1.0000   1.0000   1.0000   1.0000   1.0000   1.0000   1.0000   1.0000
     1.0005  -0.0009  -0.0000  -0.0000  -0.0000

          k =-1.4974 0.0000-0.1354 ( 12156 PWs)   bands (ev):

   -49.8395 -26.0669 -25.8192 -25.7752 -12.3345  -9.1589  -8.9064   1.1847
     1.5926   2.0950   2.6111   2.9365   3.5726   3.6254   3.7904   3.8894
     6.8407   6.9416   7.1088   8.7579   9.9293

     occupation numbers 
     1.0000   1.0000   1.0000   1.0000   1.0000   1.0000   1.0000   1.0000
     1.0000   1.0000   1.0000   1.0000   1.0000   1.0000   1.0000   1.0000
     0.3888   0.1279  -0.0334  -0.0000  -0.0000

          k = 0.0000 1.0733-0.0677 ( 12170 PWs)   bands (ev):

   -49.8439 -26.2328 -25.7885 -25.7058 -11.2374  -9.2049  -9.0243  -0.1584
     1.0071   1.2581   2.3785   2.5496   2.6651   2.9019   3.8398   4.2925
     5.6533   8.9126   9.2113   9.3525  10.9435

     occupation numbers 
     1.0000   1.0000   1.0000   1.0000   1.0000   1.0000   1.0000   1.0000
     1.0000   1.0000   1.0000   1.0000   1.0000   1.0000   1.0000   1.0000
     1.0000  -0.0000  -0.0000  -0.0000  -0.0000

          k =-1.7470-0.4293-0.0677 ( 12175 PWs)   bands (ev):

   -49.8430 -26.1659 -25.7854 -25.7397 -11.7377  -9.1517  -9.0500   1.0195
     1.4404   1.6972   1.9098   2.4745   2.9748   3.2308   3.3310   4.3004
     6.1098   8.3491   8.4042   8.8221  10.9350

     occupation numbers 
     1.0000   1.0000   1.0000   1.0000   1.0000   1.0000   1.0000   1.0000
     1.0000   1.0000   1.0000   1.0000   1.0000   1.0000   1.0000   1.0000
     1.0009  -0.0000  -0.0000  -0.0000  -0.0000

          k =-1.4974-0.2147-0.0677 ( 12154 PWs)   bands (ev):

   -49.8390 -26.0942 -25.8182 -25.7742 -12.1570  -9.1282  -8.9130   1.2234
     1.5325   1.9769   2.4382   2.5313   3.1143   3.3132   3.7163   4.1269
     6.9750   7.2374   7.4497   8.7410  10.3055

     occupation numbers 
     1.0000   1.0000   1.0000   1.0000   1.0000   1.0000   1.0000   1.0000
     1.0000   1.0000   1.0000   1.0000   1.0000   1.0000   1.0000   1.0000
     0.0684  -0.0235  -0.0020  -0.0000  -0.0000

          k =-1.2479 0.0000-0.0677 ( 12165 PWs)   bands (ev):

   -49.8343 -26.0608 -25.8944 -25.7616 -12.2937  -9.0584  -8.7802   0.9028
     1.0440   2.0147   2.3853   3.0969   3.5540   3.6428   3.8195   3.9048
     6.7042   6.7503   7.9376   9.2132   9.7215

     occupation numbers 
     1.0000   1.0000   1.0000   1.0000   1.0000   1.0000   1.0000   1.0000
     1.0000   1.0000   1.0000   1.0000   1.0000   1.0000   1.0000   1.0000
     0.7899   0.6649  -0.0000  -0.0000  -0.0000

          k = 0.0000 0.8586 0.0000 ( 12151 PWs)   bands (ev):

   -49.8434 -26.2590 -25.7875 -25.7049 -11.0014  -9.2603  -8.9397  -0.6480
     0.8371   1.0157   2.4242   2.6376   2.7326   2.7895   3.9005   4.1791
     5.6606   8.8537   9.5842   9.6914  10.8741

     occupation numbers 
     1.0000   1.0000   1.0000   1.0000   1.0000   1.0000   1.0000   1.0000
     1.0000   1.0000   1.0000   1.0000   1.0000   1.0000   1.0000   1.0000
     1.0000  -0.0000  -0.0000  -0.0000  -0.0000

          k = 0.2496 1.0733 0.0000 ( 12164 PWs)   bands (ev):

   -49.8418 -26.2299 -25.7829 -25.7375 -11.2226  -9.1206  -9.0213  -0.1467
     1.1422   1.3116   2.0067   2.1388   3.0208   3.1067   3.2401   4.2026
     6.1238   8.7608   9.2348   9.2460  11.1901

     occupation numbers 
     1.0000   1.0000   1.0000   1.0000   1.0000   1.0000   1.0000   1.0000
     1.0000   1.0000   1.0000   1.0000   1.0000   1.0000   1.0000   1.0000
     1.0011  -0.0000  -0.0000  -0.0000  -0.0000

          k =-1.4974-0.4293 0.0000 ( 12157 PWs)   bands (ev):

   -49.8378 -26.1592 -25.8158 -25.7718 -11.6991  -9.0640  -8.9184   1.0695
     1.2699   1.5895   1.7581   2.0147   2.7081   3.1234   3.5639   4.0731
     6.9909   8.1529   8.2758   8.8111  10.9166

     occupation numbers 
     1.0000   1.0000   1.0000   1.0000   1.0000   1.0000   1.0000   1.0000
     1.0000   1.0000   1.0000   1.0000   1.0000   1.0000   1.0000   1.0000
     0.0456  -0.0000  -0.0000  -0.0000  -0.0000

          k =-1.2479-0.2147 0.0000 ( 12169 PWs)   bands (ev):

   -49.8338 -26.0880 -25.8934 -25.7606 -12.1168  -9.0433  -8.7709   0.9329
     1.0594   1.7798   2.3458   2.6214   3.0605   3.4107   3.8244   3.9413
     7.0581   7.2072   7.9541   9.2188  10.0997

     occupation numbers 
     1.0000   1.0000   1.0000   1.0000   1.0000   1.0000   1.0000   1.0000
     1.0000   1.0000   1.0000   1.0000   1.0000   1.0000   1.0000   1.0000
    -0.0165  -0.0285  -0.0000  -0.0000  -0.0000

          k =-0.9983 0.0000 0.0000 ( 12191 PWs)   bands (ev):

   -49.8322 -26.0583 -25.9253 -25.7559 -12.2769  -8.9741  -8.7750   0.7053
     1.2132   1.9200   2.1047   3.3085   3.3942   3.5322   3.7099   3.9239
     6.6096   6.7280   8.4327   9.7693   9.7746

     occupation numbers 
     1.0000   1.0000   1.0000   1.0000   1.0000   1.0000   1.0000   1.0000
     1.0000   1.0000   1.0000   1.0000   1.0000   1.0000   1.0000   1.0000
     0.9654   0.7279  -0.0000  -0.0000  -0.0000

          k = 0.0000 0.0000 0.4061 ( 12117 PWs)   bands (ev):

   -49.8468 -26.0754 -25.7944 -25.7109 -12.3923  -9.3259  -9.0474   1.2410
     2.3154   2.6385   2.7834   3.3058   3.3449   3.3921   3.8744   4.0873
     5.5604   7.2106   7.5200   8.9513   9.8613

     occupation numbers 
     1.0000   1.0000   1.0000   1.0000   1.0000   1.0000   1.0000   1.0000
     1.0000   1.0000   1.0000   1.0000   1.0000   1.0000   1.0000   1.0000
     1.0000  -0.0280  -0.0006  -0.0000  -0.0000

          k =-1.9966-0.2147-0.0677 ( 12164 PWs)   bands (ev):

   -49.8463 -26.1030 -25.7934 -25.7100 -12.2139  -9.2490  -9.1032   1.3540
     2.1546   2.3960   2.4862   2.6692   3.2165   3.3845   3.9225   4.0847
     5.5791   7.6335   7.7581   8.9812  10.3010

     occupation numbers 
     1.0000   1.0000   1.0000   1.0000   1.0000   1.0000   1.0000   1.0000
     1.0000   1.0000   1.0000   1.0000   1.0000   1.0000   1.0000   1.0000
     1.0000  -0.0001  -0.0000  -0.0000  -0.0000

          k =-1.7470 0.0000-0.0677 ( 12142 PWs)   bands (ev):

   -49.8446 -26.0729 -25.7888 -25.7428 -12.3752  -9.2341  -9.0536   1.4480
     1.8146   2.6738   2.8161   2.8638   3.4423   3.6474   3.7951   3.8349
     6.0787   7.0737   7.4239   8.7558   9.9615

     occupation numbers 
     1.0000   1.0000   1.0000   1.0000   1.0000   1.0000   1.0000   1.0000
     1.0000   1.0000   1.0000   1.0000   1.0000   1.0000   1.0000   1.0000
     1.0005  -0.0240  -0.0030  -0.0000  -0.0000

          k = 0.0000 1.2879 0.0000 ( 12185 PWs)   bands (ev):

   -49.8451 -26.1687 -25.7910 -25.7079 -11.7536  -9.1558  -9.1360   0.9913
     1.4287   1.6369   2.2703   2.6792   2.8794   2.9784   3.8076   4.3619
     5.6201   8.4214   8.5269   8.9655  10.8134

     occupation numbers 
     1.0000   1.0000   1.0000   1.0000   1.0000   1.0000   1.0000   1.0000
     1.0000   1.0000   1.0000   1.0000   1.0000   1.0000   1.0000   1.0000
     1.0000  -0.0000  -0.0000  -0.0000  -0.0000

          k =-1.7470-0.2147 0.0000 ( 12152 PWs)   bands (ev):

   -49.8441 -26.1005 -25.7878 -25.7419 -12.1972  -9.1880  -9.0756   1.5095
     1.7206   2.3944   2.4113   2.7813   3.0809   3.3551   3.6526   4.1417
     6.0931   7.4981   7.6678   8.7794  10.3749

     occupation numbers 
     1.0000   1.0000   1.0000   1.0000   1.0000   1.0000   1.0000   1.0000
     1.0000   1.0000   1.0000   1.0000   1.0000   1.0000   1.0000   1.0000
     1.0007  -0.0009  -0.0000  -0.0000  -0.0000

          k =-1.4974 0.0000 0.0000 ( 12179 PWs)   bands (ev):

   -49.8395 -26.0669 -25.8192 -25.7752 -12.3344  -9.1482  -8.9174   1.2071
     1.5027   2.1206   2.6272   2.9217   3.6686   3.6857   3.6975   3.8997
     6.8244   6.9798   7.1102   8.6903   9.8847

     occupation numbers 
     1.0000   1.0000   1.0000   1.0000   1.0000   1.0000   1.0000   1.0000
     1.0000   1.0000   1.0000   1.0000   1.0000   1.0000   1.0000   1.0000
     0.4385   0.0612  -0.0336  -0.0000  -0.0000

          k =-1.9966-1.7173-0.5415 ( 12132 PWs)   bands (ev):

   -49.8468 -26.0754 -25.7944 -25.7109 -12.3920  -9.2398  -9.1396   1.4626
     2.0997   2.6772   2.7759   3.3142   3.3392   3.3835   3.7875   4.0573
     5.5608   7.2108   7.5487   9.0027   9.9269

     occupation numbers 
     1.0000   1.0000   1.0000   1.0000   1.0000   1.0000   1.0000   1.0000
     1.0000   1.0000   1.0000   1.0000   1.0000   1.0000   1.0000   1.0000
     1.0000  -0.0280  -0.0004  -0.0000  -0.0000

     the Fermi energy is     6.8045 ev

!    total energy              =    -534.96676772 Ry

     total all-electron energy =     -9636.857010 Ry
     estimated scf accuracy    <          4.6E-11 Ry
     smearing contrib. (-TS)   =      -0.00059951 Ry
     internal energy E=F+TS    =    -534.96616821 Ry

     The total energy is F=E-TS. E is the sum of the following terms:
     one-electron contribution =     -93.94991543 Ry
     hartree contribution      =      61.21872268 Ry
     xc contribution           =     -39.53550564 Ry
     ewald contribution        =    -135.48921389 Ry
     one-center paw contrib.   =    -327.21025592 Ry
      -> PAW hartree energy AE =      29.08705802 Ry
      -> PAW hartree energy PS =     -29.05699418 Ry
      -> PAW xc energy AE      =     -17.03732419 Ry
      -> PAW xc energy PS      =       7.41318117 Ry
      -> total E_H with PAW    =      61.24878653 Ry
      -> total E_XC with PAW   =     -49.15964866 Ry

     convergence has been achieved in  12 iterations

     Forces acting on atoms (cartesian axes, Ry/au):

     atom    1 type  1   force =     0.00000000    0.00000000    0.00000000
     atom    2 type  2   force =     0.00000000    0.00000000    0.03646504
     atom    3 type  2   force =     0.00000000    0.00000000   -0.03646504
     atom    4 type  3   force =     0.00000000    0.00000000    0.00000000
     The non-local contrib.  to forces
     atom    1 type  1   force =     0.00000000    0.00000000    0.00000000
     atom    2 type  2   force =     0.00000000    0.00000000    0.06361047
     atom    3 type  2   force =     0.00000000    0.00000000   -0.06361047
     atom    4 type  3   force =     0.00000000    0.00000000    0.00000000
     The ionic contribution  to forces
     atom    1 type  1   force =    -0.00000000   -0.00000000    0.00000000
     atom    2 type  2   force =     0.00000001    0.00000000  -10.07462875
     atom    3 type  2   force =    -0.00000001   -0.00000000   10.07462875
     atom    4 type  3   force =    -0.00000000   -0.00000000    0.00000000
     The local contribution  to forces
     atom    1 type  1   force =     0.00000000    0.00000000    0.00000000
     atom    2 type  2   force =     0.00000002   -0.00000003   10.04594650
     atom    3 type  2   force =    -0.00000002    0.00000003  -10.04594650
     atom    4 type  3   force =     0.00000000    0.00000000    0.00000000
     The core correction contribution to forces
     atom    1 type  1   force =     0.00000000    0.00000000    0.00000000
     atom    2 type  2   force =    -0.00000000    0.00000000    0.00153477
     atom    3 type  2   force =     0.00000000   -0.00000000   -0.00153477
     atom    4 type  3   force =     0.00000000    0.00000000    0.00000000
     The Hubbard contrib.    to forces
     atom    1 type  1   force =     0.00000000    0.00000000    0.00000000
     atom    2 type  2   force =     0.00000000    0.00000000    0.00000000
     atom    3 type  2   force =     0.00000000    0.00000000    0.00000000
     atom    4 type  3   force =     0.00000000    0.00000000    0.00000000
     The SCF correction term to forces
     atom    1 type  1   force =    -0.00000000   -0.00000000   -0.00000000
     atom    2 type  2   force =    -0.00000000    0.00000000    0.00000206
     atom    3 type  2   force =     0.00000000   -0.00000000   -0.00000206
     atom    4 type  3   force =    -0.00000000   -0.00000000   -0.00000000

     Total force =     0.051569     Total SCF correction =     0.000003


     Computing stress (Cartesian axis) and pressure

          total   stress  (Ry/bohr**3)                   (kbar)     P=      -38.92
  -0.00026236  -0.00000000   0.00000000          -38.59       -0.00        0.00
  -0.00000000  -0.00026153   0.00000000           -0.00      -38.47        0.00
   0.00000000  -0.00000000  -0.00026983            0.00       -0.00      -39.69

     kinetic stress (kbar)  14756.47      0.00      0.00
                                0.00  14830.18      0.00
                                0.00      0.00  14764.70

     local   stress (kbar) -18895.10     -0.00      0.00
                               -0.00 -24223.97      0.00
                                0.00      0.00   4113.83

     nonloc. stress (kbar)   8010.39     -0.00      0.00
                               -0.00   7931.20      0.00
                               -0.00     -0.00   8005.96

     hartree stress (kbar)   8375.14      0.00     -0.00
                                0.00  10116.18      0.00
                               -0.00      0.00  -2055.71

     exc-cor stress (kbar)  -1130.99     -0.00     -0.00
                               -0.00  -1121.39     -0.00
                               -0.00     -0.00  -1130.56

     corecor stress (kbar)  -2029.37      0.00      0.00
                                0.00  -2029.23      0.00
                                0.00      0.00  -2029.22

     ewald   stress (kbar)  -9125.13      0.00     -0.00
                                0.00  -5541.44     -0.00
                               -0.00     -0.00 -21708.70

     hubbard stress (kbar)      0.00      0.00      0.00
                                0.00      0.00      0.00
                                0.00      0.00      0.00

     DFT-D   stress (kbar)      0.00      0.00      0.00
                                0.00      0.00      0.00
                                0.00      0.00      0.00

     XDM     stress (kbar)      0.00      0.00      0.00
                                0.00      0.00      0.00
                                0.00      0.00      0.00

     dft-nl  stress (kbar)      0.00      0.00      0.00
                                0.00      0.00      0.00
                                0.00      0.00      0.00

     TS-vdW  stress (kbar)      0.00      0.00      0.00
                                0.00      0.00      0.00
                                0.00      0.00      0.00



     Writing output data file /zfs_data/gutierre/Scratch/Cl2NbO/smearing/8x8x8/0.020/tmp/Cl2NbO.save/
 
     init_run     :      3.04s CPU      3.15s WALL (       1 calls)
     electrons    :     60.20s CPU     61.70s WALL (       1 calls)
     forces       :      0.77s CPU      0.79s WALL (       1 calls)
     stress       :      1.78s CPU      1.78s WALL (       1 calls)

     Called by init_run:
     wfcinit      :      1.80s CPU      1.86s WALL (       1 calls)
     wfcinit:atom :      0.01s CPU      0.01s WALL (      95 calls)
     wfcinit:wfcr :      1.73s CPU      1.79s WALL (      95 calls)
     potinit      :      0.37s CPU      0.39s WALL (       1 calls)
     hinit0       :      0.51s CPU      0.52s WALL (       1 calls)

     Called by electrons:
     c_bands      :     46.80s CPU     48.00s WALL (      12 calls)
     sum_band     :     10.45s CPU     10.68s WALL (      12 calls)
     v_of_rho     :      1.16s CPU      1.19s WALL (      13 calls)
     v_h          :      0.09s CPU      0.10s WALL (      13 calls)
     v_xc         :      1.23s CPU      1.26s WALL (      15 calls)
     newd         :      1.00s CPU      1.02s WALL (      13 calls)
     PAW_pot      :      0.68s CPU      0.69s WALL (      13 calls)
     mix_rho      :      0.16s CPU      0.17s WALL (      12 calls)

     Called by c_bands:
     init_us_2    :      0.62s CPU      0.64s WALL (    2565 calls)
     cegterg      :     45.49s CPU     46.62s WALL (    1140 calls)

     Called by sum_band:
     sum_band:wei :      0.04s CPU      0.04s WALL (      12 calls)
     sum_band:loo :      9.28s CPU      9.47s WALL (      12 calls)
     sum_band:buf :      0.09s CPU      0.09s WALL (    1140 calls)
     sum_band:ini :      0.29s CPU      0.30s WALL (    1140 calls)
     sum_band:cal :      0.30s CPU      0.31s WALL (    1140 calls)
     sum_band:bec :      0.03s CPU      0.04s WALL (    1140 calls)
     addusdens    :      0.99s CPU      1.02s WALL (      12 calls)
     addusd:skk   :      0.01s CPU      0.01s WALL (      36 calls)
     addusd:dgemm :      0.30s CPU      0.33s WALL (      36 calls)
     addusd:qvan2 :      0.64s CPU      0.64s WALL (      36 calls)

     Called by *egterg:
     cdiaghg      :      2.57s CPU      2.75s WALL (    4278 calls)
     cegterg:over :      0.87s CPU      0.89s WALL (    3138 calls)
     cegterg:upda :      0.28s CPU      0.28s WALL (    3138 calls)
     cegterg:last :      0.43s CPU      0.44s WALL (    2246 calls)
     h_psi        :     41.87s CPU     42.82s WALL (    4373 calls)
     s_psi        :      0.30s CPU      0.30s WALL (    4373 calls)
     g_psi        :      0.06s CPU      0.06s WALL (    3138 calls)

     Called by h_psi:
     h_psi:calbec :      1.01s CPU      1.03s WALL (    4373 calls)
     vloc_psi     :     40.24s CPU     41.15s WALL (    4373 calls)
     add_vuspsi   :      0.47s CPU      0.49s WALL (    4373 calls)

     General routines
     calbec       :      1.34s CPU      1.38s WALL (    5988 calls)
     fft          :      1.02s CPU      1.04s WALL (     192 calls)
     ffts         :      0.02s CPU      0.02s WALL (      25 calls)
     fftw         :     43.84s CPU     44.83s WALL (  148370 calls)
     interpolate  :      0.09s CPU      0.09s WALL (      13 calls)
 
     Parallel routines
     fft_scatt_xy :      5.89s CPU      5.98s WALL (  148587 calls)
     fft_scatt_yz :     19.45s CPU     19.88s WALL (  148587 calls)

     PAW routines
     PAW_pot      :      0.68s CPU      0.69s WALL (      13 calls)
     PAW_symme    :      0.02s CPU      0.02s WALL (      25 calls)
 
     PWSCF        :   1m 6.59s CPU   1m 9.24s WALL

 
   This run was terminated on:  17:52:41  18May2022            

=------------------------------------------------------------------------------=
   JOB DONE.
=------------------------------------------------------------------------------=
