 
             +---------------------------------------------------+
             |                                                   |
             |                   WANNIER90                       |
             |                                                   |
             +---------------------------------------------------+
             |                                                   |
             |        Welcome to the Maximally-Localized         |
             |        Generalized Wannier Functions code         |
             |            http://www.wannier.org                 |
             |                                                   |
             |                                                   |
             |  Wannier90 Developer Group:                       |
             |    Giovanni Pizzi    (EPFL)                       |
             |    Valerio Vitale    (Cambridge)                  |
             |    David Vanderbilt  (Rutgers University)         |
             |    Nicola Marzari    (EPFL)                       |
             |    Ivo Souza         (Universidad del Pais Vasco) |
             |    Arash A. Mostofi  (Imperial College London)    |
             |    Jonathan R. Yates (University of Oxford)       |
             |                                                   |
             |  For the full list of Wannier90 3.x authors,      |
             |  please check the code documentation and the      |
             |  README on the GitHub page of the code            |
             |                                                   |
             |                                                   |
             |  Please cite                                      |
             |                                                   |
             |  [ref] "Wannier90 as a community code:            |
             |        new features and applications",            |
             |        G. Pizzi et al., J. Phys. Cond. Matt. 32,  |
             |        165902 (2020).                             |
             |        http://doi.org/10.1088/1361-648X/ab51ff    |
             |                                                   |
             |  in any publications arising from the use of      |
             |  this code. For the method please cite            |
             |                                                   |
             |  [ref] "Maximally Localized Generalised Wannier   |
             |         Functions for Composite Energy Bands"     |
             |         N. Marzari and D. Vanderbilt              |
             |         Phys. Rev. B 56 12847 (1997)              |
             |                                                   |
             |  [ref] "Maximally Localized Wannier Functions     |
             |         for Entangled Energy Bands"               |
             |         I. Souza, N. Marzari and D. Vanderbilt    |
             |         Phys. Rev. B 65 035109 (2001)             |
             |                                                   |
             |                                                   |
             | Copyright (c) 1996-2020                           |
             |        The Wannier90 Developer Group and          |
             |        individual contributors                    |
             |                                                   |
             |      Release: 3.1.0        5th March    2020      |
             |                                                   |
             | This program is free software; you can            |
             | redistribute it and/or modify it under the terms  |
             | of the GNU General Public License as published by |
             | the Free Software Foundation; either version 2 of |
             | the License, or (at your option) any later version|
             |                                                   |
             | This program is distributed in the hope that it   |
             | will be useful, but WITHOUT ANY WARRANTY; without |
             | even the implied warranty of MERCHANTABILITY or   |
             | FITNESS FOR A PARTICULAR PURPOSE. See the GNU     |
             | General Public License for more details.          |
             |                                                   |
             | You should have received a copy of the GNU General|
             | Public License along with this program; if not,   |
             | write to the Free Software Foundation, Inc.,      |
             | 675 Mass Ave, Cambridge, MA 02139, USA.           |
             |                                                   |
             +---------------------------------------------------+
             |    Execution started on 21Apr2022 at 15:00:09     |
             +---------------------------------------------------+
 
 ******************************************************************************
 * -> Using CODATA 2006 constant values                                       *
 *    (http://physics.nist.gov/cuu/Constants/index.html)                      *
 * -> Using Bohr value from CODATA                                            *
 ******************************************************************************
 

 Running in parallel on 128 CPUs

 
                                    ------
                                    SYSTEM
                                    ------
 
                              Lattice Vectors (Ang)
                    a_1     4.998029   0.000000   0.000000
                    a_2    -2.499015   4.328420   0.000000
                    a_3     0.000000   0.000000   6.820731
 
                   Unit Cell Volume:     147.55679  (Ang^3)
 
                        Reciprocal-Space Vectors (Ang^-1)
                    b_1     1.257133   0.725806   0.000000
                    b_2     0.000000   1.451612   0.000000
                    b_3     0.000000   0.000000   0.921189
  
 *----------------------------------------------------------------------------*
 |   Site       Fractional Coordinate          Cartesian Coordinate (Ang)     |
 +----------------------------------------------------------------------------+
 | Nb   1   0.50000   0.50000   0.83333   |    1.24951   2.16421   5.68394    |
 | Nb   2   0.50000   0.00000   0.50000   |    2.49901   0.00000   3.41037    |
 | Nb   3   0.00000   0.50000   0.16667   |   -1.24951   2.16421   1.13679    |
 | Ge   1   0.67167   0.83583   0.16667   |    1.26824   3.61784   1.13679    |
 | Ge   2   0.83583   0.67167   0.50000   |    2.49901   2.90725   3.41037    |
 | Ge   3   0.83583   0.16417   0.83333   |    3.76726   0.71059   5.68394    |
 | Ge   4   0.32833   0.16417   0.16667   |    1.23077   0.71059   1.13679    |
 | Ge   5   0.16417   0.32833   0.50000   |   -0.00000   1.42117   3.41037    |
 | Ge   6   0.16417   0.83583   0.83333   |   -1.26824   3.61784   5.68394    |
 *----------------------------------------------------------------------------*
                                -----------
                                PROJECTIONS
                                -----------
  
 +----------------------------------------------------------------------------+
 |     Frac. Coord.   l mr  r        z-axis               x-axis          Z/a |
 +----------------------------------------------------------------------------+
 |  0.67  0.84  0.17  1  1  1  0.000  0.000  1.000  1.000  0.000  0.000   1.0 |
 |  0.67  0.84  0.17  1  1  1  0.000  0.000  1.000  1.000  0.000  0.000   1.0 |
 |  0.67  0.84  0.17  1  2  1  0.000  0.000  1.000  1.000  0.000  0.000   1.0 |
 |  0.67  0.84  0.17  1  2  1  0.000  0.000  1.000  1.000  0.000  0.000   1.0 |
 |  0.67  0.84  0.17  1  3  1  0.000  0.000  1.000  1.000  0.000  0.000   1.0 |
 |  0.67  0.84  0.17  1  3  1  0.000  0.000  1.000  1.000  0.000  0.000   1.0 |
 |  0.84  0.67  0.50  1  1  1  0.000  0.000  1.000  1.000  0.000  0.000   1.0 |
 |  0.84  0.67  0.50  1  1  1  0.000  0.000  1.000  1.000  0.000  0.000   1.0 |
 |  0.84  0.67  0.50  1  2  1  0.000  0.000  1.000  1.000  0.000  0.000   1.0 |
 |  0.84  0.67  0.50  1  2  1  0.000  0.000  1.000  1.000  0.000  0.000   1.0 |
 |  0.84  0.67  0.50  1  3  1  0.000  0.000  1.000  1.000  0.000  0.000   1.0 |
 |  0.84  0.67  0.50  1  3  1  0.000  0.000  1.000  1.000  0.000  0.000   1.0 |
 |  0.84  0.16  0.83  1  1  1  0.000  0.000  1.000  1.000  0.000  0.000   1.0 |
 |  0.84  0.16  0.83  1  1  1  0.000  0.000  1.000  1.000  0.000  0.000   1.0 |
 |  0.84  0.16  0.83  1  2  1  0.000  0.000  1.000  1.000  0.000  0.000   1.0 |
 |  0.84  0.16  0.83  1  2  1  0.000  0.000  1.000  1.000  0.000  0.000   1.0 |
 |  0.84  0.16  0.83  1  3  1  0.000  0.000  1.000  1.000  0.000  0.000   1.0 |
 |  0.84  0.16  0.83  1  3  1  0.000  0.000  1.000  1.000  0.000  0.000   1.0 |
 |  0.33  0.16  0.17  1  1  1  0.000  0.000  1.000  1.000  0.000  0.000   1.0 |
 |  0.33  0.16  0.17  1  1  1  0.000  0.000  1.000  1.000  0.000  0.000   1.0 |
 |  0.33  0.16  0.17  1  2  1  0.000  0.000  1.000  1.000  0.000  0.000   1.0 |
 |  0.33  0.16  0.17  1  2  1  0.000  0.000  1.000  1.000  0.000  0.000   1.0 |
 |  0.33  0.16  0.17  1  3  1  0.000  0.000  1.000  1.000  0.000  0.000   1.0 |
 |  0.33  0.16  0.17  1  3  1  0.000  0.000  1.000  1.000  0.000  0.000   1.0 |
 |  0.16  0.33  0.50  1  1  1  0.000  0.000  1.000  1.000  0.000  0.000   1.0 |
 |  0.16  0.33  0.50  1  1  1  0.000  0.000  1.000  1.000  0.000  0.000   1.0 |
 |  0.16  0.33  0.50  1  2  1  0.000  0.000  1.000  1.000  0.000  0.000   1.0 |
 |  0.16  0.33  0.50  1  2  1  0.000  0.000  1.000  1.000  0.000  0.000   1.0 |
 |  0.16  0.33  0.50  1  3  1  0.000  0.000  1.000  1.000  0.000  0.000   1.0 |
 |  0.16  0.33  0.50  1  3  1  0.000  0.000  1.000  1.000  0.000  0.000   1.0 |
 |  0.16  0.84  0.83  1  1  1  0.000  0.000  1.000  1.000  0.000  0.000   1.0 |
 |  0.16  0.84  0.83  1  1  1  0.000  0.000  1.000  1.000  0.000  0.000   1.0 |
 |  0.16  0.84  0.83  1  2  1  0.000  0.000  1.000  1.000  0.000  0.000   1.0 |
 |  0.16  0.84  0.83  1  2  1  0.000  0.000  1.000  1.000  0.000  0.000   1.0 |
 |  0.16  0.84  0.83  1  3  1  0.000  0.000  1.000  1.000  0.000  0.000   1.0 |
 |  0.16  0.84  0.83  1  3  1  0.000  0.000  1.000  1.000  0.000  0.000   1.0 |
 |  0.50  0.50  0.83  2  1  1  0.000  0.000  1.000  1.000  0.000  0.000   1.0 |
 |  0.50  0.50  0.83  2  1  1  0.000  0.000  1.000  1.000  0.000  0.000   1.0 |
 |  0.50  0.50  0.83  2  2  1  0.000  0.000  1.000  1.000  0.000  0.000   1.0 |
 |  0.50  0.50  0.83  2  2  1  0.000  0.000  1.000  1.000  0.000  0.000   1.0 |
 |  0.50  0.50  0.83  2  3  1  0.000  0.000  1.000  1.000  0.000  0.000   1.0 |
 |  0.50  0.50  0.83  2  3  1  0.000  0.000  1.000  1.000  0.000  0.000   1.0 |
 |  0.50  0.50  0.83  2  4  1  0.000  0.000  1.000  1.000  0.000  0.000   1.0 |
 |  0.50  0.50  0.83  2  4  1  0.000  0.000  1.000  1.000  0.000  0.000   1.0 |
 |  0.50  0.50  0.83  2  5  1  0.000  0.000  1.000  1.000  0.000  0.000   1.0 |
 |  0.50  0.50  0.83  2  5  1  0.000  0.000  1.000  1.000  0.000  0.000   1.0 |
 |  0.50  0.00  0.50  2  1  1  0.000  0.000  1.000  1.000  0.000  0.000   1.0 |
 |  0.50  0.00  0.50  2  1  1  0.000  0.000  1.000  1.000  0.000  0.000   1.0 |
 |  0.50  0.00  0.50  2  2  1  0.000  0.000  1.000  1.000  0.000  0.000   1.0 |
 |  0.50  0.00  0.50  2  2  1  0.000  0.000  1.000  1.000  0.000  0.000   1.0 |
 |  0.50  0.00  0.50  2  3  1  0.000  0.000  1.000  1.000  0.000  0.000   1.0 |
 |  0.50  0.00  0.50  2  3  1  0.000  0.000  1.000  1.000  0.000  0.000   1.0 |
 |  0.50  0.00  0.50  2  4  1  0.000  0.000  1.000  1.000  0.000  0.000   1.0 |
 |  0.50  0.00  0.50  2  4  1  0.000  0.000  1.000  1.000  0.000  0.000   1.0 |
 |  0.50  0.00  0.50  2  5  1  0.000  0.000  1.000  1.000  0.000  0.000   1.0 |
 |  0.50  0.00  0.50  2  5  1  0.000  0.000  1.000  1.000  0.000  0.000   1.0 |
 |  0.00  0.50  0.17  2  1  1  0.000  0.000  1.000  1.000  0.000  0.000   1.0 |
 |  0.00  0.50  0.17  2  1  1  0.000  0.000  1.000  1.000  0.000  0.000   1.0 |
 |  0.00  0.50  0.17  2  2  1  0.000  0.000  1.000  1.000  0.000  0.000   1.0 |
 |  0.00  0.50  0.17  2  2  1  0.000  0.000  1.000  1.000  0.000  0.000   1.0 |
 |  0.00  0.50  0.17  2  3  1  0.000  0.000  1.000  1.000  0.000  0.000   1.0 |
 |  0.00  0.50  0.17  2  3  1  0.000  0.000  1.000  1.000  0.000  0.000   1.0 |
 |  0.00  0.50  0.17  2  4  1  0.000  0.000  1.000  1.000  0.000  0.000   1.0 |
 |  0.00  0.50  0.17  2  4  1  0.000  0.000  1.000  1.000  0.000  0.000   1.0 |
 |  0.00  0.50  0.17  2  5  1  0.000  0.000  1.000  1.000  0.000  0.000   1.0 |
 |  0.00  0.50  0.17  2  5  1  0.000  0.000  1.000  1.000  0.000  0.000   1.0 |
 +----------------------------------------------------------------------------+
  
                                ------------
                                K-POINT GRID
                                ------------
  
             Grid size = 12 x 12 x 10      Total points = 1440
  
 *----------------------------------------------------------------------------*
 | k-point      Fractional Coordinate        Cartesian Coordinate (Ang^-1)    |
 +----------------------------------------------------------------------------+
 |     1    0.00000   0.00000   0.00000   |    0.00000   0.00000   0.00000    |
 |     2    0.00000   0.00000   0.10000   |    0.00000   0.00000   0.09212    |
 |     3    0.00000   0.00000   0.20000   |    0.00000   0.00000   0.18424    |
 |     4    0.00000   0.00000   0.30000   |    0.00000   0.00000   0.27636    |
 |     5    0.00000   0.00000   0.40000   |    0.00000   0.00000   0.36848    |
 |     6    0.00000   0.00000   0.50000   |    0.00000   0.00000   0.46059    |
 |     7    0.00000   0.00000   0.60000   |    0.00000   0.00000   0.55271    |
 |     8    0.00000   0.00000   0.70000   |    0.00000   0.00000   0.64483    |
 |     9    0.00000   0.00000   0.80000   |    0.00000   0.00000   0.73695    |
 |    10    0.00000   0.00000   0.90000   |    0.00000   0.00000   0.82907    |
 |    11    0.00000   0.08333   0.00000   |    0.00000   0.12097   0.00000    |
 |    12    0.00000   0.08333   0.10000   |    0.00000   0.12097   0.09212    |
 |    13    0.00000   0.08333   0.20000   |    0.00000   0.12097   0.18424    |
 |    14    0.00000   0.08333   0.30000   |    0.00000   0.12097   0.27636    |
 |    15    0.00000   0.08333   0.40000   |    0.00000   0.12097   0.36848    |
 |    16    0.00000   0.08333   0.50000   |    0.00000   0.12097   0.46059    |
 |    17    0.00000   0.08333   0.60000   |    0.00000   0.12097   0.55271    |
 |    18    0.00000   0.08333   0.70000   |    0.00000   0.12097   0.64483    |
 |    19    0.00000   0.08333   0.80000   |    0.00000   0.12097   0.73695    |
 |    20    0.00000   0.08333   0.90000   |    0.00000   0.12097   0.82907    |
 |    21    0.00000   0.16667   0.00000   |    0.00000   0.24194   0.00000    |
 |    22    0.00000   0.16667   0.10000   |    0.00000   0.24194   0.09212    |
 |    23    0.00000   0.16667   0.20000   |    0.00000   0.24194   0.18424    |
 |    24    0.00000   0.16667   0.30000   |    0.00000   0.24194   0.27636    |
 |    25    0.00000   0.16667   0.40000   |    0.00000   0.24194   0.36848    |
 |    26    0.00000   0.16667   0.50000   |    0.00000   0.24194   0.46059    |
 |    27    0.00000   0.16667   0.60000   |    0.00000   0.24194   0.55271    |
 |    28    0.00000   0.16667   0.70000   |    0.00000   0.24194   0.64483    |
 |    29    0.00000   0.16667   0.80000   |    0.00000   0.24194   0.73695    |
 |    30    0.00000   0.16667   0.90000   |    0.00000   0.24194   0.82907    |
 |    31    0.00000   0.25000   0.00000   |    0.00000   0.36290   0.00000    |
 |    32    0.00000   0.25000   0.10000   |    0.00000   0.36290   0.09212    |
 |    33    0.00000   0.25000   0.20000   |    0.00000   0.36290   0.18424    |
 |    34    0.00000   0.25000   0.30000   |    0.00000   0.36290   0.27636    |
 |    35    0.00000   0.25000   0.40000   |    0.00000   0.36290   0.36848    |
 |    36    0.00000   0.25000   0.50000   |    0.00000   0.36290   0.46059    |
 |    37    0.00000   0.25000   0.60000   |    0.00000   0.36290   0.55271    |
 |    38    0.00000   0.25000   0.70000   |    0.00000   0.36290   0.64483    |
 |    39    0.00000   0.25000   0.80000   |    0.00000   0.36290   0.73695    |
 |    40    0.00000   0.25000   0.90000   |    0.00000   0.36290   0.82907    |
 |    41    0.00000   0.33333   0.00000   |    0.00000   0.48387   0.00000    |
 |    42    0.00000   0.33333   0.10000   |    0.00000   0.48387   0.09212    |
 |    43    0.00000   0.33333   0.20000   |    0.00000   0.48387   0.18424    |
 |    44    0.00000   0.33333   0.30000   |    0.00000   0.48387   0.27636    |
 |    45    0.00000   0.33333   0.40000   |    0.00000   0.48387   0.36848    |
 |    46    0.00000   0.33333   0.50000   |    0.00000   0.48387   0.46059    |
 |    47    0.00000   0.33333   0.60000   |    0.00000   0.48387   0.55271    |
 |    48    0.00000   0.33333   0.70000   |    0.00000   0.48387   0.64483    |
 |    49    0.00000   0.33333   0.80000   |    0.00000   0.48387   0.73695    |
 |    50    0.00000   0.33333   0.90000   |    0.00000   0.48387   0.82907    |
 |    51    0.00000   0.41667   0.00000   |    0.00000   0.60484   0.00000    |
 |    52    0.00000   0.41667   0.10000   |    0.00000   0.60484   0.09212    |
 |    53    0.00000   0.41667   0.20000   |    0.00000   0.60484   0.18424    |
 |    54    0.00000   0.41667   0.30000   |    0.00000   0.60484   0.27636    |
 |    55    0.00000   0.41667   0.40000   |    0.00000   0.60484   0.36848    |
 |    56    0.00000   0.41667   0.50000   |    0.00000   0.60484   0.46059    |
 |    57    0.00000   0.41667   0.60000   |    0.00000   0.60484   0.55271    |
 |    58    0.00000   0.41667   0.70000   |    0.00000   0.60484   0.64483    |
 |    59    0.00000   0.41667   0.80000   |    0.00000   0.60484   0.73695    |
 |    60    0.00000   0.41667   0.90000   |    0.00000   0.60484   0.82907    |
 |    61    0.00000   0.50000   0.00000   |    0.00000   0.72581   0.00000    |
 |    62    0.00000   0.50000   0.10000   |    0.00000   0.72581   0.09212    |
 |    63    0.00000   0.50000   0.20000   |    0.00000   0.72581   0.18424    |
 |    64    0.00000   0.50000   0.30000   |    0.00000   0.72581   0.27636    |
 |    65    0.00000   0.50000   0.40000   |    0.00000   0.72581   0.36848    |
 |    66    0.00000   0.50000   0.50000   |    0.00000   0.72581   0.46059    |
 |    67    0.00000   0.50000   0.60000   |    0.00000   0.72581   0.55271    |
 |    68    0.00000   0.50000   0.70000   |    0.00000   0.72581   0.64483    |
 |    69    0.00000   0.50000   0.80000   |    0.00000   0.72581   0.73695    |
 |    70    0.00000   0.50000   0.90000   |    0.00000   0.72581   0.82907    |
 |    71    0.00000   0.58333   0.00000   |    0.00000   0.84677   0.00000    |
 |    72    0.00000   0.58333   0.10000   |    0.00000   0.84677   0.09212    |
 |    73    0.00000   0.58333   0.20000   |    0.00000   0.84677   0.18424    |
 |    74    0.00000   0.58333   0.30000   |    0.00000   0.84677   0.27636    |
 |    75    0.00000   0.58333   0.40000   |    0.00000   0.84677   0.36848    |
 |    76    0.00000   0.58333   0.50000   |    0.00000   0.84677   0.46059    |
 |    77    0.00000   0.58333   0.60000   |    0.00000   0.84677   0.55271    |
 |    78    0.00000   0.58333   0.70000   |    0.00000   0.84677   0.64483    |
 |    79    0.00000   0.58333   0.80000   |    0.00000   0.84677   0.73695    |
 |    80    0.00000   0.58333   0.90000   |    0.00000   0.84677   0.82907    |
 |    81    0.00000   0.66667   0.00000   |    0.00000   0.96774   0.00000    |
 |    82    0.00000   0.66667   0.10000   |    0.00000   0.96774   0.09212    |
 |    83    0.00000   0.66667   0.20000   |    0.00000   0.96774   0.18424    |
 |    84    0.00000   0.66667   0.30000   |    0.00000   0.96774   0.27636    |
 |    85    0.00000   0.66667   0.40000   |    0.00000   0.96774   0.36848    |
 |    86    0.00000   0.66667   0.50000   |    0.00000   0.96774   0.46059    |
 |    87    0.00000   0.66667   0.60000   |    0.00000   0.96774   0.55271    |
 |    88    0.00000   0.66667   0.70000   |    0.00000   0.96774   0.64483    |
 |    89    0.00000   0.66667   0.80000   |    0.00000   0.96774   0.73695    |
 |    90    0.00000   0.66667   0.90000   |    0.00000   0.96774   0.82907    |
 |    91    0.00000   0.75000   0.00000   |    0.00000   1.08871   0.00000    |
 |    92    0.00000   0.75000   0.10000   |    0.00000   1.08871   0.09212    |
 |    93    0.00000   0.75000   0.20000   |    0.00000   1.08871   0.18424    |
 |    94    0.00000   0.75000   0.30000   |    0.00000   1.08871   0.27636    |
 |    95    0.00000   0.75000   0.40000   |    0.00000   1.08871   0.36848    |
 |    96    0.00000   0.75000   0.50000   |    0.00000   1.08871   0.46059    |
 |    97    0.00000   0.75000   0.60000   |    0.00000   1.08871   0.55271    |
 |    98    0.00000   0.75000   0.70000   |    0.00000   1.08871   0.64483    |
 |    99    0.00000   0.75000   0.80000   |    0.00000   1.08871   0.73695    |
 |   100    0.00000   0.75000   0.90000   |    0.00000   1.08871   0.82907    |
 |   101    0.00000   0.83333   0.00000   |    0.00000   1.20968   0.00000    |
 |   102    0.00000   0.83333   0.10000   |    0.00000   1.20968   0.09212    |
 |   103    0.00000   0.83333   0.20000   |    0.00000   1.20968   0.18424    |
 |   104    0.00000   0.83333   0.30000   |    0.00000   1.20968   0.27636    |
 |   105    0.00000   0.83333   0.40000   |    0.00000   1.20968   0.36848    |
 |   106    0.00000   0.83333   0.50000   |    0.00000   1.20968   0.46059    |
 |   107    0.00000   0.83333   0.60000   |    0.00000   1.20968   0.55271    |
 |   108    0.00000   0.83333   0.70000   |    0.00000   1.20968   0.64483    |
 |   109    0.00000   0.83333   0.80000   |    0.00000   1.20968   0.73695    |
 |   110    0.00000   0.83333   0.90000   |    0.00000   1.20968   0.82907    |
 |   111    0.00000   0.91667   0.00000   |    0.00000   1.33064   0.00000    |
 |   112    0.00000   0.91667   0.10000   |    0.00000   1.33064   0.09212    |
 |   113    0.00000   0.91667   0.20000   |    0.00000   1.33064   0.18424    |
 |   114    0.00000   0.91667   0.30000   |    0.00000   1.33064   0.27636    |
 |   115    0.00000   0.91667   0.40000   |    0.00000   1.33064   0.36848    |
 |   116    0.00000   0.91667   0.50000   |    0.00000   1.33064   0.46059    |
 |   117    0.00000   0.91667   0.60000   |    0.00000   1.33064   0.55271    |
 |   118    0.00000   0.91667   0.70000   |    0.00000   1.33064   0.64483    |
 |   119    0.00000   0.91667   0.80000   |    0.00000   1.33064   0.73695    |
 |   120    0.00000   0.91667   0.90000   |    0.00000   1.33064   0.82907    |
 |   121    0.08333   0.00000   0.00000   |    0.10476   0.06048   0.00000    |
 |   122    0.08333   0.00000   0.10000   |    0.10476   0.06048   0.09212    |
 |   123    0.08333   0.00000   0.20000   |    0.10476   0.06048   0.18424    |
 |   124    0.08333   0.00000   0.30000   |    0.10476   0.06048   0.27636    |
 |   125    0.08333   0.00000   0.40000   |    0.10476   0.06048   0.36848    |
 |   126    0.08333   0.00000   0.50000   |    0.10476   0.06048   0.46059    |
 |   127    0.08333   0.00000   0.60000   |    0.10476   0.06048   0.55271    |
 |   128    0.08333   0.00000   0.70000   |    0.10476   0.06048   0.64483    |
 |   129    0.08333   0.00000   0.80000   |    0.10476   0.06048   0.73695    |
 |   130    0.08333   0.00000   0.90000   |    0.10476   0.06048   0.82907    |
 |   131    0.08333   0.08333   0.00000   |    0.10476   0.18145   0.00000    |
 |   132    0.08333   0.08333   0.10000   |    0.10476   0.18145   0.09212    |
 |   133    0.08333   0.08333   0.20000   |    0.10476   0.18145   0.18424    |
 |   134    0.08333   0.08333   0.30000   |    0.10476   0.18145   0.27636    |
 |   135    0.08333   0.08333   0.40000   |    0.10476   0.18145   0.36848    |
 |   136    0.08333   0.08333   0.50000   |    0.10476   0.18145   0.46059    |
 |   137    0.08333   0.08333   0.60000   |    0.10476   0.18145   0.55271    |
 |   138    0.08333   0.08333   0.70000   |    0.10476   0.18145   0.64483    |
 |   139    0.08333   0.08333   0.80000   |    0.10476   0.18145   0.73695    |
 |   140    0.08333   0.08333   0.90000   |    0.10476   0.18145   0.82907    |
 |   141    0.08333   0.16667   0.00000   |    0.10476   0.30242   0.00000    |
 |   142    0.08333   0.16667   0.10000   |    0.10476   0.30242   0.09212    |
 |   143    0.08333   0.16667   0.20000   |    0.10476   0.30242   0.18424    |
 |   144    0.08333   0.16667   0.30000   |    0.10476   0.30242   0.27636    |
 |   145    0.08333   0.16667   0.40000   |    0.10476   0.30242   0.36848    |
 |   146    0.08333   0.16667   0.50000   |    0.10476   0.30242   0.46059    |
 |   147    0.08333   0.16667   0.60000   |    0.10476   0.30242   0.55271    |
 |   148    0.08333   0.16667   0.70000   |    0.10476   0.30242   0.64483    |
 |   149    0.08333   0.16667   0.80000   |    0.10476   0.30242   0.73695    |
 |   150    0.08333   0.16667   0.90000   |    0.10476   0.30242   0.82907    |
 |   151    0.08333   0.25000   0.00000   |    0.10476   0.42339   0.00000    |
 |   152    0.08333   0.25000   0.10000   |    0.10476   0.42339   0.09212    |
 |   153    0.08333   0.25000   0.20000   |    0.10476   0.42339   0.18424    |
 |   154    0.08333   0.25000   0.30000   |    0.10476   0.42339   0.27636    |
 |   155    0.08333   0.25000   0.40000   |    0.10476   0.42339   0.36848    |
 |   156    0.08333   0.25000   0.50000   |    0.10476   0.42339   0.46059    |
 |   157    0.08333   0.25000   0.60000   |    0.10476   0.42339   0.55271    |
 |   158    0.08333   0.25000   0.70000   |    0.10476   0.42339   0.64483    |
 |   159    0.08333   0.25000   0.80000   |    0.10476   0.42339   0.73695    |
 |   160    0.08333   0.25000   0.90000   |    0.10476   0.42339   0.82907    |
 |   161    0.08333   0.33333   0.00000   |    0.10476   0.54435   0.00000    |
 |   162    0.08333   0.33333   0.10000   |    0.10476   0.54435   0.09212    |
 |   163    0.08333   0.33333   0.20000   |    0.10476   0.54435   0.18424    |
 |   164    0.08333   0.33333   0.30000   |    0.10476   0.54435   0.27636    |
 |   165    0.08333   0.33333   0.40000   |    0.10476   0.54435   0.36848    |
 |   166    0.08333   0.33333   0.50000   |    0.10476   0.54435   0.46059    |
 |   167    0.08333   0.33333   0.60000   |    0.10476   0.54435   0.55271    |
 |   168    0.08333   0.33333   0.70000   |    0.10476   0.54435   0.64483    |
 |   169    0.08333   0.33333   0.80000   |    0.10476   0.54435   0.73695    |
 |   170    0.08333   0.33333   0.90000   |    0.10476   0.54435   0.82907    |
 |   171    0.08333   0.41667   0.00000   |    0.10476   0.66532   0.00000    |
 |   172    0.08333   0.41667   0.10000   |    0.10476   0.66532   0.09212    |
 |   173    0.08333   0.41667   0.20000   |    0.10476   0.66532   0.18424    |
 |   174    0.08333   0.41667   0.30000   |    0.10476   0.66532   0.27636    |
 |   175    0.08333   0.41667   0.40000   |    0.10476   0.66532   0.36848    |
 |   176    0.08333   0.41667   0.50000   |    0.10476   0.66532   0.46059    |
 |   177    0.08333   0.41667   0.60000   |    0.10476   0.66532   0.55271    |
 |   178    0.08333   0.41667   0.70000   |    0.10476   0.66532   0.64483    |
 |   179    0.08333   0.41667   0.80000   |    0.10476   0.66532   0.73695    |
 |   180    0.08333   0.41667   0.90000   |    0.10476   0.66532   0.82907    |
 |   181    0.08333   0.50000   0.00000   |    0.10476   0.78629   0.00000    |
 |   182    0.08333   0.50000   0.10000   |    0.10476   0.78629   0.09212    |
 |   183    0.08333   0.50000   0.20000   |    0.10476   0.78629   0.18424    |
 |   184    0.08333   0.50000   0.30000   |    0.10476   0.78629   0.27636    |
 |   185    0.08333   0.50000   0.40000   |    0.10476   0.78629   0.36848    |
 |   186    0.08333   0.50000   0.50000   |    0.10476   0.78629   0.46059    |
 |   187    0.08333   0.50000   0.60000   |    0.10476   0.78629   0.55271    |
 |   188    0.08333   0.50000   0.70000   |    0.10476   0.78629   0.64483    |
 |   189    0.08333   0.50000   0.80000   |    0.10476   0.78629   0.73695    |
 |   190    0.08333   0.50000   0.90000   |    0.10476   0.78629   0.82907    |
 |   191    0.08333   0.58333   0.00000   |    0.10476   0.90726   0.00000    |
 |   192    0.08333   0.58333   0.10000   |    0.10476   0.90726   0.09212    |
 |   193    0.08333   0.58333   0.20000   |    0.10476   0.90726   0.18424    |
 |   194    0.08333   0.58333   0.30000   |    0.10476   0.90726   0.27636    |
 |   195    0.08333   0.58333   0.40000   |    0.10476   0.90726   0.36848    |
 |   196    0.08333   0.58333   0.50000   |    0.10476   0.90726   0.46059    |
 |   197    0.08333   0.58333   0.60000   |    0.10476   0.90726   0.55271    |
 |   198    0.08333   0.58333   0.70000   |    0.10476   0.90726   0.64483    |
 |   199    0.08333   0.58333   0.80000   |    0.10476   0.90726   0.73695    |
 |   200    0.08333   0.58333   0.90000   |    0.10476   0.90726   0.82907    |
 |   201    0.08333   0.66667   0.00000   |    0.10476   1.02822   0.00000    |
 |   202    0.08333   0.66667   0.10000   |    0.10476   1.02822   0.09212    |
 |   203    0.08333   0.66667   0.20000   |    0.10476   1.02822   0.18424    |
 |   204    0.08333   0.66667   0.30000   |    0.10476   1.02822   0.27636    |
 |   205    0.08333   0.66667   0.40000   |    0.10476   1.02822   0.36848    |
 |   206    0.08333   0.66667   0.50000   |    0.10476   1.02822   0.46059    |
 |   207    0.08333   0.66667   0.60000   |    0.10476   1.02822   0.55271    |
 |   208    0.08333   0.66667   0.70000   |    0.10476   1.02822   0.64483    |
 |   209    0.08333   0.66667   0.80000   |    0.10476   1.02822   0.73695    |
 |   210    0.08333   0.66667   0.90000   |    0.10476   1.02822   0.82907    |
 |   211    0.08333   0.75000   0.00000   |    0.10476   1.14919   0.00000    |
 |   212    0.08333   0.75000   0.10000   |    0.10476   1.14919   0.09212    |
 |   213    0.08333   0.75000   0.20000   |    0.10476   1.14919   0.18424    |
 |   214    0.08333   0.75000   0.30000   |    0.10476   1.14919   0.27636    |
 |   215    0.08333   0.75000   0.40000   |    0.10476   1.14919   0.36848    |
 |   216    0.08333   0.75000   0.50000   |    0.10476   1.14919   0.46059    |
 |   217    0.08333   0.75000   0.60000   |    0.10476   1.14919   0.55271    |
 |   218    0.08333   0.75000   0.70000   |    0.10476   1.14919   0.64483    |
 |   219    0.08333   0.75000   0.80000   |    0.10476   1.14919   0.73695    |
 |   220    0.08333   0.75000   0.90000   |    0.10476   1.14919   0.82907    |
 |   221    0.08333   0.83333   0.00000   |    0.10476   1.27016   0.00000    |
 |   222    0.08333   0.83333   0.10000   |    0.10476   1.27016   0.09212    |
 |   223    0.08333   0.83333   0.20000   |    0.10476   1.27016   0.18424    |
 |   224    0.08333   0.83333   0.30000   |    0.10476   1.27016   0.27636    |
 |   225    0.08333   0.83333   0.40000   |    0.10476   1.27016   0.36848    |
 |   226    0.08333   0.83333   0.50000   |    0.10476   1.27016   0.46059    |
 |   227    0.08333   0.83333   0.60000   |    0.10476   1.27016   0.55271    |
 |   228    0.08333   0.83333   0.70000   |    0.10476   1.27016   0.64483    |
 |   229    0.08333   0.83333   0.80000   |    0.10476   1.27016   0.73695    |
 |   230    0.08333   0.83333   0.90000   |    0.10476   1.27016   0.82907    |
 |   231    0.08333   0.91667   0.00000   |    0.10476   1.39113   0.00000    |
 |   232    0.08333   0.91667   0.10000   |    0.10476   1.39113   0.09212    |
 |   233    0.08333   0.91667   0.20000   |    0.10476   1.39113   0.18424    |
 |   234    0.08333   0.91667   0.30000   |    0.10476   1.39113   0.27636    |
 |   235    0.08333   0.91667   0.40000   |    0.10476   1.39113   0.36848    |
 |   236    0.08333   0.91667   0.50000   |    0.10476   1.39113   0.46059    |
 |   237    0.08333   0.91667   0.60000   |    0.10476   1.39113   0.55271    |
 |   238    0.08333   0.91667   0.70000   |    0.10476   1.39113   0.64483    |
 |   239    0.08333   0.91667   0.80000   |    0.10476   1.39113   0.73695    |
 |   240    0.08333   0.91667   0.90000   |    0.10476   1.39113   0.82907    |
 |   241    0.16667   0.00000   0.00000   |    0.20952   0.12097   0.00000    |
 |   242    0.16667   0.00000   0.10000   |    0.20952   0.12097   0.09212    |
 |   243    0.16667   0.00000   0.20000   |    0.20952   0.12097   0.18424    |
 |   244    0.16667   0.00000   0.30000   |    0.20952   0.12097   0.27636    |
 |   245    0.16667   0.00000   0.40000   |    0.20952   0.12097   0.36848    |
 |   246    0.16667   0.00000   0.50000   |    0.20952   0.12097   0.46059    |
 |   247    0.16667   0.00000   0.60000   |    0.20952   0.12097   0.55271    |
 |   248    0.16667   0.00000   0.70000   |    0.20952   0.12097   0.64483    |
 |   249    0.16667   0.00000   0.80000   |    0.20952   0.12097   0.73695    |
 |   250    0.16667   0.00000   0.90000   |    0.20952   0.12097   0.82907    |
 |   251    0.16667   0.08333   0.00000   |    0.20952   0.24194   0.00000    |
 |   252    0.16667   0.08333   0.10000   |    0.20952   0.24194   0.09212    |
 |   253    0.16667   0.08333   0.20000   |    0.20952   0.24194   0.18424    |
 |   254    0.16667   0.08333   0.30000   |    0.20952   0.24194   0.27636    |
 |   255    0.16667   0.08333   0.40000   |    0.20952   0.24194   0.36848    |
 |   256    0.16667   0.08333   0.50000   |    0.20952   0.24194   0.46059    |
 |   257    0.16667   0.08333   0.60000   |    0.20952   0.24194   0.55271    |
 |   258    0.16667   0.08333   0.70000   |    0.20952   0.24194   0.64483    |
 |   259    0.16667   0.08333   0.80000   |    0.20952   0.24194   0.73695    |
 |   260    0.16667   0.08333   0.90000   |    0.20952   0.24194   0.82907    |
 |   261    0.16667   0.16667   0.00000   |    0.20952   0.36290   0.00000    |
 |   262    0.16667   0.16667   0.10000   |    0.20952   0.36290   0.09212    |
 |   263    0.16667   0.16667   0.20000   |    0.20952   0.36290   0.18424    |
 |   264    0.16667   0.16667   0.30000   |    0.20952   0.36290   0.27636    |
 |   265    0.16667   0.16667   0.40000   |    0.20952   0.36290   0.36848    |
 |   266    0.16667   0.16667   0.50000   |    0.20952   0.36290   0.46059    |
 |   267    0.16667   0.16667   0.60000   |    0.20952   0.36290   0.55271    |
 |   268    0.16667   0.16667   0.70000   |    0.20952   0.36290   0.64483    |
 |   269    0.16667   0.16667   0.80000   |    0.20952   0.36290   0.73695    |
 |   270    0.16667   0.16667   0.90000   |    0.20952   0.36290   0.82907    |
 |   271    0.16667   0.25000   0.00000   |    0.20952   0.48387   0.00000    |
 |   272    0.16667   0.25000   0.10000   |    0.20952   0.48387   0.09212    |
 |   273    0.16667   0.25000   0.20000   |    0.20952   0.48387   0.18424    |
 |   274    0.16667   0.25000   0.30000   |    0.20952   0.48387   0.27636    |
 |   275    0.16667   0.25000   0.40000   |    0.20952   0.48387   0.36848    |
 |   276    0.16667   0.25000   0.50000   |    0.20952   0.48387   0.46059    |
 |   277    0.16667   0.25000   0.60000   |    0.20952   0.48387   0.55271    |
 |   278    0.16667   0.25000   0.70000   |    0.20952   0.48387   0.64483    |
 |   279    0.16667   0.25000   0.80000   |    0.20952   0.48387   0.73695    |
 |   280    0.16667   0.25000   0.90000   |    0.20952   0.48387   0.82907    |
 |   281    0.16667   0.33333   0.00000   |    0.20952   0.60484   0.00000    |
 |   282    0.16667   0.33333   0.10000   |    0.20952   0.60484   0.09212    |
 |   283    0.16667   0.33333   0.20000   |    0.20952   0.60484   0.18424    |
 |   284    0.16667   0.33333   0.30000   |    0.20952   0.60484   0.27636    |
 |   285    0.16667   0.33333   0.40000   |    0.20952   0.60484   0.36848    |
 |   286    0.16667   0.33333   0.50000   |    0.20952   0.60484   0.46059    |
 |   287    0.16667   0.33333   0.60000   |    0.20952   0.60484   0.55271    |
 |   288    0.16667   0.33333   0.70000   |    0.20952   0.60484   0.64483    |
 |   289    0.16667   0.33333   0.80000   |    0.20952   0.60484   0.73695    |
 |   290    0.16667   0.33333   0.90000   |    0.20952   0.60484   0.82907    |
 |   291    0.16667   0.41667   0.00000   |    0.20952   0.72581   0.00000    |
 |   292    0.16667   0.41667   0.10000   |    0.20952   0.72581   0.09212    |
 |   293    0.16667   0.41667   0.20000   |    0.20952   0.72581   0.18424    |
 |   294    0.16667   0.41667   0.30000   |    0.20952   0.72581   0.27636    |
 |   295    0.16667   0.41667   0.40000   |    0.20952   0.72581   0.36848    |
 |   296    0.16667   0.41667   0.50000   |    0.20952   0.72581   0.46059    |
 |   297    0.16667   0.41667   0.60000   |    0.20952   0.72581   0.55271    |
 |   298    0.16667   0.41667   0.70000   |    0.20952   0.72581   0.64483    |
 |   299    0.16667   0.41667   0.80000   |    0.20952   0.72581   0.73695    |
 |   300    0.16667   0.41667   0.90000   |    0.20952   0.72581   0.82907    |
 |   301    0.16667   0.50000   0.00000   |    0.20952   0.84677   0.00000    |
 |   302    0.16667   0.50000   0.10000   |    0.20952   0.84677   0.09212    |
 |   303    0.16667   0.50000   0.20000   |    0.20952   0.84677   0.18424    |
 |   304    0.16667   0.50000   0.30000   |    0.20952   0.84677   0.27636    |
 |   305    0.16667   0.50000   0.40000   |    0.20952   0.84677   0.36848    |
 |   306    0.16667   0.50000   0.50000   |    0.20952   0.84677   0.46059    |
 |   307    0.16667   0.50000   0.60000   |    0.20952   0.84677   0.55271    |
 |   308    0.16667   0.50000   0.70000   |    0.20952   0.84677   0.64483    |
 |   309    0.16667   0.50000   0.80000   |    0.20952   0.84677   0.73695    |
 |   310    0.16667   0.50000   0.90000   |    0.20952   0.84677   0.82907    |
 |   311    0.16667   0.58333   0.00000   |    0.20952   0.96774   0.00000    |
 |   312    0.16667   0.58333   0.10000   |    0.20952   0.96774   0.09212    |
 |   313    0.16667   0.58333   0.20000   |    0.20952   0.96774   0.18424    |
 |   314    0.16667   0.58333   0.30000   |    0.20952   0.96774   0.27636    |
 |   315    0.16667   0.58333   0.40000   |    0.20952   0.96774   0.36848    |
 |   316    0.16667   0.58333   0.50000   |    0.20952   0.96774   0.46059    |
 |   317    0.16667   0.58333   0.60000   |    0.20952   0.96774   0.55271    |
 |   318    0.16667   0.58333   0.70000   |    0.20952   0.96774   0.64483    |
 |   319    0.16667   0.58333   0.80000   |    0.20952   0.96774   0.73695    |
 |   320    0.16667   0.58333   0.90000   |    0.20952   0.96774   0.82907    |
 |   321    0.16667   0.66667   0.00000   |    0.20952   1.08871   0.00000    |
 |   322    0.16667   0.66667   0.10000   |    0.20952   1.08871   0.09212    |
 |   323    0.16667   0.66667   0.20000   |    0.20952   1.08871   0.18424    |
 |   324    0.16667   0.66667   0.30000   |    0.20952   1.08871   0.27636    |
 |   325    0.16667   0.66667   0.40000   |    0.20952   1.08871   0.36848    |
 |   326    0.16667   0.66667   0.50000   |    0.20952   1.08871   0.46059    |
 |   327    0.16667   0.66667   0.60000   |    0.20952   1.08871   0.55271    |
 |   328    0.16667   0.66667   0.70000   |    0.20952   1.08871   0.64483    |
 |   329    0.16667   0.66667   0.80000   |    0.20952   1.08871   0.73695    |
 |   330    0.16667   0.66667   0.90000   |    0.20952   1.08871   0.82907    |
 |   331    0.16667   0.75000   0.00000   |    0.20952   1.20968   0.00000    |
 |   332    0.16667   0.75000   0.10000   |    0.20952   1.20968   0.09212    |
 |   333    0.16667   0.75000   0.20000   |    0.20952   1.20968   0.18424    |
 |   334    0.16667   0.75000   0.30000   |    0.20952   1.20968   0.27636    |
 |   335    0.16667   0.75000   0.40000   |    0.20952   1.20968   0.36848    |
 |   336    0.16667   0.75000   0.50000   |    0.20952   1.20968   0.46059    |
 |   337    0.16667   0.75000   0.60000   |    0.20952   1.20968   0.55271    |
 |   338    0.16667   0.75000   0.70000   |    0.20952   1.20968   0.64483    |
 |   339    0.16667   0.75000   0.80000   |    0.20952   1.20968   0.73695    |
 |   340    0.16667   0.75000   0.90000   |    0.20952   1.20968   0.82907    |
 |   341    0.16667   0.83333   0.00000   |    0.20952   1.33064   0.00000    |
 |   342    0.16667   0.83333   0.10000   |    0.20952   1.33064   0.09212    |
 |   343    0.16667   0.83333   0.20000   |    0.20952   1.33064   0.18424    |
 |   344    0.16667   0.83333   0.30000   |    0.20952   1.33064   0.27636    |
 |   345    0.16667   0.83333   0.40000   |    0.20952   1.33064   0.36848    |
 |   346    0.16667   0.83333   0.50000   |    0.20952   1.33064   0.46059    |
 |   347    0.16667   0.83333   0.60000   |    0.20952   1.33064   0.55271    |
 |   348    0.16667   0.83333   0.70000   |    0.20952   1.33064   0.64483    |
 |   349    0.16667   0.83333   0.80000   |    0.20952   1.33064   0.73695    |
 |   350    0.16667   0.83333   0.90000   |    0.20952   1.33064   0.82907    |
 |   351    0.16667   0.91667   0.00000   |    0.20952   1.45161   0.00000    |
 |   352    0.16667   0.91667   0.10000   |    0.20952   1.45161   0.09212    |
 |   353    0.16667   0.91667   0.20000   |    0.20952   1.45161   0.18424    |
 |   354    0.16667   0.91667   0.30000   |    0.20952   1.45161   0.27636    |
 |   355    0.16667   0.91667   0.40000   |    0.20952   1.45161   0.36848    |
 |   356    0.16667   0.91667   0.50000   |    0.20952   1.45161   0.46059    |
 |   357    0.16667   0.91667   0.60000   |    0.20952   1.45161   0.55271    |
 |   358    0.16667   0.91667   0.70000   |    0.20952   1.45161   0.64483    |
 |   359    0.16667   0.91667   0.80000   |    0.20952   1.45161   0.73695    |
 |   360    0.16667   0.91667   0.90000   |    0.20952   1.45161   0.82907    |
 |   361    0.25000   0.00000   0.00000   |    0.31428   0.18145   0.00000    |
 |   362    0.25000   0.00000   0.10000   |    0.31428   0.18145   0.09212    |
 |   363    0.25000   0.00000   0.20000   |    0.31428   0.18145   0.18424    |
 |   364    0.25000   0.00000   0.30000   |    0.31428   0.18145   0.27636    |
 |   365    0.25000   0.00000   0.40000   |    0.31428   0.18145   0.36848    |
 |   366    0.25000   0.00000   0.50000   |    0.31428   0.18145   0.46059    |
 |   367    0.25000   0.00000   0.60000   |    0.31428   0.18145   0.55271    |
 |   368    0.25000   0.00000   0.70000   |    0.31428   0.18145   0.64483    |
 |   369    0.25000   0.00000   0.80000   |    0.31428   0.18145   0.73695    |
 |   370    0.25000   0.00000   0.90000   |    0.31428   0.18145   0.82907    |
 |   371    0.25000   0.08333   0.00000   |    0.31428   0.30242   0.00000    |
 |   372    0.25000   0.08333   0.10000   |    0.31428   0.30242   0.09212    |
 |   373    0.25000   0.08333   0.20000   |    0.31428   0.30242   0.18424    |
 |   374    0.25000   0.08333   0.30000   |    0.31428   0.30242   0.27636    |
 |   375    0.25000   0.08333   0.40000   |    0.31428   0.30242   0.36848    |
 |   376    0.25000   0.08333   0.50000   |    0.31428   0.30242   0.46059    |
 |   377    0.25000   0.08333   0.60000   |    0.31428   0.30242   0.55271    |
 |   378    0.25000   0.08333   0.70000   |    0.31428   0.30242   0.64483    |
 |   379    0.25000   0.08333   0.80000   |    0.31428   0.30242   0.73695    |
 |   380    0.25000   0.08333   0.90000   |    0.31428   0.30242   0.82907    |
 |   381    0.25000   0.16667   0.00000   |    0.31428   0.42339   0.00000    |
 |   382    0.25000   0.16667   0.10000   |    0.31428   0.42339   0.09212    |
 |   383    0.25000   0.16667   0.20000   |    0.31428   0.42339   0.18424    |
 |   384    0.25000   0.16667   0.30000   |    0.31428   0.42339   0.27636    |
 |   385    0.25000   0.16667   0.40000   |    0.31428   0.42339   0.36848    |
 |   386    0.25000   0.16667   0.50000   |    0.31428   0.42339   0.46059    |
 |   387    0.25000   0.16667   0.60000   |    0.31428   0.42339   0.55271    |
 |   388    0.25000   0.16667   0.70000   |    0.31428   0.42339   0.64483    |
 |   389    0.25000   0.16667   0.80000   |    0.31428   0.42339   0.73695    |
 |   390    0.25000   0.16667   0.90000   |    0.31428   0.42339   0.82907    |
 |   391    0.25000   0.25000   0.00000   |    0.31428   0.54435   0.00000    |
 |   392    0.25000   0.25000   0.10000   |    0.31428   0.54435   0.09212    |
 |   393    0.25000   0.25000   0.20000   |    0.31428   0.54435   0.18424    |
 |   394    0.25000   0.25000   0.30000   |    0.31428   0.54435   0.27636    |
 |   395    0.25000   0.25000   0.40000   |    0.31428   0.54435   0.36848    |
 |   396    0.25000   0.25000   0.50000   |    0.31428   0.54435   0.46059    |
 |   397    0.25000   0.25000   0.60000   |    0.31428   0.54435   0.55271    |
 |   398    0.25000   0.25000   0.70000   |    0.31428   0.54435   0.64483    |
 |   399    0.25000   0.25000   0.80000   |    0.31428   0.54435   0.73695    |
 |   400    0.25000   0.25000   0.90000   |    0.31428   0.54435   0.82907    |
 |   401    0.25000   0.33333   0.00000   |    0.31428   0.66532   0.00000    |
 |   402    0.25000   0.33333   0.10000   |    0.31428   0.66532   0.09212    |
 |   403    0.25000   0.33333   0.20000   |    0.31428   0.66532   0.18424    |
 |   404    0.25000   0.33333   0.30000   |    0.31428   0.66532   0.27636    |
 |   405    0.25000   0.33333   0.40000   |    0.31428   0.66532   0.36848    |
 |   406    0.25000   0.33333   0.50000   |    0.31428   0.66532   0.46059    |
 |   407    0.25000   0.33333   0.60000   |    0.31428   0.66532   0.55271    |
 |   408    0.25000   0.33333   0.70000   |    0.31428   0.66532   0.64483    |
 |   409    0.25000   0.33333   0.80000   |    0.31428   0.66532   0.73695    |
 |   410    0.25000   0.33333   0.90000   |    0.31428   0.66532   0.82907    |
 |   411    0.25000   0.41667   0.00000   |    0.31428   0.78629   0.00000    |
 |   412    0.25000   0.41667   0.10000   |    0.31428   0.78629   0.09212    |
 |   413    0.25000   0.41667   0.20000   |    0.31428   0.78629   0.18424    |
 |   414    0.25000   0.41667   0.30000   |    0.31428   0.78629   0.27636    |
 |   415    0.25000   0.41667   0.40000   |    0.31428   0.78629   0.36848    |
 |   416    0.25000   0.41667   0.50000   |    0.31428   0.78629   0.46059    |
 |   417    0.25000   0.41667   0.60000   |    0.31428   0.78629   0.55271    |
 |   418    0.25000   0.41667   0.70000   |    0.31428   0.78629   0.64483    |
 |   419    0.25000   0.41667   0.80000   |    0.31428   0.78629   0.73695    |
 |   420    0.25000   0.41667   0.90000   |    0.31428   0.78629   0.82907    |
 |   421    0.25000   0.50000   0.00000   |    0.31428   0.90726   0.00000    |
 |   422    0.25000   0.50000   0.10000   |    0.31428   0.90726   0.09212    |
 |   423    0.25000   0.50000   0.20000   |    0.31428   0.90726   0.18424    |
 |   424    0.25000   0.50000   0.30000   |    0.31428   0.90726   0.27636    |
 |   425    0.25000   0.50000   0.40000   |    0.31428   0.90726   0.36848    |
 |   426    0.25000   0.50000   0.50000   |    0.31428   0.90726   0.46059    |
 |   427    0.25000   0.50000   0.60000   |    0.31428   0.90726   0.55271    |
 |   428    0.25000   0.50000   0.70000   |    0.31428   0.90726   0.64483    |
 |   429    0.25000   0.50000   0.80000   |    0.31428   0.90726   0.73695    |
 |   430    0.25000   0.50000   0.90000   |    0.31428   0.90726   0.82907    |
 |   431    0.25000   0.58333   0.00000   |    0.31428   1.02822   0.00000    |
 |   432    0.25000   0.58333   0.10000   |    0.31428   1.02822   0.09212    |
 |   433    0.25000   0.58333   0.20000   |    0.31428   1.02822   0.18424    |
 |   434    0.25000   0.58333   0.30000   |    0.31428   1.02822   0.27636    |
 |   435    0.25000   0.58333   0.40000   |    0.31428   1.02822   0.36848    |
 |   436    0.25000   0.58333   0.50000   |    0.31428   1.02822   0.46059    |
 |   437    0.25000   0.58333   0.60000   |    0.31428   1.02822   0.55271    |
 |   438    0.25000   0.58333   0.70000   |    0.31428   1.02822   0.64483    |
 |   439    0.25000   0.58333   0.80000   |    0.31428   1.02822   0.73695    |
 |   440    0.25000   0.58333   0.90000   |    0.31428   1.02822   0.82907    |
 |   441    0.25000   0.66667   0.00000   |    0.31428   1.14919   0.00000    |
 |   442    0.25000   0.66667   0.10000   |    0.31428   1.14919   0.09212    |
 |   443    0.25000   0.66667   0.20000   |    0.31428   1.14919   0.18424    |
 |   444    0.25000   0.66667   0.30000   |    0.31428   1.14919   0.27636    |
 |   445    0.25000   0.66667   0.40000   |    0.31428   1.14919   0.36848    |
 |   446    0.25000   0.66667   0.50000   |    0.31428   1.14919   0.46059    |
 |   447    0.25000   0.66667   0.60000   |    0.31428   1.14919   0.55271    |
 |   448    0.25000   0.66667   0.70000   |    0.31428   1.14919   0.64483    |
 |   449    0.25000   0.66667   0.80000   |    0.31428   1.14919   0.73695    |
 |   450    0.25000   0.66667   0.90000   |    0.31428   1.14919   0.82907    |
 |   451    0.25000   0.75000   0.00000   |    0.31428   1.27016   0.00000    |
 |   452    0.25000   0.75000   0.10000   |    0.31428   1.27016   0.09212    |
 |   453    0.25000   0.75000   0.20000   |    0.31428   1.27016   0.18424    |
 |   454    0.25000   0.75000   0.30000   |    0.31428   1.27016   0.27636    |
 |   455    0.25000   0.75000   0.40000   |    0.31428   1.27016   0.36848    |
 |   456    0.25000   0.75000   0.50000   |    0.31428   1.27016   0.46059    |
 |   457    0.25000   0.75000   0.60000   |    0.31428   1.27016   0.55271    |
 |   458    0.25000   0.75000   0.70000   |    0.31428   1.27016   0.64483    |
 |   459    0.25000   0.75000   0.80000   |    0.31428   1.27016   0.73695    |
 |   460    0.25000   0.75000   0.90000   |    0.31428   1.27016   0.82907    |
 |   461    0.25000   0.83333   0.00000   |    0.31428   1.39113   0.00000    |
 |   462    0.25000   0.83333   0.10000   |    0.31428   1.39113   0.09212    |
 |   463    0.25000   0.83333   0.20000   |    0.31428   1.39113   0.18424    |
 |   464    0.25000   0.83333   0.30000   |    0.31428   1.39113   0.27636    |
 |   465    0.25000   0.83333   0.40000   |    0.31428   1.39113   0.36848    |
 |   466    0.25000   0.83333   0.50000   |    0.31428   1.39113   0.46059    |
 |   467    0.25000   0.83333   0.60000   |    0.31428   1.39113   0.55271    |
 |   468    0.25000   0.83333   0.70000   |    0.31428   1.39113   0.64483    |
 |   469    0.25000   0.83333   0.80000   |    0.31428   1.39113   0.73695    |
 |   470    0.25000   0.83333   0.90000   |    0.31428   1.39113   0.82907    |
 |   471    0.25000   0.91667   0.00000   |    0.31428   1.51210   0.00000    |
 |   472    0.25000   0.91667   0.10000   |    0.31428   1.51210   0.09212    |
 |   473    0.25000   0.91667   0.20000   |    0.31428   1.51210   0.18424    |
 |   474    0.25000   0.91667   0.30000   |    0.31428   1.51210   0.27636    |
 |   475    0.25000   0.91667   0.40000   |    0.31428   1.51210   0.36848    |
 |   476    0.25000   0.91667   0.50000   |    0.31428   1.51210   0.46059    |
 |   477    0.25000   0.91667   0.60000   |    0.31428   1.51210   0.55271    |
 |   478    0.25000   0.91667   0.70000   |    0.31428   1.51210   0.64483    |
 |   479    0.25000   0.91667   0.80000   |    0.31428   1.51210   0.73695    |
 |   480    0.25000   0.91667   0.90000   |    0.31428   1.51210   0.82907    |
 |   481    0.33333   0.00000   0.00000   |    0.41904   0.24194   0.00000    |
 |   482    0.33333   0.00000   0.10000   |    0.41904   0.24194   0.09212    |
 |   483    0.33333   0.00000   0.20000   |    0.41904   0.24194   0.18424    |
 |   484    0.33333   0.00000   0.30000   |    0.41904   0.24194   0.27636    |
 |   485    0.33333   0.00000   0.40000   |    0.41904   0.24194   0.36848    |
 |   486    0.33333   0.00000   0.50000   |    0.41904   0.24194   0.46059    |
 |   487    0.33333   0.00000   0.60000   |    0.41904   0.24194   0.55271    |
 |   488    0.33333   0.00000   0.70000   |    0.41904   0.24194   0.64483    |
 |   489    0.33333   0.00000   0.80000   |    0.41904   0.24194   0.73695    |
 |   490    0.33333   0.00000   0.90000   |    0.41904   0.24194   0.82907    |
 |   491    0.33333   0.08333   0.00000   |    0.41904   0.36290   0.00000    |
 |   492    0.33333   0.08333   0.10000   |    0.41904   0.36290   0.09212    |
 |   493    0.33333   0.08333   0.20000   |    0.41904   0.36290   0.18424    |
 |   494    0.33333   0.08333   0.30000   |    0.41904   0.36290   0.27636    |
 |   495    0.33333   0.08333   0.40000   |    0.41904   0.36290   0.36848    |
 |   496    0.33333   0.08333   0.50000   |    0.41904   0.36290   0.46059    |
 |   497    0.33333   0.08333   0.60000   |    0.41904   0.36290   0.55271    |
 |   498    0.33333   0.08333   0.70000   |    0.41904   0.36290   0.64483    |
 |   499    0.33333   0.08333   0.80000   |    0.41904   0.36290   0.73695    |
 |   500    0.33333   0.08333   0.90000   |    0.41904   0.36290   0.82907    |
 |   501    0.33333   0.16667   0.00000   |    0.41904   0.48387   0.00000    |
 |   502    0.33333   0.16667   0.10000   |    0.41904   0.48387   0.09212    |
 |   503    0.33333   0.16667   0.20000   |    0.41904   0.48387   0.18424    |
 |   504    0.33333   0.16667   0.30000   |    0.41904   0.48387   0.27636    |
 |   505    0.33333   0.16667   0.40000   |    0.41904   0.48387   0.36848    |
 |   506    0.33333   0.16667   0.50000   |    0.41904   0.48387   0.46059    |
 |   507    0.33333   0.16667   0.60000   |    0.41904   0.48387   0.55271    |
 |   508    0.33333   0.16667   0.70000   |    0.41904   0.48387   0.64483    |
 |   509    0.33333   0.16667   0.80000   |    0.41904   0.48387   0.73695    |
 |   510    0.33333   0.16667   0.90000   |    0.41904   0.48387   0.82907    |
 |   511    0.33333   0.25000   0.00000   |    0.41904   0.60484   0.00000    |
 |   512    0.33333   0.25000   0.10000   |    0.41904   0.60484   0.09212    |
 |   513    0.33333   0.25000   0.20000   |    0.41904   0.60484   0.18424    |
 |   514    0.33333   0.25000   0.30000   |    0.41904   0.60484   0.27636    |
 |   515    0.33333   0.25000   0.40000   |    0.41904   0.60484   0.36848    |
 |   516    0.33333   0.25000   0.50000   |    0.41904   0.60484   0.46059    |
 |   517    0.33333   0.25000   0.60000   |    0.41904   0.60484   0.55271    |
 |   518    0.33333   0.25000   0.70000   |    0.41904   0.60484   0.64483    |
 |   519    0.33333   0.25000   0.80000   |    0.41904   0.60484   0.73695    |
 |   520    0.33333   0.25000   0.90000   |    0.41904   0.60484   0.82907    |
 |   521    0.33333   0.33333   0.00000   |    0.41904   0.72581   0.00000    |
 |   522    0.33333   0.33333   0.10000   |    0.41904   0.72581   0.09212    |
 |   523    0.33333   0.33333   0.20000   |    0.41904   0.72581   0.18424    |
 |   524    0.33333   0.33333   0.30000   |    0.41904   0.72581   0.27636    |
 |   525    0.33333   0.33333   0.40000   |    0.41904   0.72581   0.36848    |
 |   526    0.33333   0.33333   0.50000   |    0.41904   0.72581   0.46059    |
 |   527    0.33333   0.33333   0.60000   |    0.41904   0.72581   0.55271    |
 |   528    0.33333   0.33333   0.70000   |    0.41904   0.72581   0.64483    |
 |   529    0.33333   0.33333   0.80000   |    0.41904   0.72581   0.73695    |
 |   530    0.33333   0.33333   0.90000   |    0.41904   0.72581   0.82907    |
 |   531    0.33333   0.41667   0.00000   |    0.41904   0.84677   0.00000    |
 |   532    0.33333   0.41667   0.10000   |    0.41904   0.84677   0.09212    |
 |   533    0.33333   0.41667   0.20000   |    0.41904   0.84677   0.18424    |
 |   534    0.33333   0.41667   0.30000   |    0.41904   0.84677   0.27636    |
 |   535    0.33333   0.41667   0.40000   |    0.41904   0.84677   0.36848    |
 |   536    0.33333   0.41667   0.50000   |    0.41904   0.84677   0.46059    |
 |   537    0.33333   0.41667   0.60000   |    0.41904   0.84677   0.55271    |
 |   538    0.33333   0.41667   0.70000   |    0.41904   0.84677   0.64483    |
 |   539    0.33333   0.41667   0.80000   |    0.41904   0.84677   0.73695    |
 |   540    0.33333   0.41667   0.90000   |    0.41904   0.84677   0.82907    |
 |   541    0.33333   0.50000   0.00000   |    0.41904   0.96774   0.00000    |
 |   542    0.33333   0.50000   0.10000   |    0.41904   0.96774   0.09212    |
 |   543    0.33333   0.50000   0.20000   |    0.41904   0.96774   0.18424    |
 |   544    0.33333   0.50000   0.30000   |    0.41904   0.96774   0.27636    |
 |   545    0.33333   0.50000   0.40000   |    0.41904   0.96774   0.36848    |
 |   546    0.33333   0.50000   0.50000   |    0.41904   0.96774   0.46059    |
 |   547    0.33333   0.50000   0.60000   |    0.41904   0.96774   0.55271    |
 |   548    0.33333   0.50000   0.70000   |    0.41904   0.96774   0.64483    |
 |   549    0.33333   0.50000   0.80000   |    0.41904   0.96774   0.73695    |
 |   550    0.33333   0.50000   0.90000   |    0.41904   0.96774   0.82907    |
 |   551    0.33333   0.58333   0.00000   |    0.41904   1.08871   0.00000    |
 |   552    0.33333   0.58333   0.10000   |    0.41904   1.08871   0.09212    |
 |   553    0.33333   0.58333   0.20000   |    0.41904   1.08871   0.18424    |
 |   554    0.33333   0.58333   0.30000   |    0.41904   1.08871   0.27636    |
 |   555    0.33333   0.58333   0.40000   |    0.41904   1.08871   0.36848    |
 |   556    0.33333   0.58333   0.50000   |    0.41904   1.08871   0.46059    |
 |   557    0.33333   0.58333   0.60000   |    0.41904   1.08871   0.55271    |
 |   558    0.33333   0.58333   0.70000   |    0.41904   1.08871   0.64483    |
 |   559    0.33333   0.58333   0.80000   |    0.41904   1.08871   0.73695    |
 |   560    0.33333   0.58333   0.90000   |    0.41904   1.08871   0.82907    |
 |   561    0.33333   0.66667   0.00000   |    0.41904   1.20968   0.00000    |
 |   562    0.33333   0.66667   0.10000   |    0.41904   1.20968   0.09212    |
 |   563    0.33333   0.66667   0.20000   |    0.41904   1.20968   0.18424    |
 |   564    0.33333   0.66667   0.30000   |    0.41904   1.20968   0.27636    |
 |   565    0.33333   0.66667   0.40000   |    0.41904   1.20968   0.36848    |
 |   566    0.33333   0.66667   0.50000   |    0.41904   1.20968   0.46059    |
 |   567    0.33333   0.66667   0.60000   |    0.41904   1.20968   0.55271    |
 |   568    0.33333   0.66667   0.70000   |    0.41904   1.20968   0.64483    |
 |   569    0.33333   0.66667   0.80000   |    0.41904   1.20968   0.73695    |
 |   570    0.33333   0.66667   0.90000   |    0.41904   1.20968   0.82907    |
 |   571    0.33333   0.75000   0.00000   |    0.41904   1.33064   0.00000    |
 |   572    0.33333   0.75000   0.10000   |    0.41904   1.33064   0.09212    |
 |   573    0.33333   0.75000   0.20000   |    0.41904   1.33064   0.18424    |
 |   574    0.33333   0.75000   0.30000   |    0.41904   1.33064   0.27636    |
 |   575    0.33333   0.75000   0.40000   |    0.41904   1.33064   0.36848    |
 |   576    0.33333   0.75000   0.50000   |    0.41904   1.33064   0.46059    |
 |   577    0.33333   0.75000   0.60000   |    0.41904   1.33064   0.55271    |
 |   578    0.33333   0.75000   0.70000   |    0.41904   1.33064   0.64483    |
 |   579    0.33333   0.75000   0.80000   |    0.41904   1.33064   0.73695    |
 |   580    0.33333   0.75000   0.90000   |    0.41904   1.33064   0.82907    |
 |   581    0.33333   0.83333   0.00000   |    0.41904   1.45161   0.00000    |
 |   582    0.33333   0.83333   0.10000   |    0.41904   1.45161   0.09212    |
 |   583    0.33333   0.83333   0.20000   |    0.41904   1.45161   0.18424    |
 |   584    0.33333   0.83333   0.30000   |    0.41904   1.45161   0.27636    |
 |   585    0.33333   0.83333   0.40000   |    0.41904   1.45161   0.36848    |
 |   586    0.33333   0.83333   0.50000   |    0.41904   1.45161   0.46059    |
 |   587    0.33333   0.83333   0.60000   |    0.41904   1.45161   0.55271    |
 |   588    0.33333   0.83333   0.70000   |    0.41904   1.45161   0.64483    |
 |   589    0.33333   0.83333   0.80000   |    0.41904   1.45161   0.73695    |
 |   590    0.33333   0.83333   0.90000   |    0.41904   1.45161   0.82907    |
 |   591    0.33333   0.91667   0.00000   |    0.41904   1.57258   0.00000    |
 |   592    0.33333   0.91667   0.10000   |    0.41904   1.57258   0.09212    |
 |   593    0.33333   0.91667   0.20000   |    0.41904   1.57258   0.18424    |
 |   594    0.33333   0.91667   0.30000   |    0.41904   1.57258   0.27636    |
 |   595    0.33333   0.91667   0.40000   |    0.41904   1.57258   0.36848    |
 |   596    0.33333   0.91667   0.50000   |    0.41904   1.57258   0.46059    |
 |   597    0.33333   0.91667   0.60000   |    0.41904   1.57258   0.55271    |
 |   598    0.33333   0.91667   0.70000   |    0.41904   1.57258   0.64483    |
 |   599    0.33333   0.91667   0.80000   |    0.41904   1.57258   0.73695    |
 |   600    0.33333   0.91667   0.90000   |    0.41904   1.57258   0.82907    |
 |   601    0.41667   0.00000   0.00000   |    0.52381   0.30242   0.00000    |
 |   602    0.41667   0.00000   0.10000   |    0.52381   0.30242   0.09212    |
 |   603    0.41667   0.00000   0.20000   |    0.52381   0.30242   0.18424    |
 |   604    0.41667   0.00000   0.30000   |    0.52381   0.30242   0.27636    |
 |   605    0.41667   0.00000   0.40000   |    0.52381   0.30242   0.36848    |
 |   606    0.41667   0.00000   0.50000   |    0.52381   0.30242   0.46059    |
 |   607    0.41667   0.00000   0.60000   |    0.52381   0.30242   0.55271    |
 |   608    0.41667   0.00000   0.70000   |    0.52381   0.30242   0.64483    |
 |   609    0.41667   0.00000   0.80000   |    0.52381   0.30242   0.73695    |
 |   610    0.41667   0.00000   0.90000   |    0.52381   0.30242   0.82907    |
 |   611    0.41667   0.08333   0.00000   |    0.52381   0.42339   0.00000    |
 |   612    0.41667   0.08333   0.10000   |    0.52381   0.42339   0.09212    |
 |   613    0.41667   0.08333   0.20000   |    0.52381   0.42339   0.18424    |
 |   614    0.41667   0.08333   0.30000   |    0.52381   0.42339   0.27636    |
 |   615    0.41667   0.08333   0.40000   |    0.52381   0.42339   0.36848    |
 |   616    0.41667   0.08333   0.50000   |    0.52381   0.42339   0.46059    |
 |   617    0.41667   0.08333   0.60000   |    0.52381   0.42339   0.55271    |
 |   618    0.41667   0.08333   0.70000   |    0.52381   0.42339   0.64483    |
 |   619    0.41667   0.08333   0.80000   |    0.52381   0.42339   0.73695    |
 |   620    0.41667   0.08333   0.90000   |    0.52381   0.42339   0.82907    |
 |   621    0.41667   0.16667   0.00000   |    0.52381   0.54435   0.00000    |
 |   622    0.41667   0.16667   0.10000   |    0.52381   0.54435   0.09212    |
 |   623    0.41667   0.16667   0.20000   |    0.52381   0.54435   0.18424    |
 |   624    0.41667   0.16667   0.30000   |    0.52381   0.54435   0.27636    |
 |   625    0.41667   0.16667   0.40000   |    0.52381   0.54435   0.36848    |
 |   626    0.41667   0.16667   0.50000   |    0.52381   0.54435   0.46059    |
 |   627    0.41667   0.16667   0.60000   |    0.52381   0.54435   0.55271    |
 |   628    0.41667   0.16667   0.70000   |    0.52381   0.54435   0.64483    |
 |   629    0.41667   0.16667   0.80000   |    0.52381   0.54435   0.73695    |
 |   630    0.41667   0.16667   0.90000   |    0.52381   0.54435   0.82907    |
 |   631    0.41667   0.25000   0.00000   |    0.52381   0.66532   0.00000    |
 |   632    0.41667   0.25000   0.10000   |    0.52381   0.66532   0.09212    |
 |   633    0.41667   0.25000   0.20000   |    0.52381   0.66532   0.18424    |
 |   634    0.41667   0.25000   0.30000   |    0.52381   0.66532   0.27636    |
 |   635    0.41667   0.25000   0.40000   |    0.52381   0.66532   0.36848    |
 |   636    0.41667   0.25000   0.50000   |    0.52381   0.66532   0.46059    |
 |   637    0.41667   0.25000   0.60000   |    0.52381   0.66532   0.55271    |
 |   638    0.41667   0.25000   0.70000   |    0.52381   0.66532   0.64483    |
 |   639    0.41667   0.25000   0.80000   |    0.52381   0.66532   0.73695    |
 |   640    0.41667   0.25000   0.90000   |    0.52381   0.66532   0.82907    |
 |   641    0.41667   0.33333   0.00000   |    0.52381   0.78629   0.00000    |
 |   642    0.41667   0.33333   0.10000   |    0.52381   0.78629   0.09212    |
 |   643    0.41667   0.33333   0.20000   |    0.52381   0.78629   0.18424    |
 |   644    0.41667   0.33333   0.30000   |    0.52381   0.78629   0.27636    |
 |   645    0.41667   0.33333   0.40000   |    0.52381   0.78629   0.36848    |
 |   646    0.41667   0.33333   0.50000   |    0.52381   0.78629   0.46059    |
 |   647    0.41667   0.33333   0.60000   |    0.52381   0.78629   0.55271    |
 |   648    0.41667   0.33333   0.70000   |    0.52381   0.78629   0.64483    |
 |   649    0.41667   0.33333   0.80000   |    0.52381   0.78629   0.73695    |
 |   650    0.41667   0.33333   0.90000   |    0.52381   0.78629   0.82907    |
 |   651    0.41667   0.41667   0.00000   |    0.52381   0.90726   0.00000    |
 |   652    0.41667   0.41667   0.10000   |    0.52381   0.90726   0.09212    |
 |   653    0.41667   0.41667   0.20000   |    0.52381   0.90726   0.18424    |
 |   654    0.41667   0.41667   0.30000   |    0.52381   0.90726   0.27636    |
 |   655    0.41667   0.41667   0.40000   |    0.52381   0.90726   0.36848    |
 |   656    0.41667   0.41667   0.50000   |    0.52381   0.90726   0.46059    |
 |   657    0.41667   0.41667   0.60000   |    0.52381   0.90726   0.55271    |
 |   658    0.41667   0.41667   0.70000   |    0.52381   0.90726   0.64483    |
 |   659    0.41667   0.41667   0.80000   |    0.52381   0.90726   0.73695    |
 |   660    0.41667   0.41667   0.90000   |    0.52381   0.90726   0.82907    |
 |   661    0.41667   0.50000   0.00000   |    0.52381   1.02822   0.00000    |
 |   662    0.41667   0.50000   0.10000   |    0.52381   1.02822   0.09212    |
 |   663    0.41667   0.50000   0.20000   |    0.52381   1.02822   0.18424    |
 |   664    0.41667   0.50000   0.30000   |    0.52381   1.02822   0.27636    |
 |   665    0.41667   0.50000   0.40000   |    0.52381   1.02822   0.36848    |
 |   666    0.41667   0.50000   0.50000   |    0.52381   1.02822   0.46059    |
 |   667    0.41667   0.50000   0.60000   |    0.52381   1.02822   0.55271    |
 |   668    0.41667   0.50000   0.70000   |    0.52381   1.02822   0.64483    |
 |   669    0.41667   0.50000   0.80000   |    0.52381   1.02822   0.73695    |
 |   670    0.41667   0.50000   0.90000   |    0.52381   1.02822   0.82907    |
 |   671    0.41667   0.58333   0.00000   |    0.52381   1.14919   0.00000    |
 |   672    0.41667   0.58333   0.10000   |    0.52381   1.14919   0.09212    |
 |   673    0.41667   0.58333   0.20000   |    0.52381   1.14919   0.18424    |
 |   674    0.41667   0.58333   0.30000   |    0.52381   1.14919   0.27636    |
 |   675    0.41667   0.58333   0.40000   |    0.52381   1.14919   0.36848    |
 |   676    0.41667   0.58333   0.50000   |    0.52381   1.14919   0.46059    |
 |   677    0.41667   0.58333   0.60000   |    0.52381   1.14919   0.55271    |
 |   678    0.41667   0.58333   0.70000   |    0.52381   1.14919   0.64483    |
 |   679    0.41667   0.58333   0.80000   |    0.52381   1.14919   0.73695    |
 |   680    0.41667   0.58333   0.90000   |    0.52381   1.14919   0.82907    |
 |   681    0.41667   0.66667   0.00000   |    0.52381   1.27016   0.00000    |
 |   682    0.41667   0.66667   0.10000   |    0.52381   1.27016   0.09212    |
 |   683    0.41667   0.66667   0.20000   |    0.52381   1.27016   0.18424    |
 |   684    0.41667   0.66667   0.30000   |    0.52381   1.27016   0.27636    |
 |   685    0.41667   0.66667   0.40000   |    0.52381   1.27016   0.36848    |
 |   686    0.41667   0.66667   0.50000   |    0.52381   1.27016   0.46059    |
 |   687    0.41667   0.66667   0.60000   |    0.52381   1.27016   0.55271    |
 |   688    0.41667   0.66667   0.70000   |    0.52381   1.27016   0.64483    |
 |   689    0.41667   0.66667   0.80000   |    0.52381   1.27016   0.73695    |
 |   690    0.41667   0.66667   0.90000   |    0.52381   1.27016   0.82907    |
 |   691    0.41667   0.75000   0.00000   |    0.52381   1.39113   0.00000    |
 |   692    0.41667   0.75000   0.10000   |    0.52381   1.39113   0.09212    |
 |   693    0.41667   0.75000   0.20000   |    0.52381   1.39113   0.18424    |
 |   694    0.41667   0.75000   0.30000   |    0.52381   1.39113   0.27636    |
 |   695    0.41667   0.75000   0.40000   |    0.52381   1.39113   0.36848    |
 |   696    0.41667   0.75000   0.50000   |    0.52381   1.39113   0.46059    |
 |   697    0.41667   0.75000   0.60000   |    0.52381   1.39113   0.55271    |
 |   698    0.41667   0.75000   0.70000   |    0.52381   1.39113   0.64483    |
 |   699    0.41667   0.75000   0.80000   |    0.52381   1.39113   0.73695    |
 |   700    0.41667   0.75000   0.90000   |    0.52381   1.39113   0.82907    |
 |   701    0.41667   0.83333   0.00000   |    0.52381   1.51210   0.00000    |
 |   702    0.41667   0.83333   0.10000   |    0.52381   1.51210   0.09212    |
 |   703    0.41667   0.83333   0.20000   |    0.52381   1.51210   0.18424    |
 |   704    0.41667   0.83333   0.30000   |    0.52381   1.51210   0.27636    |
 |   705    0.41667   0.83333   0.40000   |    0.52381   1.51210   0.36848    |
 |   706    0.41667   0.83333   0.50000   |    0.52381   1.51210   0.46059    |
 |   707    0.41667   0.83333   0.60000   |    0.52381   1.51210   0.55271    |
 |   708    0.41667   0.83333   0.70000   |    0.52381   1.51210   0.64483    |
 |   709    0.41667   0.83333   0.80000   |    0.52381   1.51210   0.73695    |
 |   710    0.41667   0.83333   0.90000   |    0.52381   1.51210   0.82907    |
 |   711    0.41667   0.91667   0.00000   |    0.52381   1.63306   0.00000    |
 |   712    0.41667   0.91667   0.10000   |    0.52381   1.63306   0.09212    |
 |   713    0.41667   0.91667   0.20000   |    0.52381   1.63306   0.18424    |
 |   714    0.41667   0.91667   0.30000   |    0.52381   1.63306   0.27636    |
 |   715    0.41667   0.91667   0.40000   |    0.52381   1.63306   0.36848    |
 |   716    0.41667   0.91667   0.50000   |    0.52381   1.63306   0.46059    |
 |   717    0.41667   0.91667   0.60000   |    0.52381   1.63306   0.55271    |
 |   718    0.41667   0.91667   0.70000   |    0.52381   1.63306   0.64483    |
 |   719    0.41667   0.91667   0.80000   |    0.52381   1.63306   0.73695    |
 |   720    0.41667   0.91667   0.90000   |    0.52381   1.63306   0.82907    |
 |   721    0.50000   0.00000   0.00000   |    0.62857   0.36290   0.00000    |
 |   722    0.50000   0.00000   0.10000   |    0.62857   0.36290   0.09212    |
 |   723    0.50000   0.00000   0.20000   |    0.62857   0.36290   0.18424    |
 |   724    0.50000   0.00000   0.30000   |    0.62857   0.36290   0.27636    |
 |   725    0.50000   0.00000   0.40000   |    0.62857   0.36290   0.36848    |
 |   726    0.50000   0.00000   0.50000   |    0.62857   0.36290   0.46059    |
 |   727    0.50000   0.00000   0.60000   |    0.62857   0.36290   0.55271    |
 |   728    0.50000   0.00000   0.70000   |    0.62857   0.36290   0.64483    |
 |   729    0.50000   0.00000   0.80000   |    0.62857   0.36290   0.73695    |
 |   730    0.50000   0.00000   0.90000   |    0.62857   0.36290   0.82907    |
 |   731    0.50000   0.08333   0.00000   |    0.62857   0.48387   0.00000    |
 |   732    0.50000   0.08333   0.10000   |    0.62857   0.48387   0.09212    |
 |   733    0.50000   0.08333   0.20000   |    0.62857   0.48387   0.18424    |
 |   734    0.50000   0.08333   0.30000   |    0.62857   0.48387   0.27636    |
 |   735    0.50000   0.08333   0.40000   |    0.62857   0.48387   0.36848    |
 |   736    0.50000   0.08333   0.50000   |    0.62857   0.48387   0.46059    |
 |   737    0.50000   0.08333   0.60000   |    0.62857   0.48387   0.55271    |
 |   738    0.50000   0.08333   0.70000   |    0.62857   0.48387   0.64483    |
 |   739    0.50000   0.08333   0.80000   |    0.62857   0.48387   0.73695    |
 |   740    0.50000   0.08333   0.90000   |    0.62857   0.48387   0.82907    |
 |   741    0.50000   0.16667   0.00000   |    0.62857   0.60484   0.00000    |
 |   742    0.50000   0.16667   0.10000   |    0.62857   0.60484   0.09212    |
 |   743    0.50000   0.16667   0.20000   |    0.62857   0.60484   0.18424    |
 |   744    0.50000   0.16667   0.30000   |    0.62857   0.60484   0.27636    |
 |   745    0.50000   0.16667   0.40000   |    0.62857   0.60484   0.36848    |
 |   746    0.50000   0.16667   0.50000   |    0.62857   0.60484   0.46059    |
 |   747    0.50000   0.16667   0.60000   |    0.62857   0.60484   0.55271    |
 |   748    0.50000   0.16667   0.70000   |    0.62857   0.60484   0.64483    |
 |   749    0.50000   0.16667   0.80000   |    0.62857   0.60484   0.73695    |
 |   750    0.50000   0.16667   0.90000   |    0.62857   0.60484   0.82907    |
 |   751    0.50000   0.25000   0.00000   |    0.62857   0.72581   0.00000    |
 |   752    0.50000   0.25000   0.10000   |    0.62857   0.72581   0.09212    |
 |   753    0.50000   0.25000   0.20000   |    0.62857   0.72581   0.18424    |
 |   754    0.50000   0.25000   0.30000   |    0.62857   0.72581   0.27636    |
 |   755    0.50000   0.25000   0.40000   |    0.62857   0.72581   0.36848    |
 |   756    0.50000   0.25000   0.50000   |    0.62857   0.72581   0.46059    |
 |   757    0.50000   0.25000   0.60000   |    0.62857   0.72581   0.55271    |
 |   758    0.50000   0.25000   0.70000   |    0.62857   0.72581   0.64483    |
 |   759    0.50000   0.25000   0.80000   |    0.62857   0.72581   0.73695    |
 |   760    0.50000   0.25000   0.90000   |    0.62857   0.72581   0.82907    |
 |   761    0.50000   0.33333   0.00000   |    0.62857   0.84677   0.00000    |
 |   762    0.50000   0.33333   0.10000   |    0.62857   0.84677   0.09212    |
 |   763    0.50000   0.33333   0.20000   |    0.62857   0.84677   0.18424    |
 |   764    0.50000   0.33333   0.30000   |    0.62857   0.84677   0.27636    |
 |   765    0.50000   0.33333   0.40000   |    0.62857   0.84677   0.36848    |
 |   766    0.50000   0.33333   0.50000   |    0.62857   0.84677   0.46059    |
 |   767    0.50000   0.33333   0.60000   |    0.62857   0.84677   0.55271    |
 |   768    0.50000   0.33333   0.70000   |    0.62857   0.84677   0.64483    |
 |   769    0.50000   0.33333   0.80000   |    0.62857   0.84677   0.73695    |
 |   770    0.50000   0.33333   0.90000   |    0.62857   0.84677   0.82907    |
 |   771    0.50000   0.41667   0.00000   |    0.62857   0.96774   0.00000    |
 |   772    0.50000   0.41667   0.10000   |    0.62857   0.96774   0.09212    |
 |   773    0.50000   0.41667   0.20000   |    0.62857   0.96774   0.18424    |
 |   774    0.50000   0.41667   0.30000   |    0.62857   0.96774   0.27636    |
 |   775    0.50000   0.41667   0.40000   |    0.62857   0.96774   0.36848    |
 |   776    0.50000   0.41667   0.50000   |    0.62857   0.96774   0.46059    |
 |   777    0.50000   0.41667   0.60000   |    0.62857   0.96774   0.55271    |
 |   778    0.50000   0.41667   0.70000   |    0.62857   0.96774   0.64483    |
 |   779    0.50000   0.41667   0.80000   |    0.62857   0.96774   0.73695    |
 |   780    0.50000   0.41667   0.90000   |    0.62857   0.96774   0.82907    |
 |   781    0.50000   0.50000   0.00000   |    0.62857   1.08871   0.00000    |
 |   782    0.50000   0.50000   0.10000   |    0.62857   1.08871   0.09212    |
 |   783    0.50000   0.50000   0.20000   |    0.62857   1.08871   0.18424    |
 |   784    0.50000   0.50000   0.30000   |    0.62857   1.08871   0.27636    |
 |   785    0.50000   0.50000   0.40000   |    0.62857   1.08871   0.36848    |
 |   786    0.50000   0.50000   0.50000   |    0.62857   1.08871   0.46059    |
 |   787    0.50000   0.50000   0.60000   |    0.62857   1.08871   0.55271    |
 |   788    0.50000   0.50000   0.70000   |    0.62857   1.08871   0.64483    |
 |   789    0.50000   0.50000   0.80000   |    0.62857   1.08871   0.73695    |
 |   790    0.50000   0.50000   0.90000   |    0.62857   1.08871   0.82907    |
 |   791    0.50000   0.58333   0.00000   |    0.62857   1.20968   0.00000    |
 |   792    0.50000   0.58333   0.10000   |    0.62857   1.20968   0.09212    |
 |   793    0.50000   0.58333   0.20000   |    0.62857   1.20968   0.18424    |
 |   794    0.50000   0.58333   0.30000   |    0.62857   1.20968   0.27636    |
 |   795    0.50000   0.58333   0.40000   |    0.62857   1.20968   0.36848    |
 |   796    0.50000   0.58333   0.50000   |    0.62857   1.20968   0.46059    |
 |   797    0.50000   0.58333   0.60000   |    0.62857   1.20968   0.55271    |
 |   798    0.50000   0.58333   0.70000   |    0.62857   1.20968   0.64483    |
 |   799    0.50000   0.58333   0.80000   |    0.62857   1.20968   0.73695    |
 |   800    0.50000   0.58333   0.90000   |    0.62857   1.20968   0.82907    |
 |   801    0.50000   0.66667   0.00000   |    0.62857   1.33064   0.00000    |
 |   802    0.50000   0.66667   0.10000   |    0.62857   1.33064   0.09212    |
 |   803    0.50000   0.66667   0.20000   |    0.62857   1.33064   0.18424    |
 |   804    0.50000   0.66667   0.30000   |    0.62857   1.33064   0.27636    |
 |   805    0.50000   0.66667   0.40000   |    0.62857   1.33064   0.36848    |
 |   806    0.50000   0.66667   0.50000   |    0.62857   1.33064   0.46059    |
 |   807    0.50000   0.66667   0.60000   |    0.62857   1.33064   0.55271    |
 |   808    0.50000   0.66667   0.70000   |    0.62857   1.33064   0.64483    |
 |   809    0.50000   0.66667   0.80000   |    0.62857   1.33064   0.73695    |
 |   810    0.50000   0.66667   0.90000   |    0.62857   1.33064   0.82907    |
 |   811    0.50000   0.75000   0.00000   |    0.62857   1.45161   0.00000    |
 |   812    0.50000   0.75000   0.10000   |    0.62857   1.45161   0.09212    |
 |   813    0.50000   0.75000   0.20000   |    0.62857   1.45161   0.18424    |
 |   814    0.50000   0.75000   0.30000   |    0.62857   1.45161   0.27636    |
 |   815    0.50000   0.75000   0.40000   |    0.62857   1.45161   0.36848    |
 |   816    0.50000   0.75000   0.50000   |    0.62857   1.45161   0.46059    |
 |   817    0.50000   0.75000   0.60000   |    0.62857   1.45161   0.55271    |
 |   818    0.50000   0.75000   0.70000   |    0.62857   1.45161   0.64483    |
 |   819    0.50000   0.75000   0.80000   |    0.62857   1.45161   0.73695    |
 |   820    0.50000   0.75000   0.90000   |    0.62857   1.45161   0.82907    |
 |   821    0.50000   0.83333   0.00000   |    0.62857   1.57258   0.00000    |
 |   822    0.50000   0.83333   0.10000   |    0.62857   1.57258   0.09212    |
 |   823    0.50000   0.83333   0.20000   |    0.62857   1.57258   0.18424    |
 |   824    0.50000   0.83333   0.30000   |    0.62857   1.57258   0.27636    |
 |   825    0.50000   0.83333   0.40000   |    0.62857   1.57258   0.36848    |
 |   826    0.50000   0.83333   0.50000   |    0.62857   1.57258   0.46059    |
 |   827    0.50000   0.83333   0.60000   |    0.62857   1.57258   0.55271    |
 |   828    0.50000   0.83333   0.70000   |    0.62857   1.57258   0.64483    |
 |   829    0.50000   0.83333   0.80000   |    0.62857   1.57258   0.73695    |
 |   830    0.50000   0.83333   0.90000   |    0.62857   1.57258   0.82907    |
 |   831    0.50000   0.91667   0.00000   |    0.62857   1.69355   0.00000    |
 |   832    0.50000   0.91667   0.10000   |    0.62857   1.69355   0.09212    |
 |   833    0.50000   0.91667   0.20000   |    0.62857   1.69355   0.18424    |
 |   834    0.50000   0.91667   0.30000   |    0.62857   1.69355   0.27636    |
[...]
  WF centre and spread   56  (  2.499015, -0.000000,  3.410476 )     2.21857262
  WF centre and spread   57  ( -1.249507,  2.164210,  1.138183 )     2.63141616
  WF centre and spread   58  ( -1.249507,  2.164210,  1.137810 )     2.62970642
  WF centre and spread   59  ( -1.249508,  2.164210,  1.115674 )     2.25490237
  WF centre and spread   60  ( -1.249507,  2.164210,  1.116113 )     2.25196464
  WF centre and spread   61  ( -1.249507,  2.164210,  1.156335 )     2.50182584
  WF centre and spread   62  ( -1.249508,  2.164210,  1.156501 )     2.50207740
  WF centre and spread   63  ( -1.249507,  2.164210,  1.133794 )     2.23311709
  WF centre and spread   64  ( -1.249507,  2.164210,  1.133735 )     2.23351290
  WF centre and spread   65  ( -1.249507,  2.164210,  1.139492 )     2.25605406
  WF centre and spread   66  ( -1.249507,  2.164210,  1.139463 )     2.25587459
  Sum of centres and spreads ( 69.972418,121.195782,225.100308 )   251.08096207
 
     98    -0.748E-04     0.0064652523      251.0810070751     166.81  <-- CONV
        O_D=      0.4842568 O_OD=     31.5571387 O_TOT=    251.0810071 <-- SPRD
 Delta: O_D= -0.1361160E-03 O_OD=  0.6131441E-04 O_TOT= -0.7480154E-04 <-- DLTA
 ------------------------------------------------------------------------------
 Cycle:     99
  WF centre and spread    1  (  1.207087,  3.575335,  1.135859 )     5.59046949
  WF centre and spread    2  (  1.207700,  3.574677,  1.138401 )     5.59846289
  WF centre and spread    3  (  1.279766,  3.596200,  1.083798 )     4.49829004
  WF centre and spread    4  (  1.279719,  3.596236,  1.084067 )     4.48971514
  WF centre and spread    5  (  1.249907,  3.635976,  1.187595 )     4.87594331
  WF centre and spread    6  (  1.249756,  3.636908,  1.188275 )     4.87649325
  WF centre and spread    7  (  2.495764,  2.829581,  3.410254 )     5.49249942
  WF centre and spread    8  (  2.496482,  2.829630,  3.412355 )     5.48458404
  WF centre and spread    9  (  2.498815,  2.894973,  3.410572 )     5.24785267
  WF centre and spread   10  (  2.498417,  2.894666,  3.412412 )     5.24891731
  WF centre and spread   11  (  2.499399,  2.912492,  3.410239 )     4.26957558
  WF centre and spread   12  (  2.499397,  2.912563,  3.410248 )     4.27219899
  WF centre and spread   13  (  3.707751,  0.749781,  5.683954 )     5.67302286
  WF centre and spread   14  (  3.707485,  0.748908,  5.686830 )     5.66357309
  WF centre and spread   15  (  3.778927,  0.731998,  5.735750 )     4.46826018
  WF centre and spread   16  (  3.778867,  0.732350,  5.735891 )     4.47056012
  WF centre and spread   17  (  3.748389,  0.691614,  5.633687 )     4.83347498
  WF centre and spread   18  (  3.748902,  0.692572,  5.633919 )     4.83344254
  WF centre and spread   19  (  1.291929,  0.753084,  1.135859 )     5.59046987
  WF centre and spread   20  (  1.291314,  0.753745,  1.138400 )     5.59846603
  WF centre and spread   21  (  1.219249,  0.732220,  1.083798 )     4.49829156
  WF centre and spread   22  (  1.219297,  0.732185,  1.084067 )     4.48971553
  WF centre and spread   23  (  1.249108,  0.692445,  1.187595 )     4.87594408
  WF centre and spread   24  (  1.249259,  0.691513,  1.188275 )     4.87649361
  WF centre and spread   25  (  0.003250,  1.498839,  3.410254 )     5.49249929
  WF centre and spread   26  (  0.002533,  1.498792,  3.412355 )     5.48458860
  WF centre and spread   27  (  0.000200,  1.433447,  3.410572 )     5.24785372
  WF centre and spread   28  (  0.000598,  1.433756,  3.412412 )     5.24891801
  WF centre and spread   29  ( -0.000384,  1.415929,  3.410239 )     4.26957712
  WF centre and spread   30  ( -0.000382,  1.415857,  3.410248 )     4.27219954
  WF centre and spread   31  ( -1.208737,  3.578638,  5.683954 )     5.67302360
  WF centre and spread   32  ( -1.208470,  3.579515,  5.686829 )     5.66357161
  WF centre and spread   33  ( -1.279912,  3.596423,  5.735750 )     4.46825981
  WF centre and spread   34  ( -1.279852,  3.596071,  5.735891 )     4.47056050
  WF centre and spread   35  ( -1.249374,  3.636807,  5.633687 )     4.83347535
  WF centre and spread   36  ( -1.249887,  3.635849,  5.633919 )     4.83344307
  WF centre and spread   37  (  1.249507,  2.164210,  5.683676 )     2.61886083
  WF centre and spread   38  (  1.249507,  2.164210,  5.683554 )     2.61920195
  WF centre and spread   39  (  1.249508,  2.164210,  5.703670 )     2.23883827
  WF centre and spread   40  (  1.249507,  2.164210,  5.703929 )     2.23964685
  WF centre and spread   41  (  1.249507,  2.164210,  5.664974 )     2.48250511
  WF centre and spread   42  (  1.249507,  2.164210,  5.665047 )     2.48267147
  WF centre and spread   43  (  1.249507,  2.164210,  5.687049 )     2.23370066
  WF centre and spread   44  (  1.249507,  2.164210,  5.686972 )     2.23330541
  WF centre and spread   45  (  1.249507,  2.164210,  5.681058 )     2.25763636
  WF centre and spread   46  (  1.249507,  2.164210,  5.681013 )     2.25808265
  WF centre and spread   47  (  2.499015,  0.000000,  3.409885 )     2.65367840
  WF centre and spread   48  (  2.499015, -0.000000,  3.409251 )     2.65414399
  WF centre and spread   49  (  2.499015,  0.000000,  3.410738 )     2.61732685
  WF centre and spread   50  (  2.499015, -0.000000,  3.410777 )     2.61866601
  WF centre and spread   51  (  2.499015, -0.000000,  3.410394 )     2.18838887
  WF centre and spread   52  (  2.499015,  0.000000,  3.411328 )     2.18867191
  WF centre and spread   53  (  2.499015,  0.000000,  3.410371 )     2.26676398
  WF centre and spread   54  (  2.499015, -0.000000,  3.410346 )     2.26658018
  WF centre and spread   55  (  2.499015,  0.000000,  3.410508 )     2.21850576
  WF centre and spread   56  (  2.499015, -0.000000,  3.410476 )     2.21857351
  WF centre and spread   57  ( -1.249507,  2.164210,  1.138183 )     2.63141844
  WF centre and spread   58  ( -1.249507,  2.164210,  1.137810 )     2.62971295
  WF centre and spread   59  ( -1.249508,  2.164210,  1.115673 )     2.25488786
  WF centre and spread   60  ( -1.249507,  2.164210,  1.116114 )     2.25196404
  WF centre and spread   61  ( -1.249507,  2.164210,  1.156335 )     2.50182686
  WF centre and spread   62  ( -1.249508,  2.164210,  1.156501 )     2.50207243
  WF centre and spread   63  ( -1.249507,  2.164210,  1.133794 )     2.23311917
  WF centre and spread   64  ( -1.249507,  2.164210,  1.133735 )     2.23351433
  WF centre and spread   65  ( -1.249507,  2.164210,  1.139492 )     2.25605600
  WF centre and spread   66  ( -1.249507,  2.164210,  1.139463 )     2.25587611
  Sum of centres and spreads ( 69.972417,121.195781,225.100331 )   251.08088400
 
     99    -0.781E-04     0.0067045000      251.0809289979     167.41  <-- CONV
        O_D=      0.4841613 O_OD=     31.5571562 O_TOT=    251.0809290 <-- SPRD
 Delta: O_D= -0.9548042E-04 O_OD=  0.1740321E-04 O_TOT= -0.7807721E-04 <-- DLTA
 ------------------------------------------------------------------------------
 Cycle:    100
  WF centre and spread    1  (  1.207062,  3.575325,  1.135856 )     5.59095620
  WF centre and spread    2  (  1.207674,  3.574665,  1.138405 )     5.59905421
  WF centre and spread    3  (  1.279780,  3.596191,  1.083798 )     4.49817450
  WF centre and spread    4  (  1.279733,  3.596228,  1.084068 )     4.48961502
  WF centre and spread    5  (  1.249918,  3.635994,  1.187594 )     4.87550309
  WF centre and spread    6  (  1.249767,  3.636928,  1.188275 )     4.87607353
  WF centre and spread    7  (  2.495764,  2.829567,  3.410251 )     5.49268691
  WF centre and spread    8  (  2.496483,  2.829615,  3.412358 )     5.48484491
  WF centre and spread    9  (  2.498815,  2.894987,  3.410570 )     5.24754397
  WF centre and spread   10  (  2.498417,  2.894679,  3.412415 )     5.24866951
  WF centre and spread   11  (  2.499399,  2.912493,  3.410239 )     4.26957667
  WF centre and spread   12  (  2.499397,  2.912564,  3.410247 )     4.27219700
  WF centre and spread   13  (  3.707726,  0.749795,  5.683950 )     5.67356384
  WF centre and spread   14  (  3.707458,  0.748921,  5.686834 )     5.66419135
  WF centre and spread   15  (  3.778941,  0.732007,  5.735750 )     4.46814880
  WF centre and spread   16  (  3.778881,  0.732358,  5.735891 )     4.47046169
  WF centre and spread   17  (  3.748401,  0.691593,  5.633687 )     4.83301960
  WF centre and spread   18  (  3.748914,  0.692551,  5.633919 )     4.83300581
  WF centre and spread   19  (  1.291953,  0.753094,  1.135856 )     5.59095657
  WF centre and spread   20  (  1.291341,  0.753757,  1.138405 )     5.59905728
  WF centre and spread   21  (  1.219235,  0.732230,  1.083798 )     4.49817602
  WF centre and spread   22  (  1.219282,  0.732193,  1.084068 )     4.48961544
  WF centre and spread   23  (  1.249097,  0.692426,  1.187594 )     4.87550387
  WF centre and spread   24  (  1.249248,  0.691493,  1.188275 )     4.87607391
  WF centre and spread   25  (  0.003251,  1.498853,  3.410251 )     5.49268690
  WF centre and spread   26  (  0.002533,  1.498807,  3.412358 )     5.48484948
  WF centre and spread   27  (  0.000200,  1.433433,  3.410571 )     5.24754511
  WF centre and spread   28  (  0.000598,  1.433742,  3.412415 )     5.24867025
  WF centre and spread   29  ( -0.000384,  1.415928,  3.410239 )     4.26957820
  WF centre and spread   30  ( -0.000383,  1.415857,  3.410247 )     4.27219756
  WF centre and spread   31  ( -1.208712,  3.578624,  5.683951 )     5.67356455
  WF centre and spread   32  ( -1.208443,  3.579502,  5.686834 )     5.66418983
  WF centre and spread   33  ( -1.279926,  3.596414,  5.735750 )     4.46814843
  WF centre and spread   34  ( -1.279867,  3.596063,  5.735891 )     4.47046207
  WF centre and spread   35  ( -1.249386,  3.636828,  5.633687 )     4.83301997
  WF centre and spread   36  ( -1.249899,  3.635870,  5.633920 )     4.83300638
  WF centre and spread   37  (  1.249507,  2.164210,  5.683676 )     2.61886305
  WF centre and spread   38  (  1.249507,  2.164210,  5.683554 )     2.61920663
  WF centre and spread   39  (  1.249508,  2.164210,  5.703671 )     2.23883690
  WF centre and spread   40  (  1.249507,  2.164210,  5.703930 )     2.23965402
  WF centre and spread   41  (  1.249507,  2.164210,  5.664974 )     2.48249636
  WF centre and spread   42  (  1.249507,  2.164210,  5.665047 )     2.48266755
  WF centre and spread   43  (  1.249507,  2.164210,  5.687049 )     2.23370197
  WF centre and spread   44  (  1.249507,  2.164210,  5.686972 )     2.23330685
  WF centre and spread   45  (  1.249507,  2.164210,  5.681058 )     2.25763861
  WF centre and spread   46  (  1.249507,  2.164210,  5.681013 )     2.25808434
  WF centre and spread   47  (  2.499015,  0.000000,  3.409886 )     2.65368428
  WF centre and spread   48  (  2.499015, -0.000000,  3.409250 )     2.65415086
  WF centre and spread   49  (  2.499015,  0.000000,  3.410739 )     2.61733132
  WF centre and spread   50  (  2.499015, -0.000000,  3.410778 )     2.61866262
  WF centre and spread   51  (  2.499015, -0.000000,  3.410393 )     2.18838016
  WF centre and spread   52  (  2.499015,  0.000000,  3.411330 )     2.18868172
  WF centre and spread   53  (  2.499015,  0.000000,  3.410371 )     2.26676400
  WF centre and spread   54  (  2.499015, -0.000000,  3.410346 )     2.26658107
  WF centre and spread   55  (  2.499015,  0.000000,  3.410508 )     2.21850647
  WF centre and spread   56  (  2.499015, -0.000000,  3.410476 )     2.21857411
  WF centre and spread   57  ( -1.249507,  2.164210,  1.138183 )     2.63142182
  WF centre and spread   58  ( -1.249507,  2.164210,  1.137810 )     2.62971837
  WF centre and spread   59  ( -1.249508,  2.164210,  1.115673 )     2.25488217
  WF centre and spread   60  ( -1.249507,  2.164210,  1.116114 )     2.25196884
  WF centre and spread   61  ( -1.249507,  2.164210,  1.156335 )     2.50182235
  WF centre and spread   62  ( -1.249508,  2.164210,  1.156502 )     2.50206718
  WF centre and spread   63  ( -1.249507,  2.164210,  1.133794 )     2.23312066
  WF centre and spread   64  ( -1.249507,  2.164210,  1.133735 )     2.23351565
  WF centre and spread   65  ( -1.249507,  2.164210,  1.139492 )     2.25605811
  WF centre and spread   66  ( -1.249507,  2.164210,  1.139463 )     2.25587761
  Sum of centres and spreads ( 69.972417,121.195780,225.100337 )   251.08081406
 
    100    -0.699E-04     0.0068766593      251.0808590602     168.01  <-- CONV
        O_D=      0.4841199 O_OD=     31.5571276 O_TOT=    251.0808591 <-- SPRD
 Delta: O_D= -0.4139075E-04 O_OD= -0.2854697E-04 O_TOT= -0.6993772E-04 <-- DLTA
 ------------------------------------------------------------------------------

 Writing checkpoint file NbGe2.chk... done

 Final State
  WF centre and spread    1  (  1.207062,  3.575325,  1.135856 )     5.59095620
  WF centre and spread    2  (  1.207674,  3.574665,  1.138405 )     5.59905421
  WF centre and spread    3  (  1.279780,  3.596191,  1.083798 )     4.49817450
  WF centre and spread    4  (  1.279733,  3.596228,  1.084068 )     4.48961502
  WF centre and spread    5  (  1.249918,  3.635994,  1.187594 )     4.87550309
  WF centre and spread    6  (  1.249767,  3.636928,  1.188275 )     4.87607353
  WF centre and spread    7  (  2.495764,  2.829567,  3.410251 )     5.49268691
  WF centre and spread    8  (  2.496483,  2.829615,  3.412358 )     5.48484491
  WF centre and spread    9  (  2.498815,  2.894987,  3.410570 )     5.24754397
  WF centre and spread   10  (  2.498417,  2.894679,  3.412415 )     5.24866951
  WF centre and spread   11  (  2.499399,  2.912493,  3.410239 )     4.26957667
  WF centre and spread   12  (  2.499397,  2.912564,  3.410247 )     4.27219700
  WF centre and spread   13  (  3.707726,  0.749795,  5.683950 )     5.67356384
  WF centre and spread   14  (  3.707458,  0.748921,  5.686834 )     5.66419135
  WF centre and spread   15  (  3.778941,  0.732007,  5.735750 )     4.46814880
  WF centre and spread   16  (  3.778881,  0.732358,  5.735891 )     4.47046169
  WF centre and spread   17  (  3.748401,  0.691593,  5.633687 )     4.83301960
  WF centre and spread   18  (  3.748914,  0.692551,  5.633919 )     4.83300581
  WF centre and spread   19  (  1.291953,  0.753094,  1.135856 )     5.59095657
  WF centre and spread   20  (  1.291341,  0.753757,  1.138405 )     5.59905728
  WF centre and spread   21  (  1.219235,  0.732230,  1.083798 )     4.49817602
  WF centre and spread   22  (  1.219282,  0.732193,  1.084068 )     4.48961544
  WF centre and spread   23  (  1.249097,  0.692426,  1.187594 )     4.87550387
  WF centre and spread   24  (  1.249248,  0.691493,  1.188275 )     4.87607391
  WF centre and spread   25  (  0.003251,  1.498853,  3.410251 )     5.49268690
  WF centre and spread   26  (  0.002533,  1.498807,  3.412358 )     5.48484948
  WF centre and spread   27  (  0.000200,  1.433433,  3.410571 )     5.24754511
  WF centre and spread   28  (  0.000598,  1.433742,  3.412415 )     5.24867025
  WF centre and spread   29  ( -0.000384,  1.415928,  3.410239 )     4.26957820
  WF centre and spread   30  ( -0.000383,  1.415857,  3.410247 )     4.27219756
  WF centre and spread   31  ( -1.208712,  3.578624,  5.683951 )     5.67356455
  WF centre and spread   32  ( -1.208443,  3.579502,  5.686834 )     5.66418983
  WF centre and spread   33  ( -1.279926,  3.596414,  5.735750 )     4.46814843
  WF centre and spread   34  ( -1.279867,  3.596063,  5.735891 )     4.47046207
  WF centre and spread   35  ( -1.249386,  3.636828,  5.633687 )     4.83301997
  WF centre and spread   36  ( -1.249899,  3.635870,  5.633920 )     4.83300638
  WF centre and spread   37  (  1.249507,  2.164210,  5.683676 )     2.61886305
  WF centre and spread   38  (  1.249507,  2.164210,  5.683554 )     2.61920663
  WF centre and spread   39  (  1.249508,  2.164210,  5.703671 )     2.23883690
  WF centre and spread   40  (  1.249507,  2.164210,  5.703930 )     2.23965402
  WF centre and spread   41  (  1.249507,  2.164210,  5.664974 )     2.48249636
  WF centre and spread   42  (  1.249507,  2.164210,  5.665047 )     2.48266755
  WF centre and spread   43  (  1.249507,  2.164210,  5.687049 )     2.23370197
  WF centre and spread   44  (  1.249507,  2.164210,  5.686972 )     2.23330685
  WF centre and spread   45  (  1.249507,  2.164210,  5.681058 )     2.25763861
  WF centre and spread   46  (  1.249507,  2.164210,  5.681013 )     2.25808434
  WF centre and spread   47  (  2.499015,  0.000000,  3.409886 )     2.65368428
  WF centre and spread   48  (  2.499015, -0.000000,  3.409250 )     2.65415086
  WF centre and spread   49  (  2.499015,  0.000000,  3.410739 )     2.61733132
  WF centre and spread   50  (  2.499015, -0.000000,  3.410778 )     2.61866262
  WF centre and spread   51  (  2.499015, -0.000000,  3.410393 )     2.18838016
  WF centre and spread   52  (  2.499015,  0.000000,  3.411330 )     2.18868172
  WF centre and spread   53  (  2.499015,  0.000000,  3.410371 )     2.26676400
  WF centre and spread   54  (  2.499015, -0.000000,  3.410346 )     2.26658107
  WF centre and spread   55  (  2.499015,  0.000000,  3.410508 )     2.21850647
  WF centre and spread   56  (  2.499015, -0.000000,  3.410476 )     2.21857411
  WF centre and spread   57  ( -1.249507,  2.164210,  1.138183 )     2.63142182
  WF centre and spread   58  ( -1.249507,  2.164210,  1.137810 )     2.62971837
  WF centre and spread   59  ( -1.249508,  2.164210,  1.115673 )     2.25488217
  WF centre and spread   60  ( -1.249507,  2.164210,  1.116114 )     2.25196884
  WF centre and spread   61  ( -1.249507,  2.164210,  1.156335 )     2.50182235
  WF centre and spread   62  ( -1.249508,  2.164210,  1.156502 )     2.50206718
  WF centre and spread   63  ( -1.249507,  2.164210,  1.133794 )     2.23312066
  WF centre and spread   64  ( -1.249507,  2.164210,  1.133735 )     2.23351565
  WF centre and spread   65  ( -1.249507,  2.164210,  1.139492 )     2.25605811
  WF centre and spread   66  ( -1.249507,  2.164210,  1.139463 )     2.25587761
  Sum of centres and spreads ( 69.972417,121.195780,225.100337 )   251.08081406
 
         Spreads (Ang^2)       Omega I      =   219.039611518
        ================       Omega D      =     0.484119936
                               Omega OD     =    31.557127606
    Final Spread (Ang^2)       Omega Total  =   251.080859060
 ------------------------------------------------------------------------------

 Wannier centres written to file NbGe2_centres.xyz
 Time for wannierise           66.121 (sec)

 Writing checkpoint file NbGe2.chk... done

 *---------------------------------------------------------------------------*
 |                               PLOTTING                                    |
 *---------------------------------------------------------------------------*
 
 
 Calculating interpolated band-structure
 
 Time to calculate interpolated band structure     335.503 (sec)
 
 Time for plotting           2517.285 (sec)
 Total Execution Time        2837.072 (sec)

 *===========================================================================*
 |                             TIMING INFORMATION                            |
 *===========================================================================*
 |    Tag                                                Ncalls      Time (s)|
 |---------------------------------------------------------------------------|
 |kmesh: get                                        :         1         0.899|
 |overlap: allocate                                 :         1         0.132|
 |overlap: read                                     :         1       133.451|
 |dis: main                                         :         1       117.558|
 |wann: main                                        :         1        66.121|
 |plot: main                                        :         1      2517.285|
 *---------------------------------------------------------------------------*
 
 All done: wannier90 exiting
