MPI startup(): Warning: I_MPI_PMI_LIBRARY will be ignored since the hydra process manager was found
MPI startup(): Warning: I_MPI_PMI_LIBRARY will be ignored since the hydra process manager was found
MPI startup(): Warning: I_MPI_PMI_LIBRARY will be ignored since the hydra process manager was found
MPI startup(): Warning: I_MPI_PMI_LIBRARY will be ignored since the hydra process manager was found
MPI startup(): Warning: I_MPI_PMI_LIBRARY will be ignored since the hydra process manager was found
MPI startup(): Warning: I_MPI_PMI_LIBRARY will be ignored since the hydra process manager was found
MPI startup(): Warning: I_MPI_PMI_LIBRARY will be ignored since the hydra process manager was found
MPI startup(): Warning: I_MPI_PMI_LIBRARY will be ignored since the hydra process manager was found
MPI startup(): Warning: I_MPI_PMI_LIBRARY will be ignored since the hydra process manager was found
MPI startup(): Warning: I_MPI_PMI_LIBRARY will be ignored since the hydra process manager was found
MPI startup(): Warning: I_MPI_PMI_LIBRARY will be ignored since the hydra process manager was found
MPI startup(): Warning: I_MPI_PMI_LIBRARY will be ignored since the hydra process manager was found
MPI startup(): Warning: I_MPI_PMI_LIBRARY will be ignored since the hydra process manager was found
MPI startup(): Warning: I_MPI_PMI_LIBRARY will be ignored since the hydra process manager was found
MPI startup(): Warning: I_MPI_PMI_LIBRARY will be ignored since the hydra process manager was found
MPI startup(): Warning: I_MPI_PMI_LIBRARY will be ignored since the hydra process manager was found
MPI startup(): Warning: I_MPI_PMI_LIBRARY will be ignored since the hydra process manager was found
MPI startup(): Warning: I_MPI_PMI_LIBRARY will be ignored since the hydra process manager was found
MPI startup(): Warning: I_MPI_PMI_LIBRARY will be ignored since the hydra process manager was found
MPI startup(): Warning: I_MPI_PMI_LIBRARY will be ignored since the hydra process manager was found
MPI startup(): Warning: I_MPI_PMI_LIBRARY will be ignored since the hydra process manager was found
MPI startup(): Warning: I_MPI_PMI_LIBRARY will be ignored since the hydra process manager was found
MPI startup(): Warning: I_MPI_PMI_LIBRARY will be ignored since the hydra process manager was found
MPI startup(): Warning: I_MPI_PMI_LIBRARY will be ignored since the hydra process manager was found

     Program PWSCF v.6.7MaX starts on  1Aug2021 at 12:42:19 

     This program is part of the open-source Quantum ESPRESSO suite
     for quantum simulation of materials; please cite
         "P. Giannozzi et al., J. Phys.:Condens. Matter 21 395502 (2009);
         "P. Giannozzi et al., J. Phys.:Condens. Matter 29 465901 (2017);
          URL http://www.quantum-espresso.org", 
     in publications or presentations arising from this work. More details at
     http://www.quantum-espresso.org/quote

     Parallel version (MPI), running on    24 processors

     MPI processes distributed on     1 nodes
     R & G space division:  proc/nbgrp/npool/nimage =      24
     Waiting for input...
     Reading input from standard input

     Current dimensions of program PWSCF are:
     Max number of different atomic species (ntypx) = 10
     Max number of k-points (npk) =  40000
     Max angular momentum in pseudopotentials (lmaxx) =  3
     file Cr.rel-pbe-spn-kjpaw_psl.1.0.0.UPF: wavefunction(s)  3S 3P 3P 3D 3D renormalized
     file Si.rel-pbe-n-kjpaw_psl.1.0.0.UPF: wavefunction(s)  3S 3P 3P renormalized

     Subspace diagonalization in iterative solution of the eigenvalue problem:
     a serial algorithm will be used

     Message from routine setup:
     using ibrav=0 with symmetry is DISCOURAGED, use correct ibrav instead
 
     Parallelization info
     --------------------
     sticks:   dense  smooth     PW     G-vecs:    dense   smooth      PW
     Min         228      91     25                12702     3210     487
     Max         229      93     26                12704     3214     492
     Sum        5473    2201    621               304867    77053   11753
 


     bravais-lattice index     =            0
     lattice parameter (alat)  =       8.7475  a.u.
     unit-cell volume          =     669.3575 (a.u.)^3
     number of atoms/cell      =            8
     number of atomic types    =            2
     number of electrons       =        72.00
     number of Kohn-Sham states=           86
     kinetic-energy cutoff     =      90.0000  Ry
     charge density cutoff     =     900.0000  Ry
     scf convergence threshold =      1.0E-06
     mixing beta               =       0.7000
     number of iterations used =            8  plain     mixing
     Exchange-correlation= SLA  PW   PBX  PBC
                           (   1   4   3   4   0   0   0)
     Non magnetic calculation with spin-orbit


     celldm(1)=   8.747542  celldm(2)=   0.000000  celldm(3)=   0.000000
     celldm(4)=   0.000000  celldm(5)=   0.000000  celldm(6)=   0.000000

     crystal axes: (cart. coord. in units of alat)
               a(1) = (   1.000000   0.000000   0.000000 )  
               a(2) = (   0.000000   1.000000   0.000000 )  
               a(3) = (   0.000000   0.000000   1.000000 )  

     reciprocal axes: (cart. coord. in units 2 pi/alat)
               b(1) = (  1.000000  0.000000  0.000000 )  
               b(2) = (  0.000000  1.000000  0.000000 )  
               b(3) = (  0.000000  0.000000  1.000000 )  


     PseudoPot. # 1 for Cr read from file:
     ../../../../pseudo/Cr.rel-pbe-spn-kjpaw_psl.1.0.0.UPF
     MD5 check sum: 1e24e2b5251376a8b945118fca0c7981
     Pseudo is Projector augmented-wave + core cor, Zval = 14.0
     Generated using &quot;atomic&quot; code by A. Dal Corso  v.6.3
     Shape of augmentation charge: PSQ
     Using radial grid of 1183 points, 10 beta functions with: 
                l(1) =   0
                l(2) =   0
                l(3) =   1
                l(4) =   1
                l(5) =   1
                l(6) =   1
                l(7) =   2
                l(8) =   2
                l(9) =   2
               l(10) =   2
     Q(r) pseudized with 0 coefficients 


     PseudoPot. # 2 for Si read from file:
     ../../../../pseudo/Si.rel-pbe-n-kjpaw_psl.1.0.0.UPF
     MD5 check sum: d74f6caf6830ea4c2076867160cab1b0
     Pseudo is Projector augmented-wave + core cor, Zval =  4.0
     Generated using &quot;atomic&quot; code by A. Dal Corso  v.6.3
     Shape of augmentation charge: PSQ
     Using radial grid of 1141 points, 10 beta functions with: 
                l(1) =   0
                l(2) =   0
                l(3) =   1
                l(4) =   1
                l(5) =   1
                l(6) =   1
                l(7) =   2
                l(8) =   2
                l(9) =   2
               l(10) =   2
     Q(r) pseudized with 0 coefficients 


     atomic species   valence    mass     pseudopotential
        Cr            14.00    51.99600     Cr( 1.00)
        Si             4.00    28.08500     Si( 1.00)

     12 Sym. Ops. (no inversion) found ( 9 have fractional translation)


                                    s                        frac. trans.

      isym =  1     identity                                     

 cryst.   s( 1) = (     1          0          0      )
                  (     0          1          0      )
                  (     0          0          1      )

 cart.    s( 1) = (  1.0000000  0.0000000  0.0000000 )
                  (  0.0000000  1.0000000  0.0000000 )
                  (  0.0000000  0.0000000  1.0000000 )


      isym =  2     180 deg rotation - cart. axis [0,0,1]        

 cryst.   s( 2) = (    -1          0          0      )    f =(  0.5000000 )
                  (     0         -1          0      )       (  0.0000000 )
                  (     0          0          1      )       ( -0.5000000 )

 cart.    s( 2) = ( -1.0000000  0.0000000  0.0000000 )    f =(  0.5000000 )
                  (  0.0000000 -1.0000000  0.0000000 )       (  0.0000000 )
                  (  0.0000000  0.0000000  1.0000000 )       ( -0.5000000 )


      isym =  3     180 deg rotation - cart. axis [0,1,0]        

 cryst.   s( 3) = (    -1          0          0      )    f =(  0.0000000 )
                  (     0          1          0      )       ( -0.5000000 )
                  (     0          0         -1      )       (  0.5000000 )

 cart.    s( 3) = ( -1.0000000  0.0000000  0.0000000 )    f =(  0.0000000 )
                  (  0.0000000  1.0000000  0.0000000 )       ( -0.5000000 )
                  (  0.0000000  0.0000000 -1.0000000 )       (  0.5000000 )


      isym =  4     180 deg rotation - cart. axis [1,0,0]        

 cryst.   s( 4) = (     1          0          0      )    f =(  0.5000000 )
                  (     0         -1          0      )       (  0.5000000 )
                  (     0          0         -1      )       (  0.0000000 )

 cart.    s( 4) = (  1.0000000  0.0000000  0.0000000 )    f =(  0.5000000 )
                  (  0.0000000 -1.0000000  0.0000000 )       (  0.5000000 )
                  (  0.0000000  0.0000000 -1.0000000 )       (  0.0000000 )


      isym =  5     120 deg rotation - cart. axis [-1,-1,-1]     

 cryst.   s( 5) = (     0          0          1      )
                  (     1          0          0      )
                  (     0          1          0      )

 cart.    s( 5) = (  0.0000000  1.0000000  0.0000000 )
                  (  0.0000000  0.0000000  1.0000000 )
                  (  1.0000000  0.0000000  0.0000000 )


      isym =  6     120 deg rotation - cart. axis [-1,1,1]       

 cryst.   s( 6) = (     0          0         -1      )    f =(  0.0000000 )
                  (    -1          0          0      )       ( -0.5000000 )
                  (     0          1          0      )       (  0.5000000 )

 cart.    s( 6) = (  0.0000000 -1.0000000  0.0000000 )    f =(  0.0000000 )
                  (  0.0000000  0.0000000  1.0000000 )       ( -0.5000000 )
                  ( -1.0000000  0.0000000  0.0000000 )       (  0.5000000 )


      isym =  7     120 deg rotation - cart. axis [1,1,-1]       

 cryst.   s( 7) = (     0          0         -1      )    f =(  0.5000000 )
                  (     1          0          0      )       (  0.5000000 )
                  (     0         -1          0      )       (  0.0000000 )

 cart.    s( 7) = (  0.0000000  1.0000000  0.0000000 )    f =(  0.5000000 )
                  (  0.0000000  0.0000000 -1.0000000 )       (  0.5000000 )
                  ( -1.0000000  0.0000000  0.0000000 )       (  0.0000000 )


      isym =  8     120 deg rotation - cart. axis [1,-1,1]       

 cryst.   s( 8) = (     0          0          1      )    f =(  0.5000000 )
                  (    -1          0          0      )       (  0.0000000 )
                  (     0         -1          0      )       ( -0.5000000 )

 cart.    s( 8) = (  0.0000000 -1.0000000  0.0000000 )    f =(  0.5000000 )
                  (  0.0000000  0.0000000 -1.0000000 )       (  0.0000000 )
                  (  1.0000000  0.0000000  0.0000000 )       ( -0.5000000 )


      isym =  9     120 deg rotation - cart. axis [1,1,1]        

 cryst.   s( 9) = (     0          1          0      )
                  (     0          0          1      )
                  (     1          0          0      )

 cart.    s( 9) = (  0.0000000  0.0000000  1.0000000 )
                  (  1.0000000  0.0000000  0.0000000 )
                  (  0.0000000  1.0000000  0.0000000 )


      isym = 10     120 deg rotation - cart. axis [-1,1,-1]      

 cryst.   s(10) = (     0         -1          0      )    f =(  0.5000000 )
                  (     0          0         -1      )       (  0.5000000 )
                  (     1          0          0      )       (  0.0000000 )

 cart.    s(10) = (  0.0000000  0.0000000  1.0000000 )    f =(  0.5000000 )
                  ( -1.0000000  0.0000000  0.0000000 )       (  0.5000000 )
                  (  0.0000000 -1.0000000  0.0000000 )       (  0.0000000 )


      isym = 11     120 deg rotation - cart. axis [1,-1,-1]      

 cryst.   s(11) = (     0         -1          0      )    f =(  0.5000000 )
                  (     0          0          1      )       (  0.0000000 )
                  (    -1          0          0      )       ( -0.5000000 )

 cart.    s(11) = (  0.0000000  0.0000000 -1.0000000 )    f =(  0.5000000 )
                  ( -1.0000000  0.0000000  0.0000000 )       (  0.0000000 )
                  (  0.0000000  1.0000000  0.0000000 )       ( -0.5000000 )


      isym = 12     120 deg rotation - cart. axis [-1,-1,1]      

 cryst.   s(12) = (     0          1          0      )    f =(  0.0000000 )
                  (     0          0         -1      )       ( -0.5000000 )
                  (    -1          0          0      )       (  0.5000000 )

 cart.    s(12) = (  0.0000000  0.0000000 -1.0000000 )    f =(  0.0000000 )
                  (  1.0000000  0.0000000  0.0000000 )       ( -0.5000000 )
                  (  0.0000000 -1.0000000  0.0000000 )       (  0.5000000 )


   Cartesian axes

     site n.     atom                  positions (alat units)
         1           Cr  tau(   1) = (   0.8640000   0.3640000   0.1360000  )
         2           Cr  tau(   2) = (   0.3640000   0.1360000   0.8640000  )
         3           Cr  tau(   3) = (   0.1360000   0.8640000   0.3640000  )
         4           Cr  tau(   4) = (   0.6360000   0.6360000   0.6360000  )
         5           Si  tau(   5) = (   0.1540000   0.6540000   0.8460000  )
         6           Si  tau(   6) = (   0.6540000   0.8460000   0.1540000  )
         7           Si  tau(   7) = (   0.8460000   0.1540000   0.6540000  )
         8           Si  tau(   8) = (   0.3460000   0.3460000   0.3460000  )

   Crystallographic axes

     site n.     atom                  positions (cryst. coord.)
         1           Cr  tau(   1) = (  0.8640000  0.3640000  0.1360000  )
         2           Cr  tau(   2) = (  0.3640000  0.1360000  0.8640000  )
         3           Cr  tau(   3) = (  0.1360000  0.8640000  0.3640000  )
         4           Cr  tau(   4) = (  0.6360000  0.6360000  0.6360000  )
         5           Si  tau(   5) = (  0.1540000  0.6540000  0.8460000  )
         6           Si  tau(   6) = (  0.6540000  0.8460000  0.1540000  )
         7           Si  tau(   7) = (  0.8460000  0.1540000  0.6540000  )
         8           Si  tau(   8) = (  0.3460000  0.3460000  0.3460000  )

     number of k points=    24  Methfessel-Paxton smearing, width (Ry)=  0.0080
                       cart. coord. in units 2pi/alat
        k(    1) = (   0.0000000   0.0000000   0.0000000), wk =   0.0046296
        k(    2) = (   0.0000000   0.0000000   0.1666667), wk =   0.0277778
        k(    3) = (   0.0000000   0.0000000   0.3333333), wk =   0.0277778
        k(    4) = (   0.0000000   0.0000000  -0.5000000), wk =   0.0138889
        k(    5) = (   0.0000000   0.1666667   0.1666667), wk =   0.0555556
        k(    6) = (   0.0000000   0.1666667   0.3333333), wk =   0.0555556
        k(    7) = (   0.0000000   0.1666667  -0.5000000), wk =   0.0277778
        k(    8) = (   0.0000000   0.3333333   0.3333333), wk =   0.0555556
        k(    9) = (   0.0000000   0.3333333  -0.5000000), wk =   0.0277778
        k(   10) = (   0.0000000  -0.5000000  -0.5000000), wk =   0.0138889
        k(   11) = (   0.1666667   0.1666667   0.1666667), wk =   0.0370370
        k(   12) = (   0.1666667   0.1666667   0.3333333), wk =   0.1111111
        k(   13) = (   0.1666667   0.1666667  -0.5000000), wk =   0.0555556
        k(   14) = (   0.1666667   0.3333333   0.3333333), wk =   0.1111111
        k(   15) = (   0.1666667   0.3333333  -0.5000000), wk =   0.0555556
        k(   16) = (   0.1666667  -0.5000000  -0.5000000), wk =   0.0277778
        k(   17) = (   0.3333333   0.3333333   0.3333333), wk =   0.0370370
        k(   18) = (   0.3333333   0.3333333  -0.5000000), wk =   0.0555556
        k(   19) = (   0.3333333  -0.5000000  -0.5000000), wk =   0.0277778
        k(   20) = (  -0.5000000  -0.5000000  -0.5000000), wk =   0.0046296
        k(   21) = (   0.0000000   0.3333333   0.1666667), wk =   0.0555556
        k(   22) = (   0.0000000  -0.5000000   0.1666667), wk =   0.0277778
        k(   23) = (   0.0000000  -0.5000000   0.3333333), wk =   0.0277778
        k(   24) = (  -0.1666667  -0.5000000   0.3333333), wk =   0.0555556

                       cryst. coord.
        k(    1) = (   0.0000000   0.0000000   0.0000000), wk =   0.0046296
        k(    2) = (   0.0000000   0.0000000   0.1666667), wk =   0.0277778
        k(    3) = (   0.0000000   0.0000000   0.3333333), wk =   0.0277778
        k(    4) = (   0.0000000   0.0000000  -0.5000000), wk =   0.0138889
        k(    5) = (   0.0000000   0.1666667   0.1666667), wk =   0.0555556
        k(    6) = (   0.0000000   0.1666667   0.3333333), wk =   0.0555556
        k(    7) = (   0.0000000   0.1666667  -0.5000000), wk =   0.0277778
        k(    8) = (   0.0000000   0.3333333   0.3333333), wk =   0.0555556
        k(    9) = (   0.0000000   0.3333333  -0.5000000), wk =   0.0277778
        k(   10) = (   0.0000000  -0.5000000  -0.5000000), wk =   0.0138889
        k(   11) = (   0.1666667   0.1666667   0.1666667), wk =   0.0370370
        k(   12) = (   0.1666667   0.1666667   0.3333333), wk =   0.1111111
        k(   13) = (   0.1666667   0.1666667  -0.5000000), wk =   0.0555556
        k(   14) = (   0.1666667   0.3333333   0.3333333), wk =   0.1111111
        k(   15) = (   0.1666667   0.3333333  -0.5000000), wk =   0.0555556
        k(   16) = (   0.1666667  -0.5000000  -0.5000000), wk =   0.0277778
        k(   17) = (   0.3333333   0.3333333   0.3333333), wk =   0.0370370
        k(   18) = (   0.3333333   0.3333333  -0.5000000), wk =   0.0555556
        k(   19) = (   0.3333333  -0.5000000  -0.5000000), wk =   0.0277778
        k(   20) = (  -0.5000000  -0.5000000  -0.5000000), wk =   0.0046296
        k(   21) = (   0.0000000   0.3333333   0.1666667), wk =   0.0555556
        k(   22) = (   0.0000000  -0.5000000   0.1666667), wk =   0.0277778
        k(   23) = (   0.0000000  -0.5000000   0.3333333), wk =   0.0277778
        k(   24) = (  -0.1666667  -0.5000000   0.3333333), wk =   0.0555556

     Dense  grid:   304867 G-vectors     FFT dimensions: (  90,  90,  90)

     Smooth grid:    77053 G-vectors     FFT dimensions: (  54,  54,  54)

     Dynamical RAM for                 wfc:       1.06 MB

     Dynamical RAM for     wfc (w. buffer):      26.38 MB

     Dynamical RAM for           str. fact:       0.39 MB

     Dynamical RAM for           local pot:       0.00 MB

     Dynamical RAM for          nlocal pot:       1.67 MB

     Dynamical RAM for                qrad:      12.61 MB

     Dynamical RAM for          rho,v,vnew:       5.29 MB

     Dynamical RAM for               rhoin:       1.76 MB

     Dynamical RAM for            rho*nmix:      12.41 MB

     Dynamical RAM for           G-vectors:       0.75 MB

     Dynamical RAM for          h,s,v(r/c):       1.35 MB

     Dynamical RAM for          <psi|beta>:       0.71 MB

     Dynamical RAM for                 psi:       2.11 MB

     Dynamical RAM for                hpsi:       2.11 MB

     Dynamical RAM for                spsi:       2.11 MB

     Dynamical RAM for      wfcinit/wfcrot:       2.35 MB

     Dynamical RAM for           addusdens:     119.02 MB

     Dynamical RAM for          addusforce:     120.34 MB

     Dynamical RAM for         addusstress:     121.74 MB

     Estimated static dynamical RAM per process >      63.81 MB

     Estimated max dynamical RAM per process >     185.55 MB

     Estimated total dynamical RAM >       4.35 GB

     Initial potential from superposition of free atoms

     starting charge   71.99469, renormalised to   72.00000
     Starting wfcs are  112 randomized atomic wfcs
     Checking if some PAW data can be deallocated... 
       PAW data deallocated on   12 nodes for type:  1
       PAW data deallocated on   12 nodes for type:  2

     total cpu time spent up to now is        7.6 secs

     Self-consistent Calculation

     iteration #  1     ecut=    90.00 Ry     beta= 0.70
     Davidson diagonalization with overlap
     ethr =  1.00E-02,  avg # of iterations =  2.0

     Threshold (ethr) on eigenvalues was too large:
     Diagonalizing with lowered threshold

     Davidson diagonalization with overlap
     ethr =  2.09E-04,  avg # of iterations =  4.5

     total cpu time spent up to now is       31.9 secs

     total energy              =   -1180.30855867 Ry
     estimated scf accuracy    <       0.18824266 Ry

     iteration #  2     ecut=    90.00 Ry     beta= 0.70
     Davidson diagonalization with overlap
     ethr =  2.61E-04,  avg # of iterations =  3.1

     total cpu time spent up to now is       44.6 secs

     total energy              =   -1180.31613933 Ry
     estimated scf accuracy    <       0.07443545 Ry

     iteration #  3     ecut=    90.00 Ry     beta= 0.70
     Davidson diagonalization with overlap
     ethr =  1.03E-04,  avg # of iterations =  5.0

     total cpu time spent up to now is       59.8 secs

     total energy              =   -1180.32551171 Ry
     estimated scf accuracy    <       0.15608073 Ry

     iteration #  4     ecut=    90.00 Ry     beta= 0.70
     Davidson diagonalization with overlap
     ethr =  1.03E-04,  avg # of iterations =  4.1

     total cpu time spent up to now is       72.4 secs

     total energy              =   -1180.34877522 Ry
     estimated scf accuracy    <       0.00051168 Ry

     iteration #  5     ecut=    90.00 Ry     beta= 0.70
     Davidson diagonalization with overlap
     ethr =  7.11E-07,  avg # of iterations =  7.3

     total cpu time spent up to now is       89.7 secs

     total energy              =   -1180.34934137 Ry
     estimated scf accuracy    <       0.00020434 Ry

     iteration #  6     ecut=    90.00 Ry     beta= 0.70
     Davidson diagonalization with overlap
     ethr =  2.84E-07,  avg # of iterations =  3.0

     total cpu time spent up to now is      100.9 secs

     total energy              =   -1180.34938222 Ry
     estimated scf accuracy    <       0.00000125 Ry

     iteration #  7     ecut=    90.00 Ry     beta= 0.70
     Davidson diagonalization with overlap
     ethr =  1.74E-09,  avg # of iterations =  9.3

     total cpu time spent up to now is      122.6 secs

     total energy              =   -1180.34938344 Ry
     estimated scf accuracy    <       0.00001787 Ry

     iteration #  8     ecut=    90.00 Ry     beta= 0.70
     Davidson diagonalization with overlap
     ethr =  1.74E-09,  avg # of iterations =  5.2

     total cpu time spent up to now is      138.8 secs

     total energy              =   -1180.34938698 Ry
     estimated scf accuracy    <       0.00000149 Ry

     iteration #  9     ecut=    90.00 Ry     beta= 0.70
     Davidson diagonalization with overlap
     ethr =  1.74E-09,  avg # of iterations =  2.0

     total cpu time spent up to now is      148.9 secs

     End of self-consistent calculation

          k = 0.0000 0.0000 0.0000 (  9771 PWs)   bands (ev):

   -56.5135 -56.5135 -56.4788 -56.4788 -56.4788 -56.4788 -56.4788 -56.4788
   -28.5789 -28.5789 -28.5714 -28.5714 -28.5714 -28.5714 -28.4821 -28.4821
   -27.6132 -27.6132 -27.6132 -27.6132 -27.5366 -27.5366 -27.5366 -27.5366
   -27.5320 -27.5320 -27.4496 -27.4496 -27.4493 -27.4493 -27.4493 -27.4493
     2.6986   2.6986   7.4571   7.4571   7.4571   7.4571   7.4663   7.4663
    10.5374  10.5374  10.5453  10.5453  10.5453  10.5453  11.9114  11.9114
    11.9114  11.9114  11.9225  11.9225  12.6028  12.6028  12.7725  12.7725
    12.7725  12.7725  13.1447  13.1447  13.1447  13.1447  13.1458  13.1458
    13.6725  13.6725  13.6725  13.6725  13.6763  13.6763  15.5530  15.5530
    15.5843  15.5843  15.5843  15.5843  15.7679  15.7679  15.7679  15.7679
    16.6662  16.6662  16.6965  16.6965  16.6965  16.6965

     occupation numbers 
     1.0000   1.0000   1.0000   1.0000   1.0000   1.0000   1.0000   1.0000
     1.0000   1.0000   1.0000   1.0000   1.0000   1.0000   1.0000   1.0000
     1.0000   1.0000   1.0000   1.0000   1.0000   1.0000   1.0000   1.0000
     1.0000   1.0000   1.0000   1.0000   1.0000   1.0000   1.0000   1.0000
     1.0000   1.0000   1.0000   1.0000   1.0000   1.0000   1.0000   1.0000
     1.0000   1.0000   1.0000   1.0000   1.0000   1.0000   1.0000   1.0000
     1.0000   1.0000   1.0000   1.0000   1.0000   1.0000   1.0000   1.0000
     1.0000   1.0000   1.0000   1.0000   1.0000   1.0000   1.0000   1.0000
     1.0000   1.0000   1.0000   1.0000   1.0000   1.0000  -0.0000  -0.0000
    -0.0000  -0.0000  -0.0000  -0.0000  -0.0000  -0.0000  -0.0000  -0.0000
    -0.0000  -0.0000  -0.0000  -0.0000  -0.0000  -0.0000

          k = 0.0000 0.0000 0.1667 (  9663 PWs)   bands (ev):

   -56.5117 -56.5117 -56.4844 -56.4844 -56.4782 -56.4782 -56.4755 -56.4755
   -28.5866 -28.5797 -28.5757 -28.5750 -28.5609 -28.5576 -28.4871 -28.4870
   -27.6299 -27.6219 -27.6001 -27.5924 -27.5492 -27.5434 -27.5394 -27.5303
   -27.5277 -27.5150 -27.4600 -27.4579 -27.4548 -27.4480 -27.4469 -27.4417
     2.8907   2.8907   6.5401   6.5427   7.5633   7.5652   8.1200   8.1293
     9.9484   9.9526  10.6630  10.6655  11.0719  11.0748  11.2875  11.2882
    11.5003  11.5051  12.4495  12.4599  12.7396  12.7619  12.8031  12.8097
    13.0118  13.0151  13.1089  13.1114  13.1981  13.2002  13.2288  13.2291
    13.5324  13.5424  13.6329  13.6355  13.9642  13.9646  15.2949  15.3158
    15.4185  15.4260  15.6947  15.7042  15.7499  15.7683  15.7935  15.8191
    16.4079  16.4234  16.5961  16.6036  16.9913  17.0118

     occupation numbers 
     1.0000   1.0000   1.0000   1.0000   1.0000   1.0000   1.0000   1.0000
     1.0000   1.0000   1.0000   1.0000   1.0000   1.0000   1.0000   1.0000
     1.0000   1.0000   1.0000   1.0000   1.0000   1.0000   1.0000   1.0000
     1.0000   1.0000   1.0000   1.0000   1.0000   1.0000   1.0000   1.0000
     1.0000   1.0000   1.0000   1.0000   1.0000   1.0000   1.0000   1.0000
     1.0000   1.0000   1.0000   1.0000   1.0000   1.0000   1.0000   1.0000
     1.0000   1.0000   1.0000   1.0000   1.0000   1.0000   1.0000   1.0000
     1.0000   1.0000   1.0000   1.0000   1.0000   1.0000   1.0000   1.0000
     1.0000   1.0000   1.0000   1.0000   1.0000   1.0000  -0.0000  -0.0000
    -0.0000  -0.0000  -0.0000  -0.0000  -0.0000  -0.0000  -0.0000  -0.0000
    -0.0000  -0.0000  -0.0000  -0.0000  -0.0000  -0.0000

          k = 0.0000 0.0000 0.3333 (  9606 PWs)   bands (ev):

   -56.5068 -56.5068 -56.4917 -56.4917 -56.4768 -56.4768 -56.4745 -56.4745
   -28.5892 -28.5825 -28.5813 -28.5776 -28.5420 -28.5395 -28.5011 -28.5005
   -27.6377 -27.6298 -27.5817 -27.5772 -27.5617 -27.5420 -27.5368 -27.5278
   -27.5263 -27.4957 -27.4775 -27.4644 -27.4615 -27.4506 -27.4460 -27.4399
     3.4511   3.4511   5.4202   5.4209   7.8605   7.8645   8.5104   8.5200
     9.6516   9.6531  10.6589  10.6612  10.7713  10.7838  11.0450  11.0479
    11.8633  11.8653  12.1347  12.1504  12.8388  12.8549  12.9335  12.9429
    13.1155  13.1214  13.1709  13.1761  13.2592  13.2620  13.3947  13.3970
    13.4525  13.4546  13.9165  13.9204  14.1181  14.1249  14.8903  14.9244
    15.3594  15.3679  15.5375  15.5559  15.7458  15.7741  15.8558  15.8799
    16.1956  16.2115  16.3714  16.3850  17.3067  17.3227

     occupation numbers 
     1.0000   1.0000   1.0000   1.0000   1.0000   1.0000   1.0000   1.0000
     1.0000   1.0000   1.0000   1.0000   1.0000   1.0000   1.0000   1.0000
     1.0000   1.0000   1.0000   1.0000   1.0000   1.0000   1.0000   1.0000
     1.0000   1.0000   1.0000   1.0000   1.0000   1.0000   1.0000   1.0000
     1.0000   1.0000   1.0000   1.0000   1.0000   1.0000   1.0000   1.0000
     1.0000   1.0000   1.0000   1.0000   1.0000   1.0000   1.0000   1.0000
     1.0000   1.0000   1.0000   1.0000   1.0000   1.0000   1.0000   1.0000
     1.0000   1.0000   1.0000   1.0000   1.0000   1.0000   1.0000   1.0000
     1.0000   1.0000   1.0000   1.0000   1.0000   1.0000   0.8512   0.6278
    -0.0000  -0.0000  -0.0000  -0.0000  -0.0000  -0.0000  -0.0000  -0.0000
    -0.0000  -0.0000  -0.0000  -0.0000  -0.0000  -0.0000

          k = 0.0000 0.0000-0.5000 (  9658 PWs)   bands (ev):

   -56.4996 -56.4996 -56.4996 -56.4996 -56.4752 -56.4752 -56.4752 -56.4752
   -28.5867 -28.5867 -28.5811 -28.5811 -28.5207 -28.5207 -28.5193 -28.5193
   -27.6365 -27.6365 -27.5715 -27.5715 -27.5564 -27.5564 -27.5335 -27.5335
   -27.5026 -27.5026 -27.4781 -27.4781 -27.4564 -27.4564 -27.4428 -27.4428
     4.3286   4.3286   4.3288   4.3288   8.2831   8.2831   8.2895   8.2895
    10.0168  10.0168  10.0208  10.0208  10.8982  10.8982  10.9094  10.9094
    12.2478  12.2478  12.2544  12.2544  12.6860  12.6860  12.6985  12.6985
    13.1428  13.1428  13.1432  13.1432  13.2382  13.2382  13.2418  13.2418
    13.7832  13.7832  13.7864  13.7864  14.5659  14.5659  14.5945  14.5945
    15.4030  15.4030  15.4209  15.4209  15.8076  15.8076  15.8373  15.8373
    16.1668  16.1668  16.1805  16.1805  17.5446  17.5476

     occupation numbers 
     1.0000   1.0000   1.0000   1.0000   1.0000   1.0000   1.0000   1.0000
     1.0000   1.0000   1.0000   1.0000   1.0000   1.0000   1.0000   1.0000
     1.0000   1.0000   1.0000   1.0000   1.0000   1.0000   1.0000   1.0000
     1.0000   1.0000   1.0000   1.0000   1.0000   1.0000   1.0000   1.0000
     1.0000   1.0000   1.0000   1.0000   1.0000   1.0000   1.0000   1.0000
     1.0000   1.0000   1.0000   1.0000   1.0000   1.0000   1.0000   1.0000
     1.0000   1.0000   1.0000   1.0000   1.0000   1.0000   1.0000   1.0000
     1.0000   1.0000   1.0000   1.0000   1.0000   1.0000   1.0000   1.0000
     1.0000   1.0000   1.0000   1.0000   1.0000   1.0000   1.0000   1.0000
    -0.0000  -0.0000  -0.0000  -0.0000  -0.0000  -0.0000  -0.0000  -0.0000
    -0.0000  -0.0000  -0.0000  -0.0000  -0.0000  -0.0000

          k = 0.0000 0.1667 0.1667 (  9657 PWs)   bands (ev):

   -56.5100 -56.5100 -56.4863 -56.4863 -56.4788 -56.4788 -56.4747 -56.4747
   -28.5884 -28.5825 -28.5734 -28.5732 -28.5571 -28.5533 -28.4919 -28.4918
   -27.6307 -27.6266 -27.5909 -27.5869 -27.5504 -27.5471 -27.5428 -27.5358
   -27.5195 -27.5058 -27.4688 -27.4651 -27.4578 -27.4490 -27.4422 -27.4380
     3.0803   3.0803   6.3974   6.4018   7.2079   7.2122   8.4073   8.4127
     9.8328   9.8361  10.5099  10.5123  10.7874  10.7887  11.3574  11.3604
    11.7800  11.7804  12.4123  12.4179  12.5880  12.5957  12.9953  12.9966
    13.0912  13.0994  13.1728  13.1735  13.2443  13.2509  13.3366  13.3416
    13.4678  13.4757  13.7330  13.7472  14.0759  14.0833  15.2529  15.2746
    15.3024  15.3217  15.5370  15.5491  15.6970  15.7180  15.8154  15.8399
    16.2781  16.2950  16.6077  16.6175  17.0335  17.0680

     occupation numbers 
     1.0000   1.0000   1.0000   1.0000   1.0000   1.0000   1.0000   1.0000
     1.0000   1.0000   1.0000   1.0000   1.0000   1.0000   1.0000   1.0000
     1.0000   1.0000   1.0000   1.0000   1.0000   1.0000   1.0000   1.0000
     1.0000   1.0000   1.0000   1.0000   1.0000   1.0000   1.0000   1.0000
     1.0000   1.0000   1.0000   1.0000   1.0000   1.0000   1.0000   1.0000
     1.0000   1.0000   1.0000   1.0000   1.0000   1.0000   1.0000   1.0000
     1.0000   1.0000   1.0000   1.0000   1.0000   1.0000   1.0000   1.0000
     1.0000   1.0000   1.0000   1.0000   1.0000   1.0000   1.0000   1.0000
     1.0000   1.0000   1.0000   1.0000   1.0000   1.0000  -0.0002  -0.0001
    -0.0000  -0.0000  -0.0000  -0.0000  -0.0000  -0.0000  -0.0000  -0.0000
    -0.0000  -0.0000  -0.0000  -0.0000  -0.0000  -0.0000

          k = 0.0000 0.1667 0.3333 (  9647 PWs)   bands (ev):

   -56.5054 -56.5054 -56.4918 -56.4918 -56.4778 -56.4778 -56.4747 -56.4747
   -28.5882 -28.5831 -28.5771 -28.5749 -28.5426 -28.5401 -28.5050 -28.5046
   -27.6340 -27.6286 -27.5799 -27.5743 -27.5604 -27.5470 -27.5404 -27.5325
   -27.5208 -27.4920 -27.4862 -27.4706 -27.4635 -27.4521 -27.4386 -27.4349
     3.6328   3.6330   5.5378   5.5395   7.3632   7.3658   8.4331   8.4364
     9.7330   9.7362  10.1893  10.1936  10.9879  10.9910  11.3853  11.3949
    11.7524  11.7568  12.1894  12.1982  12.5947  12.6023  12.8767  12.8855
    13.1130  13.1225  13.2521  13.2579  13.3798  13.3811  13.5265  13.5365
    13.5897  13.6028  13.9892  13.9998  14.2440  14.2565  14.9100  14.9410
    15.2259  15.2446  15.3464  15.3564  15.6554  15.6804  15.8073  15.8376
    16.1525  16.1619  16.4401  16.4532  17.2370  17.2699

     occupation numbers 
     1.0000   1.0000   1.0000   1.0000   1.0000   1.0000   1.0000   1.0000
     1.0000   1.0000   1.0000   1.0000   1.0000   1.0000   1.0000   1.0000
     1.0000   1.0000   1.0000   1.0000   1.0000   1.0000   1.0000   1.0000
     1.0000   1.0000   1.0000   1.0000   1.0000   1.0000   1.0000   1.0000
     1.0000   1.0000   1.0000   1.0000   1.0000   1.0000   1.0000   1.0000
     1.0000   1.0000   1.0000   1.0000   1.0000   1.0000   1.0000   1.0000
     1.0000   1.0000   1.0000   1.0000   1.0000   1.0000   1.0000   1.0000
     1.0000   1.0000   1.0000   1.0000   1.0000   1.0000   1.0000   1.0000
     1.0000   1.0000   1.0000   1.0000   1.0000   1.0000   0.7308   0.5003
    -0.0007  -0.0003  -0.0000  -0.0000  -0.0000  -0.0000  -0.0000  -0.0000
    -0.0000  -0.0000  -0.0000  -0.0000  -0.0000  -0.0000

          k = 0.0000 0.1667-0.5000 (  9654 PWs)   bands (ev):

   -56.4988 -56.4988 -56.4988 -56.4988 -56.4760 -56.4760 -56.4760 -56.4760
   -28.5844 -28.5844 -28.5789 -28.5789 -28.5241 -28.5241 -28.5215 -28.5215
   -27.6323 -27.6323 -27.5716 -27.5716 -27.5571 -27.5571 -27.5329 -27.5329
   -27.5104 -27.5104 -27.4784 -27.4784 -27.4590 -27.4590 -27.4358 -27.4358
     4.4933   4.4933   4.4940   4.4940   7.8954   7.8954   7.9022   7.9022
    10.0149  10.0149  10.0189  10.0189  11.1034  11.1034  11.1175  11.1175
    12.0906  12.0906  12.0951  12.0951  12.5404  12.5404  12.5562  12.5562
    13.2765  13.2765  13.2774  13.2774  13.3917  13.3917  13.3929  13.3929
    13.8670  13.8670  13.8709  13.8709  14.6211  14.6211  14.6524  14.6524
    15.2389  15.2389  15.2536  15.2536  15.7156  15.7156  15.7453  15.7453
    16.2404  16.2404  16.2511  16.2511  17.4841  17.4872

     occupation numbers 
     1.0000   1.0000   1.0000   1.0000   1.0000   1.0000   1.0000   1.0000
     1.0000   1.0000   1.0000   1.0000   1.0000   1.0000   1.0000   1.0000
     1.0000   1.0000   1.0000   1.0000   1.0000   1.0000   1.0000   1.0000
     1.0000   1.0000   1.0000   1.0000   1.0000   1.0000   1.0000   1.0000
     1.0000   1.0000   1.0000   1.0000   1.0000   1.0000   1.0000   1.0000
     1.0000   1.0000   1.0000   1.0000   1.0000   1.0000   1.0000   1.0000
     1.0000   1.0000   1.0000   1.0000   1.0000   1.0000   1.0000   1.0000
     1.0000   1.0000   1.0000   1.0000   1.0000   1.0000   1.0000   1.0000
     1.0000   1.0000   1.0000   1.0000   1.0001   1.0001   1.0006   1.0006
    -0.0004  -0.0004  -0.0002  -0.0002  -0.0000  -0.0000  -0.0000  -0.0000
    -0.0000  -0.0000  -0.0000  -0.0000  -0.0000  -0.0000

          k = 0.0000 0.3333 0.3333 (  9619 PWs)   bands (ev):

   -56.5018 -56.5018 -56.4932 -56.4932 -56.4788 -56.4788 -56.4759 -56.4759
   -28.5843 -28.5804 -28.5733 -28.5724 -28.5403 -28.5380 -28.5158 -28.5151
   -27.6255 -27.6242 -27.5810 -27.5753 -27.5563 -27.5486 -27.5368 -27.5359
   -27.5196 -27.5000 -27.4977 -27.4863 -27.4575 -27.4437 -27.4343 -27.4311
     4.1583   4.1587   5.6400   5.6421   6.6786   6.6813   7.8201   7.8238
    10.0317  10.0344  10.3052  10.3082  10.9412  10.9429  11.2584  11.2606
    11.8950  11.9017  12.1583  12.1628  12.3098  12.3194  12.6286  12.6365
    13.1797  13.1881  13.3915  13.3965  13.5604  13.5632  13.7208  13.7262
    13.8838  13.8954  14.0947  14.1074  14.4882  14.5139  14.8489  14.8605
    14.9417  14.9620  15.0584  15.0751  15.5233  15.5465  15.6037  15.6337
    16.2332  16.2420  16.4906  16.4975  17.1476  17.1782

     occupation numbers 
     1.0000   1.0000   1.0000   1.0000   1.0000   1.0000   1.0000   1.0000
     1.0000   1.0000   1.0000   1.0000   1.0000   1.0000   1.0000   1.0000
     1.0000   1.0000   1.0000   1.0000   1.0000   1.0000   1.0000   1.0000
     1.0000   1.0000   1.0000   1.0000   1.0000   1.0000   1.0000   1.0000
     1.0000   1.0000   1.0000   1.0000   1.0000   1.0000   1.0000   1.0000
     1.0000   1.0000   1.0000   1.0000   1.0000   1.0000   1.0000   1.0000
     1.0000   1.0000   1.0000   1.0000   1.0000   1.0000   1.0000   1.0000
     1.0000   1.0000   1.0000   1.0000   1.0000   1.0000   1.0000   1.0000
     1.0000   1.0000   1.0000   1.0000   1.0000   1.0000   1.0011   0.9731
     0.4950   0.3406  -0.0315  -0.0355  -0.0000  -0.0000  -0.0000  -0.0000
    -0.0000  -0.0000  -0.0000  -0.0000  -0.0000  -0.0000

          k = 0.0000 0.3333-0.5000 (  9646 PWs)   bands (ev):

   -56.4970 -56.4970 -56.4970 -56.4970 -56.4778 -56.4778 -56.4778 -56.4778
   -28.5785 -28.5785 -28.5743 -28.5743 -28.5304 -28.5304 -28.5275 -28.5275
   -27.6202 -27.6202 -27.5833 -27.5833 -27.5486 -27.5486 -27.5308 -27.5308
   -27.5186 -27.5186 -27.4972 -27.4972 -27.4462 -27.4462 -27.4316 -27.4316
     4.9495   4.9495   4.9509   4.9509   7.0287   7.0287   7.0336   7.0336
    10.3308  10.3308  10.3328  10.3328  11.2380  11.2380  11.2464  11.2464
    11.7611  11.7611  11.7666  11.7666  12.3342  12.3342  12.3416  12.3416
    13.3673  13.3673  13.3743  13.3743  13.6755  13.6755  13.6842  13.6842
    14.1709  14.1709  14.1764  14.1764  14.6114  14.6114  14.6305  14.6305
    14.9442  14.9442  14.9591  14.9591  15.4991  15.4991  15.5233  15.5233
    16.4412  16.4412  16.4519  16.4519  17.1959  17.1964

     occupation numbers 
     1.0000   1.0000   1.0000   1.0000   1.0000   1.0000   1.0000   1.0000
     1.0000   1.0000   1.0000   1.0000   1.0000   1.0000   1.0000   1.0000
     1.0000   1.0000   1.0000   1.0000   1.0000   1.0000   1.0000   1.0000
     1.0000   1.0000   1.0000   1.0000   1.0000   1.0000   1.0000   1.0000
     1.0000   1.0000   1.0000   1.0000   1.0000   1.0000   1.0000   1.0000
     1.0000   1.0000   1.0000   1.0000   1.0000   1.0000   1.0000   1.0000
     1.0000   1.0000   1.0000   1.0000   1.0000   1.0000   1.0000   1.0000
     1.0000   1.0000   1.0000   1.0000   1.0000   1.0000   1.0000   1.0000
     1.0000   1.0000   1.0000   1.0000   1.0001   1.0001   1.0002   1.0002
     0.4756   0.4756   0.3619   0.3619  -0.0000  -0.0000  -0.0000  -0.0000
    -0.0000  -0.0000  -0.0000  -0.0000  -0.0000  -0.0000

          k = 0.0000-0.5000-0.5000 (  9580 PWs)   bands (ev):

   -56.4960 -56.4960 -56.4960 -56.4960 -56.4788 -56.4788 -56.4788 -56.4788
   -28.5733 -28.5733 -28.5733 -28.5733 -28.5326 -28.5326 -28.5326 -28.5326
   -27.6024 -27.6024 -27.6024 -27.6024 -27.5351 -27.5351 -27.5351 -27.5351
   -27.5151 -27.5151 -27.5151 -27.5151 -27.4353 -27.4353 -27.4353 -27.4353
     5.3714   5.3714   5.3714   5.3714   6.4278   6.4278   6.4278   6.4278
    10.7061  10.7061  10.7061  10.7061  11.2432  11.2432  11.2432  11.2432
    11.3854  11.3854  11.3854  11.3854  12.2846  12.2846  12.2846  12.2846
    13.3626  13.3626  13.3626  13.3626  14.0077  14.0077  14.0077  14.0077
    14.2949  14.2949  14.2949  14.2949  14.5257  14.5257  14.5257  14.5257
    14.7582  14.7582  14.7582  14.7582  15.4185  15.4185  15.4185  15.4185
    16.5881  16.5881  16.5882  16.5882  16.9855  16.9855

     occupation numbers 
     1.0000   1.0000   1.0000   1.0000   1.0000   1.0000   1.0000   1.0000
     1.0000   1.0000   1.0000   1.0000   1.0000   1.0000   1.0000   1.0000
     1.0000   1.0000   1.0000   1.0000   1.0000   1.0000   1.0000   1.0000
     1.0000   1.0000   1.0000   1.0000   1.0000   1.0000   1.0000   1.0000
     1.0000   1.0000   1.0000   1.0000   1.0000   1.0000   1.0000   1.0000
     1.0000   1.0000   1.0000   1.0000   1.0000   1.0000   1.0000   1.0000
     1.0000   1.0000   1.0000   1.0000   1.0000   1.0000   1.0000   1.0000
     1.0000   1.0000   1.0000   1.0000   1.0000   1.0000   1.0000   1.0000
     1.0000   1.0000   1.0000   1.0000   1.0000   1.0000   1.0000   1.0000
     1.0194   1.0194   1.0194   1.0194  -0.0000  -0.0000  -0.0000  -0.0000
    -0.0000  -0.0000  -0.0000  -0.0000  -0.0000  -0.0000

          k = 0.1667 0.1667 0.1667 (  9627 PWs)   bands (ev):

   -56.5085 -56.5085 -56.4874 -56.4874 -56.4794 -56.4794 -56.4745 -56.4745
   -28.5887 -28.5833 -28.5714 -28.5714 -28.5550 -28.5510 -28.4965 -28.4962
   -27.6301 -27.6277 -27.5883 -27.5795 -27.5508 -27.5467 -27.5455 -27.5430
   -27.5139 -27.5006 -27.4783 -27.4652 -27.4584 -27.4548 -27.4372 -27.4366
     3.2674   3.2674   6.3451   6.3519   7.0385   7.0472   8.3237   8.3259
     9.7323   9.7350  10.5177  10.5185  10.5473  10.5486  11.3856  11.3911
    11.9879  11.9884  12.3202  12.3284  12.8287  12.8341  12.8347  12.8410
    13.1026  13.1079  13.1344  13.1345  13.2102  13.2162  13.5217  13.5268
    13.6009  13.6104  13.7837  13.7891  14.1528  14.1614  15.2054  15.2201
    15.2730  15.2877  15.4716  15.4729  15.5237  15.5393  15.7932  15.8080
    16.2243  16.2411  16.6033  16.6148  17.0477  17.0879

     occupation numbers 
     1.0000   1.0000   1.0000   1.0000   1.0000   1.0000   1.0000   1.0000
     1.0000   1.0000   1.0000   1.0000   1.0000   1.0000   1.0000   1.0000
     1.0000   1.0000   1.0000   1.0000   1.0000   1.0000   1.0000   1.0000
     1.0000   1.0000   1.0000   1.0000   1.0000   1.0000   1.0000   1.0000
     1.0000   1.0000   1.0000   1.0000   1.0000   1.0000   1.0000   1.0000
     1.0000   1.0000   1.0000   1.0000   1.0000   1.0000   1.0000   1.0000
     1.0000   1.0000   1.0000   1.0000   1.0000   1.0000   1.0000   1.0000
     1.0000   1.0000   1.0000   1.0000   1.0000   1.0000   1.0000   1.0000
     1.0000   1.0000   1.0000   1.0000   1.0000   1.0000  -0.0016  -0.0009
    -0.0001  -0.0000  -0.0000  -0.0000  -0.0000  -0.0000  -0.0000  -0.0000
    -0.0000  -0.0000  -0.0000  -0.0000  -0.0000  -0.0000

          k = 0.1667 0.1667 0.3333 (  9629 PWs)   bands (ev):

   -56.5041 -56.5041 -56.4917 -56.4917 -56.4788 -56.4788 -56.4751 -56.4751
   -28.5869 -28.5823 -28.5741 -28.5725 -28.5436 -28.5409 -28.5090 -28.5083
   -27.6307 -27.6265 -27.5794 -27.5712 -27.5591 -27.5499 -27.5428 -27.5379
   -27.5154 -27.5020 -27.4795 -27.4693 -27.4671 -27.4556 -27.4349 -27.4333
     3.8117   3.8119   5.6523   5.6545   7.1828   7.1868   8.2393   8.2428
     9.3520   9.3544  10.2216  10.2240  10.9247  10.9284  11.4678  11.4711
    11.8292  11.8334  12.2177  12.2198  12.7508  12.7598  12.9443  12.9504
    13.0783  13.0869  13.1964  13.2049  13.2926  13.2962  13.5439  13.5507
    13.7621  13.7673  14.0126  14.0215  14.3521  14.3694  14.9066  14.9341
    15.1902  15.2054  15.2826  15.2925  15.5029  15.5175  15.7134  15.7343
    16.1659  16.1754  16.4531  16.4669  17.2169  17.2480

     occupation numbers 
     1.0000   1.0000   1.0000   1.0000   1.0000   1.0000   1.0000   1.0000
     1.0000   1.0000   1.0000   1.0000   1.0000   1.0000   1.0000   1.0000
     1.0000   1.0000   1.0000   1.0000   1.0000   1.0000   1.0000   1.0000
     1.0000   1.0000   1.0000   1.0000   1.0000   1.0000   1.0000   1.0000
     1.0000   1.0000   1.0000   1.0000   1.0000   1.0000   1.0000   1.0000
     1.0000   1.0000   1.0000   1.0000   1.0000   1.0000   1.0000   1.0000
     1.0000   1.0000   1.0000   1.0000   1.0000   1.0000   1.0000   1.0000
     1.0000   1.0000   1.0000   1.0000   1.0000   1.0000   1.0000   1.0000
     1.0000   1.0000   1.0000   1.0000   1.0000   1.0000   0.7534   0.5541
    -0.0028  -0.0016  -0.0000  -0.0000  -0.0000  -0.0000  -0.0000  -0.0000
    -0.0000  -0.0000  -0.0000  -0.0000  -0.0000  -0.0000

          k = 0.1667 0.1667-0.5000 (  9658 PWs)   bands (ev):

   -56.4980 -56.4980 -56.4980 -56.4980 -56.4769 -56.4769 -56.4769 -56.4769
   -28.5821 -28.5821 -28.5767 -28.5767 -28.5272 -28.5272 -28.5239 -28.5239
   -27.6284 -27.6284 -27.5698 -27.5698 -27.5609 -27.5609 -27.5314 -27.5314
   -27.5166 -27.5166 -27.4747 -27.4747 -27.4618 -27.4618 -27.4332 -27.4332
     4.6546   4.6546   4.6554   4.6554   7.7186   7.7186   7.7248   7.7248
     9.6725   9.6725   9.6738   9.6738  11.3991  11.3991  11.4073  11.4073
    11.8732  11.8732  11.8768  11.8768  12.7973  12.7973  12.8093  12.8093
    13.1814  13.1814  13.1919  13.1919  13.4175  13.4175  13.4216  13.4216
    13.9222  13.9222  13.9301  13.9301  14.6726  14.6726  14.7065  14.7065
    15.1625  15.1625  15.1826  15.1826  15.6038  15.6038  15.6265  15.6265
    16.2597  16.2597  16.2694  16.2694  17.5699  17.5707

     occupation numbers 
     1.0000   1.0000   1.0000   1.0000   1.0000   1.0000   1.0000   1.0000
     1.0000   1.0000   1.0000   1.0000   1.0000   1.0000   1.0000   1.0000
     1.0000   1.0000   1.0000   1.0000   1.0000   1.0000   1.0000   1.0000
     1.0000   1.0000   1.0000   1.0000   1.0000   1.0000   1.0000   1.0000
     1.0000   1.0000   1.0000   1.0000   1.0000   1.0000   1.0000   1.0000
     1.0000   1.0000   1.0000   1.0000   1.0000   1.0000   1.0000   1.0000
     1.0000   1.0000   1.0000   1.0000   1.0000   1.0000   1.0000   1.0000
     1.0000   1.0000   1.0000   1.0000   1.0000   1.0000   1.0000   1.0000
     1.0000   1.0000   1.0000   1.0000   1.0013   1.0013   1.0047   1.0047
    -0.0071  -0.0071  -0.0037  -0.0037  -0.0000  -0.0000  -0.0000  -0.0000
    -0.0000  -0.0000  -0.0000  -0.0000  -0.0000  -0.0000

          k = 0.1667 0.3333 0.3333 (  9651 PWs)   bands (ev):

   -56.5006 -56.5006 -56.4926 -56.4926 -56.4799 -56.4799 -56.4767 -56.4767
   -28.5824 -28.5786 -28.5707 -28.5699 -28.5423 -28.5400 -28.5194 -28.5183
   -27.6232 -27.6204 -27.5801 -27.5728 -27.5611 -27.5525 -27.5412 -27.5344
   -27.5184 -27.5095 -27.4856 -27.4775 -27.4613 -27.4499 -27.4341 -27.4308
     4.3283   4.3287   5.7582   5.7616   6.7215   6.7270   7.7771   7.7807
     9.2003   9.2037  10.0628  10.0664  10.9682  10.9705  11.5786  11.5828
    11.7448  11.7470  12.2591  12.2626  12.4932  12.4995  12.8110  12.8175
    13.1510  13.1552  13.2525  13.2648  13.3995  13.4069  13.6918  13.7070
    13.9168  13.9330  14.2281  14.2389  14.5640  14.5922  14.8636  14.8776
    14.9475  14.9586  15.1231  15.1498  15.4062  15.4090  15.5524  15.5679
    16.2282  16.2358  16.4574  16.4655  17.0968  17.1217

     occupation numbers 
     1.0000   1.0000   1.0000   1.0000   1.0000   1.0000   1.0000   1.0000
     1.0000   1.0000   1.0000   1.0000   1.0000   1.0000   1.0000   1.0000
     1.0000   1.0000   1.0000   1.0000   1.0000   1.0000   1.0000   1.0000
     1.0000   1.0000   1.0000   1.0000   1.0000   1.0000   1.0000   1.0000
     1.0000   1.0000   1.0000   1.0000   1.0000   1.0000   1.0000   1.0000
     1.0000   1.0000   1.0000   1.0000   1.0000   1.0000   1.0000   1.0000
     1.0000   1.0000   1.0000   1.0000   1.0000   1.0000   1.0000   1.0000
     1.0000   1.0000   1.0000   1.0000   1.0000   1.0000   1.0000   1.0000
     1.0000   1.0000   1.0000   1.0000   1.0000   1.0000   0.9641   0.9122
     0.4502   0.3658  -0.0198  -0.0103  -0.0000  -0.0000  -0.0000  -0.0000
    -0.0000  -0.0000  -0.0000  -0.0000  -0.0000  -0.0000

          k = 0.1667 0.3333-0.5000 (  9682 PWs)   bands (ev):

   -56.4960 -56.4960 -56.4960 -56.4960 -56.4788 -56.4788 -56.4788 -56.4788
   -28.5762 -28.5762 -28.5720 -28.5720 -28.5334 -28.5334 -28.5302 -28.5302
   -27.6170 -27.6170 -27.5810 -27.5810 -27.5566 -27.5566 -27.5324 -27.5324
   -27.5185 -27.5185 -27.4871 -27.4871 -27.4509 -27.4509 -27.4324 -27.4324
     5.1002   5.1002   5.1016   5.1016   7.0734   7.0734   7.0787   7.0787
     9.6226   9.6226   9.6263   9.6263  11.2870  11.2870  11.2888  11.2888
    11.9344  11.9344  11.9433  11.9433  12.5633  12.5633  12.5725  12.5725
    13.2649  13.2649  13.2710  13.2710  13.5484  13.5484  13.5634  13.5634
    14.2341  14.2341  14.2430  14.2430  14.7090  14.7090  14.7303  14.7303
    14.9619  14.9619  14.9797  14.9797  15.4431  15.4431  15.4599  15.4599
    16.3839  16.3839  16.3915  16.3915  17.1589  17.1616

     occupation numbers 
     1.0000   1.0000   1.0000   1.0000   1.0000   1.0000   1.0000   1.0000
     1.0000   1.0000   1.0000   1.0000   1.0000   1.0000   1.0000   1.0000
     1.0000   1.0000   1.0000   1.0000   1.0000   1.0000   1.0000   1.0000
     1.0000   1.0000   1.0000   1.0000   1.0000   1.0000   1.0000   1.0000
     1.0000   1.0000   1.0000   1.0000   1.0000   1.0000   1.0000   1.0000
     1.0000   1.0000   1.0000   1.0000   1.0000   1.0000   1.0000   1.0000
     1.0000   1.0000   1.0000   1.0000   1.0000   1.0000   1.0000   1.0000
     1.0000   1.0000   1.0000   1.0000   1.0000   1.0000   1.0000   1.0000
     1.0000   1.0000   1.0000   1.0000   1.0051   1.0051   1.0098   1.0098
     0.3413   0.3413   0.2194   0.2194  -0.0000  -0.0000  -0.0000  -0.0000
    -0.0000  -0.0000  -0.0000  -0.0000  -0.0000  -0.0000

          k = 0.1667-0.5000-0.5000 (  9628 PWs)   bands (ev):

   -56.4949 -56.4949 -56.4949 -56.4949 -56.4800 -56.4800 -56.4800 -56.4800
   -28.5709 -28.5709 -28.5707 -28.5707 -28.5357 -28.5357 -28.5355 -28.5355
   -27.6032 -27.6032 -27.5963 -27.5963 -27.5511 -27.5511 -27.5364 -27.5364
   -27.5130 -27.5130 -27.4978 -27.4978 -27.4418 -27.4418 -27.4359 -27.4359
     5.5079   5.5079   5.5093   5.5093   6.5307   6.5307   6.5333   6.5333
     9.8343   9.8343   9.8385   9.8385  10.8959  10.8959  10.8981  10.8981
    12.1892  12.1892  12.1918  12.1918  12.3742  12.3742  12.3773  12.3773
    13.2214  13.2214  13.2222  13.2222  13.7556  13.7556  13.7695  13.7695
    14.3908  14.3908  14.3978  14.3978  14.6955  14.6955  14.7129  14.7129
    14.8370  14.8370  14.8388  14.8388  15.3652  15.3652  15.3654  15.3654
    16.4848  16.4848  16.4863  16.4863  16.9513  16.9528

     occupation numbers 
     1.0000   1.0000   1.0000   1.0000   1.0000   1.0000   1.0000   1.0000
     1.0000   1.0000   1.0000   1.0000   1.0000   1.0000   1.0000   1.0000
     1.0000   1.0000   1.0000   1.0000   1.0000   1.0000   1.0000   1.0000
     1.0000   1.0000   1.0000   1.0000   1.0000   1.0000   1.0000   1.0000
     1.0000   1.0000   1.0000   1.0000   1.0000   1.0000   1.0000   1.0000
     1.0000   1.0000   1.0000   1.0000   1.0000   1.0000   1.0000   1.0000
     1.0000   1.0000   1.0000   1.0000   1.0000   1.0000   1.0000   1.0000
     1.0000   1.0000   1.0000   1.0000   1.0000   1.0000   1.0000   1.0000
     1.0000   1.0000   1.0000   1.0000   1.0032   1.0032   1.0058   1.0058
     1.0200   1.0200   1.0176   1.0176  -0.0000  -0.0000  -0.0000  -0.0000
    -0.0000  -0.0000  -0.0000  -0.0000  -0.0000  -0.0000

          k = 0.3333 0.3333 0.3333 (  9690 PWs)   bands (ev):

   -56.4974 -56.4974 -56.4917 -56.4917 -56.4818 -56.4818 -56.4788 -56.4788
   -28.5768 -28.5737 -28.5658 -28.5657 -28.5450 -28.5431 -28.5286 -28.5271
   -27.6155 -27.6119 -27.5786 -27.5688 -27.5686 -27.5672 -27.5451 -27.5320
   -27.5220 -27.5020 -27.4813 -27.4630 -27.4628 -27.4623 -27.4363 -27.4330
     4.8144   4.8149   5.9667   5.9732   6.6628   6.6732   7.5021   7.5047
     8.7481   8.7531   9.4978   9.5042  10.5489  10.5535  11.1928  11.1947
    12.0053  12.0071  12.4959  12.4990  12.7672  12.7713  12.8473  12.8490
    13.1367  13.1485  13.1945  13.2012  13.2641  13.2663  13.5429  13.5461
    14.1380  14.1427  14.4898  14.4981  14.7903  14.8271  14.8483  14.8600
    14.9937  15.0046  15.1350  15.1409  15.2611  15.2881  15.4111  15.4304
    16.2524  16.2594  16.3867  16.3894  16.9528  16.9611

     occupation numbers 
     1.0000   1.0000   1.0000   1.0000   1.0000   1.0000   1.0000   1.0000
     1.0000   1.0000   1.0000   1.0000   1.0000   1.0000   1.0000   1.0000
     1.0000   1.0000   1.0000   1.0000   1.0000   1.0000   1.0000   1.0000
     1.0000   1.0000   1.0000   1.0000   1.0000   1.0000   1.0000   1.0000
     1.0000   1.0000   1.0000   1.0000   1.0000   1.0000   1.0000   1.0000
     1.0000   1.0000   1.0000   1.0000   1.0000   1.0000   1.0000   1.0000
     1.0000   1.0000   1.0000   1.0000   1.0000   1.0000   1.0000   1.0000
     1.0000   1.0000   1.0000   1.0000   1.0000   1.0000   1.0000   1.0000
     1.0000   1.0000   1.0000   1.0000   1.0323   1.0294   1.0023   0.9747
     0.1389   0.0873  -0.0152  -0.0131  -0.0001  -0.0000  -0.0000  -0.0000
    -0.0000  -0.0000  -0.0000  -0.0000  -0.0000  -0.0000

          k = 0.3333 0.3333-0.5000 (  9648 PWs)   bands (ev):

   -56.4935 -56.4935 -56.4935 -56.4935 -56.4813 -56.4813 -56.4813 -56.4813
   -28.5700 -28.5700 -28.5664 -28.5664 -28.5404 -28.5404 -28.5372 -28.5372
   -27.6078 -27.6078 -27.5790 -27.5790 -27.5685 -27.5685 -27.5418 -27.5418
   -27.5075 -27.5075 -27.4756 -27.4756 -27.4572 -27.4572 -27.4373 -27.4373
     5.5137   5.5137   5.5156   5.5156   6.9762   6.9762   6.9821   6.9821
     9.0501   9.0501   9.0560   9.0560  10.5630  10.5630  10.5660  10.5660
    12.3837  12.3837  12.3921  12.3921  12.8172  12.8172  12.8248  12.8248
    13.1312  13.1312  13.1421  13.1421  13.3759  13.3759  13.3843  13.3843
    14.4638  14.4638  14.4722  14.4722  14.8591  14.8591  14.8747  14.8747
    15.0786  15.0786  15.0979  15.0979  15.2945  15.2945  15.3108  15.3108
    16.3287  16.3287  16.3381  16.3381  16.9272  16.9292

     occupation numbers 
     1.0000   1.0000   1.0000   1.0000   1.0000   1.0000   1.0000   1.0000
     1.0000   1.0000   1.0000   1.0000   1.0000   1.0000   1.0000   1.0000
     1.0000   1.0000   1.0000   1.0000   1.0000   1.0000   1.0000   1.0000
     1.0000   1.0000   1.0000   1.0000   1.0000   1.0000   1.0000   1.0000
     1.0000   1.0000   1.0000   1.0000   1.0000   1.0000   1.0000   1.0000
     1.0000   1.0000   1.0000   1.0000   1.0000   1.0000   1.0000   1.0000
     1.0000   1.0000   1.0000   1.0000   1.0000   1.0000   1.0000   1.0000
     1.0000   1.0000   1.0000   1.0000   1.0000   1.0000   1.0000   1.0000
     1.0000   1.0000   1.0000   1.0000   0.9772   0.9772   0.9242   0.9242
    -0.0352  -0.0352  -0.0302  -0.0302  -0.0000  -0.0000  -0.0000  -0.0000
    -0.0000  -0.0000  -0.0000  -0.0000  -0.0000  -0.0000

          k = 0.3333-0.5000-0.5000 (  9668 PWs)   bands (ev):

   -56.4917 -56.4917 -56.4917 -56.4917 -56.4831 -56.4831 -56.4831 -56.4831
   -28.5641 -28.5641 -28.5638 -28.5638 -28.5438 -28.5438 -28.5434 -28.5434
   -27.5971 -27.5971 -27.5887 -27.5887 -27.5688 -27.5688 -27.5461 -27.5461
   -27.4999 -27.4999 -27.4775 -27.4775 -27.4521 -27.4521 -27.4439 -27.4439
     5.8920   5.8920   5.8951   5.8951   6.6648   6.6648   6.6703   6.6703
     9.0935   9.0935   9.1001   9.1001  10.0570  10.0570  10.0611  10.0611
    12.6127  12.6127  12.6167  12.6167  12.7983  12.7983  12.8004  12.8004
    13.0411  13.0411  13.0411  13.0411  13.3506  13.3506  13.3612  13.3612
    14.6543  14.6543  14.6619  14.6619  14.9707  14.9707  14.9782  14.9782
    15.0628  15.0628  15.0684  15.0684  15.2532  15.2532  15.2651  15.2651
    16.3657  16.3657  16.3671  16.3671  16.7181  16.7187

     occupation numbers 
     1.0000   1.0000   1.0000   1.0000   1.0000   1.0000   1.0000   1.0000
     1.0000   1.0000   1.0000   1.0000   1.0000   1.0000   1.0000   1.0000
     1.0000   1.0000   1.0000   1.0000   1.0000   1.0000   1.0000   1.0000
     1.0000   1.0000   1.0000   1.0000   1.0000   1.0000   1.0000   1.0000
     1.0000   1.0000   1.0000   1.0000   1.0000   1.0000   1.0000   1.0000
     1.0000   1.0000   1.0000   1.0000   1.0000   1.0000   1.0000   1.0000
     1.0000   1.0000   1.0000   1.0000   1.0000   1.0000   1.0000   1.0000
     1.0000   1.0000   1.0000   1.0000   1.0000   1.0000   1.0000   1.0000
     1.0006   1.0006   1.0009   1.0009   0.2788   0.2788   0.2291   0.2291
    -0.0335  -0.0335  -0.0349  -0.0349  -0.0002  -0.0002  -0.0001  -0.0001
    -0.0000  -0.0000  -0.0000  -0.0000  -0.0000  -0.0000

          k =-0.5000-0.5000-0.5000 (  9568 PWs)   bands (ev):

   -56.4874 -56.4874 -56.4874 -56.4874 -56.4874 -56.4874 -56.4874 -56.4874
   -28.5547 -28.5547 -28.5538 -28.5538 -28.5538 -28.5538 -28.5538 -28.5538
   -27.5850 -27.5850 -27.5850 -27.5850 -27.5850 -27.5850 -27.5501 -27.5501
   -27.4928 -27.4928 -27.4586 -27.4586 -27.4586 -27.4586 -27.4586 -27.4586
     6.3990   6.3990   6.3990   6.3990   6.3990   6.3990   6.4094   6.4094
     9.2381   9.2381   9.2505   9.2505   9.2505   9.2505   9.2505   9.2505
    12.9160  12.9160  12.9225  12.9225  12.9225  12.9225  12.9225  12.9225
    12.9990  12.9990  13.0038  13.0038  13.0038  13.0038  13.0038  13.0038
    14.9321  14.9321  14.9340  14.9340  14.9340  14.9340  14.9340  14.9340
    15.2349  15.2349  15.2349  15.2349  15.2349  15.2349  15.2781  15.2781
    16.4081  16.4081  16.4204  16.4204  16.4204  16.4204

     occupation numbers 
     1.0000   1.0000   1.0000   1.0000   1.0000   1.0000   1.0000   1.0000
     1.0000   1.0000   1.0000   1.0000   1.0000   1.0000   1.0000   1.0000
     1.0000   1.0000   1.0000   1.0000   1.0000   1.0000   1.0000   1.0000
     1.0000   1.0000   1.0000   1.0000   1.0000   1.0000   1.0000   1.0000
     1.0000   1.0000   1.0000   1.0000   1.0000   1.0000   1.0000   1.0000
     1.0000   1.0000   1.0000   1.0000   1.0000   1.0000   1.0000   1.0000
     1.0000   1.0000   1.0000   1.0000   1.0000   1.0000   1.0000   1.0000
     1.0000   1.0000   1.0000   1.0000   1.0000   1.0000   1.0000   1.0000
     0.5694   0.5694   0.5548   0.5548   0.5548   0.5548   0.5548   0.5548
    -0.0005  -0.0005  -0.0005  -0.0005  -0.0005  -0.0005  -0.0001  -0.0001
    -0.0000  -0.0000  -0.0000  -0.0000  -0.0000  -0.0000

          k = 0.0000 0.3333 0.1667 (  9647 PWs)   bands (ev):

   -56.5054 -56.5054 -56.4918 -56.4918 -56.4778 -56.4778 -56.4747 -56.4747
   -28.5882 -28.5832 -28.5769 -28.5750 -28.5427 -28.5399 -28.5052 -28.5044
   -27.6340 -27.6287 -27.5777 -27.5766 -27.5592 -27.5471 -27.5414 -27.5327
   -27.5203 -27.4939 -27.4835 -27.4722 -27.4630 -27.4518 -27.4385 -27.4352
     3.6327   3.6328   5.5375   5.5384   7.3652   7.3664   8.4329   8.4395
     9.7431   9.7456  10.2563  10.2625  10.9714  10.9746  11.0972  11.0998
    11.8630  11.8653  12.2420  12.2460  12.7971  12.8021  12.9750  12.9802
    13.0657  13.0720  13.2440  13.2503  13.3400  13.3447  13.4880  13.4927
    13.5381  13.5405  13.9656  13.9756  14.2292  14.2413  14.8896  14.9215
    15.2773  15.2955  15.3373  15.3543  15.6450  15.6727  15.7843  15.8100
    16.1544  16.1668  16.4217  16.4359  17.2708  17.3006

     occupation numbers 
     1.0000   1.0000   1.0000   1.0000   1.0000   1.0000   1.0000   1.0000
     1.0000   1.0000   1.0000   1.0000   1.0000   1.0000   1.0000   1.0000
     1.0000   1.0000   1.0000   1.0000   1.0000   1.0000   1.0000   1.0000
     1.0000   1.0000   1.0000   1.0000   1.0000   1.0000   1.0000   1.0000
     1.0000   1.0000   1.0000   1.0000   1.0000   1.0000   1.0000   1.0000
     1.0000   1.0000   1.0000   1.0000   1.0000   1.0000   1.0000   1.0000
     1.0000   1.0000   1.0000   1.0000   1.0000   1.0000   1.0000   1.0000
     1.0000   1.0000   1.0000   1.0000   1.0000   1.0000   1.0000   1.0000
     1.0000   1.0000   1.0000   1.0000   1.0000   1.0000   0.8551   0.6493
    -0.0001  -0.0000  -0.0000  -0.0000  -0.0000  -0.0000  -0.0000  -0.0000
    -0.0000  -0.0000  -0.0000  -0.0000  -0.0000  -0.0000

          k = 0.0000-0.5000 0.1667 (  9654 PWs)   bands (ev):

   -56.4988 -56.4988 -56.4988 -56.4988 -56.4760 -56.4760 -56.4760 -56.4760
   -28.5844 -28.5844 -28.5789 -28.5789 -28.5242 -28.5242 -28.5214 -28.5214
   -27.6324 -27.6324 -27.5706 -27.5706 -27.5578 -27.5578 -27.5330 -27.5330
   -27.5105 -27.5105 -27.4784 -27.4784 -27.4587 -27.4587 -27.4359 -27.4359
     4.4930   4.4930   4.4935   4.4935   7.8973   7.8973   7.9020   7.9020
    10.1026  10.1026  10.1077  10.1077  10.8749  10.8749  10.8821  10.8821
    12.1416  12.1416  12.1465  12.1465  12.8620  12.8620  12.8711  12.8711
    13.1082  13.1082  13.1162  13.1162  13.3969  13.3969  13.4061  13.4061
    13.8073  13.8073  13.8127  13.8127  14.6073  14.6073  14.6384  14.6384
    15.2590  15.2590  15.2813  15.2813  15.6829  15.6829  15.7114  15.7114
    16.2153  16.2153  16.2270  16.2270  17.5919  17.5977

     occupation numbers 
     1.0000   1.0000   1.0000   1.0000   1.0000   1.0000   1.0000   1.0000
     1.0000   1.0000   1.0000   1.0000   1.0000   1.0000   1.0000   1.0000
     1.0000   1.0000   1.0000   1.0000   1.0000   1.0000   1.0000   1.0000
     1.0000   1.0000   1.0000   1.0000   1.0000   1.0000   1.0000   1.0000
     1.0000   1.0000   1.0000   1.0000   1.0000   1.0000   1.0000   1.0000
     1.0000   1.0000   1.0000   1.0000   1.0000   1.0000   1.0000   1.0000
     1.0000   1.0000   1.0000   1.0000   1.0000   1.0000   1.0000   1.0000
     1.0000   1.0000   1.0000   1.0000   1.0000   1.0000   1.0000   1.0000
     1.0000   1.0000   1.0000   1.0000   1.0001   1.0001   1.0003   1.0003
    -0.0001  -0.0001  -0.0000  -0.0000  -0.0000  -0.0000  -0.0000  -0.0000
    -0.0000  -0.0000  -0.0000  -0.0000  -0.0000  -0.0000

          k = 0.0000-0.5000 0.3333 (  9646 PWs)   bands (ev):

   -56.4970 -56.4970 -56.4970 -56.4970 -56.4778 -56.4778 -56.4778 -56.4778
   -28.5785 -28.5785 -28.5743 -28.5743 -28.5306 -28.5306 -28.5274 -28.5274
   -27.6205 -27.6205 -27.5825 -27.5825 -27.5492 -27.5492 -27.5301 -27.5301
   -27.5197 -27.5197 -27.4968 -27.4968 -27.4460 -27.4460 -27.4317 -27.4317
     4.9491   4.9491   4.9499   4.9499   7.0319   7.0319   7.0344   7.0344
    10.5073  10.5073  10.5107  10.5107  10.8272  10.8272  10.8294  10.8294
    11.9941  11.9941  11.9995  11.9995  12.4096  12.4096  12.4202  12.4202
    13.2671  13.2671  13.2735  13.2735  13.9140  13.9140  13.9204  13.9204
    13.9557  13.9557  13.9688  13.9688  14.6428  14.6428  14.6763  14.6763
    14.9021  14.9021  14.9380  14.9380  15.4790  15.4790  15.5021  15.5021
    16.3859  16.3859  16.3978  16.3978  17.2938  17.2952

     occupation numbers 
     1.0000   1.0000   1.0000   1.0000   1.0000   1.0000   1.0000   1.0000
     1.0000   1.0000   1.0000   1.0000   1.0000   1.0000   1.0000   1.0000
     1.0000   1.0000   1.0000   1.0000   1.0000   1.0000   1.0000   1.0000
     1.0000   1.0000   1.0000   1.0000   1.0000   1.0000   1.0000   1.0000
     1.0000   1.0000   1.0000   1.0000   1.0000   1.0000   1.0000   1.0000
     1.0000   1.0000   1.0000   1.0000   1.0000   1.0000   1.0000   1.0000
     1.0000   1.0000   1.0000   1.0000   1.0000   1.0000   1.0000   1.0000
     1.0000   1.0000   1.0000   1.0000   1.0000   1.0000   1.0000   1.0000
     1.0000   1.0000   1.0000   1.0000   1.0004   1.0004   1.0016   1.0016
     0.7825   0.7825   0.5240   0.5240  -0.0000  -0.0000  -0.0000  -0.0000
    -0.0000  -0.0000  -0.0000  -0.0000  -0.0000  -0.0000

          k =-0.1667-0.5000 0.3333 (  9682 PWs)   bands (ev):

   -56.4960 -56.4960 -56.4960 -56.4960 -56.4788 -56.4788 -56.4788 -56.4788
   -28.5762 -28.5762 -28.5720 -28.5720 -28.5335 -28.5335 -28.5301 -28.5301
   -27.6172 -27.6172 -27.5804 -27.5804 -27.5570 -27.5570 -27.5321 -27.5321
   -27.5189 -27.5189 -27.4869 -27.4869 -27.4508 -27.4508 -27.4325 -27.4325
     5.0999   5.0999   5.1010   5.1010   7.0753   7.0753   7.0792   7.0792
     9.6361   9.6361   9.6389   9.6389  11.1977  11.1977  11.2008  11.2008
    11.9966  11.9966  12.0032  12.0032  12.6307  12.6307  12.6410  12.6410
    13.1716  13.1716  13.1796  13.1796  13.6493  13.6493  13.6610  13.6610
    14.1694  14.1694  14.1787  14.1787  14.7156  14.7156  14.7409  14.7409
    14.9611  14.9611  14.9924  14.9924  15.4236  15.4236  15.4407  15.4407
    16.3553  16.3553  16.3661  16.3661  17.2148  17.2168

     occupation numbers 
     1.0000   1.0000   1.0000   1.0000   1.0000   1.0000   1.0000   1.0000
     1.0000   1.0000   1.0000   1.0000   1.0000   1.0000   1.0000   1.0000
     1.0000   1.0000   1.0000   1.0000   1.0000   1.0000   1.0000   1.0000
     1.0000   1.0000   1.0000   1.0000   1.0000   1.0000   1.0000   1.0000
     1.0000   1.0000   1.0000   1.0000   1.0000   1.0000   1.0000   1.0000
     1.0000   1.0000   1.0000   1.0000   1.0000   1.0000   1.0000   1.0000
     1.0000   1.0000   1.0000   1.0000   1.0000   1.0000   1.0000   1.0000
     1.0000   1.0000   1.0000   1.0000   1.0000   1.0000   1.0000   1.0000
     1.0000   1.0000   1.0000   1.0000   1.0063   1.0063   1.0130   1.0130
     0.3472   0.3472   0.1460   0.1460  -0.0000  -0.0000  -0.0000  -0.0000
    -0.0000  -0.0000  -0.0000  -0.0000  -0.0000  -0.0000

     the Fermi energy is    14.9411 ev

!    total energy              =   -1180.34938675 Ry

     total all-electron energy =    -10727.810223 Ry
     estimated scf accuracy    <       0.00000035 Ry
     smearing contrib. (-TS)   =      -0.00105761 Ry
     internal energy E=F+TS    =   -1180.34832914 Ry

     The total energy is F=E-TS. E is the sum of the following terms:
     one-electron contribution =    -336.80192251 Ry
     hartree contribution      =     207.04938886 Ry
     xc contribution           =    -114.36313576 Ry
     ewald contribution        =    -496.51183961 Ry
     one-center paw contrib.   =    -439.72082014 Ry
      -> PAW hartree energy AE =     126.72237223 Ry
      -> PAW hartree energy PS =    -125.75501757 Ry
      -> PAW xc energy AE      =     -96.24039856 Ry
      -> PAW xc energy PS      =      20.93304232 Ry
      -> total E_H with PAW    =     208.01674352 Ry
      -> total E_XC with PAW   =    -189.67049199 Ry

     convergence has been achieved in   9 iterations

     Forces acting on atoms (cartesian axes, Ry/au):

     atom    1 type  1   force =    -0.00268518   -0.00268518    0.00268518
     atom    2 type  1   force =    -0.00268518    0.00268518   -0.00268518
     atom    3 type  1   force =     0.00268518   -0.00268518   -0.00268518
     atom    4 type  1   force =     0.00268518    0.00268518    0.00268518
     atom    5 type  2   force =    -0.00402408   -0.00402408    0.00402408
     atom    6 type  2   force =    -0.00402408    0.00402408   -0.00402408
     atom    7 type  2   force =     0.00402408   -0.00402408   -0.00402408
     atom    8 type  2   force =     0.00402408    0.00402408    0.00402408
     The non-local contrib.  to forces
     atom    1 type  1   force =     0.05179603    0.05179603   -0.05179603
     atom    2 type  1   force =     0.05179603   -0.05179603    0.05179603
     atom    3 type  1   force =    -0.05179603    0.05179603    0.05179603
     atom    4 type  1   force =    -0.05179603   -0.05179603   -0.05179603
     atom    5 type  2   force =    -0.00830191   -0.00830191    0.00830191
     atom    6 type  2   force =    -0.00830191    0.00830191   -0.00830191
     atom    7 type  2   force =     0.00830191   -0.00830191   -0.00830191
     atom    8 type  2   force =     0.00830191    0.00830191    0.00830191
     The ionic contribution  to forces
     atom    1 type  1   force =    -0.85044630   -0.85044630    0.85044630
     atom    2 type  1   force =    -0.85044630    0.85044630   -0.85044630
     atom    3 type  1   force =     0.85044630   -0.85044630   -0.85044630
     atom    4 type  1   force =     0.85044630    0.85044630    0.85044630
     atom    5 type  2   force =    -0.24524978   -0.24524978    0.24524978
     atom    6 type  2   force =    -0.24524978    0.24524978   -0.24524978
     atom    7 type  2   force =     0.24524978   -0.24524978   -0.24524978
     atom    8 type  2   force =     0.24524978    0.24524978    0.24524978
     The local contribution  to forces
     atom    1 type  1   force =     0.79701728    0.79701728   -0.79701728
     atom    2 type  1   force =     0.79701728   -0.79701728    0.79701728
     atom    3 type  1   force =    -0.79701728    0.79701728    0.79701728
     atom    4 type  1   force =    -0.79701728   -0.79701728   -0.79701728
     atom    5 type  2   force =     0.24871782    0.24871782   -0.24871782
     atom    6 type  2   force =     0.24871782   -0.24871782    0.24871782
     atom    7 type  2   force =    -0.24871782    0.24871782    0.24871782
     atom    8 type  2   force =    -0.24871782   -0.24871782   -0.24871782
     The core correction contribution to forces
     atom    1 type  1   force =    -0.00104477   -0.00104477    0.00104477
     atom    2 type  1   force =    -0.00104477    0.00104477   -0.00104477
     atom    3 type  1   force =     0.00104477   -0.00104477   -0.00104477
     atom    4 type  1   force =     0.00104477    0.00104477    0.00104477
     atom    5 type  2   force =     0.00082225    0.00082225   -0.00082225
     atom    6 type  2   force =     0.00082225   -0.00082225    0.00082225
     atom    7 type  2   force =    -0.00082225    0.00082225    0.00082225
     atom    8 type  2   force =    -0.00082225   -0.00082225   -0.00082225
     The Hubbard contrib.    to forces
     atom    1 type  1   force =     0.00000000    0.00000000    0.00000000
     atom    2 type  1   force =     0.00000000    0.00000000    0.00000000
     atom    3 type  1   force =     0.00000000    0.00000000    0.00000000
     atom    4 type  1   force =     0.00000000    0.00000000    0.00000000
     atom    5 type  2   force =     0.00000000    0.00000000    0.00000000
     atom    6 type  2   force =     0.00000000    0.00000000    0.00000000
     atom    7 type  2   force =     0.00000000    0.00000000    0.00000000
     atom    8 type  2   force =     0.00000000    0.00000000    0.00000000
     The SCF correction term to forces
     atom    1 type  1   force =    -0.00000742   -0.00000742    0.00000742
     atom    2 type  1   force =    -0.00000742    0.00000742   -0.00000742
     atom    3 type  1   force =     0.00000742   -0.00000742   -0.00000742
     atom    4 type  1   force =     0.00000742    0.00000742    0.00000742
     atom    5 type  2   force =    -0.00001246   -0.00001246    0.00001246
     atom    6 type  2   force =    -0.00001246    0.00001246   -0.00001246
     atom    7 type  2   force =     0.00001246   -0.00001246   -0.00001246
     atom    8 type  2   force =     0.00001246    0.00001246    0.00001246

     Total force =     0.016758     Total SCF correction =     0.000050


     Computing stress (Cartesian axis) and pressure

          total   stress  (Ry/bohr**3)                   (kbar)     P=      -40.90
  -0.00027805   0.00000000   0.00000000          -40.90        0.00        0.00
   0.00000000  -0.00027805   0.00000000            0.00      -40.90        0.00
   0.00000000   0.00000000  -0.00027805            0.00        0.00      -40.90

     kinetic stress (kbar)  35760.66      0.00      0.00
                                0.00  35760.66      0.00
                                0.00      0.00  35760.66

     local   stress (kbar) -10012.89      0.00     -0.00
                                0.00 -10012.89     -0.00
                               -0.00     -0.00 -10012.89

     nonloc. stress (kbar)   2427.50      0.00      0.00
                                0.00   2427.50      0.00
                                0.00      0.00   2427.50

     hartree stress (kbar)  15167.79      0.00      0.00
                                0.00  15167.79      0.00
                                0.00      0.00  15167.79

     exc-cor stress (kbar)  -1706.66     -0.00     -0.00
                               -0.00  -1706.66     -0.00
                               -0.00     -0.00  -1706.66

     corecor stress (kbar)  -5304.39     -0.00     -0.00
                               -0.00  -5304.39      0.00
                               -0.00      0.00  -5304.39

     ewald   stress (kbar) -36372.90      0.00      0.00
                                0.00 -36372.90      0.00
                                0.00      0.00 -36372.90

     hubbard stress (kbar)      0.00      0.00      0.00
                                0.00      0.00      0.00
                                0.00      0.00      0.00

     DFT-D   stress (kbar)      0.00      0.00      0.00
                                0.00      0.00      0.00
                                0.00      0.00      0.00

     XDM     stress (kbar)      0.00      0.00      0.00
                                0.00      0.00      0.00
                                0.00      0.00      0.00

     dft-nl  stress (kbar)      0.00      0.00      0.00
                                0.00      0.00      0.00
                                0.00      0.00      0.00

     TS-vdW  stress (kbar)      0.00      0.00      0.00
                                0.00      0.00      0.00
                                0.00      0.00      0.00



     Writing output data file /zfs_data/vergnior/martin/Scratch/OAL/CrSi/convergence/smearing/6x6x6/0.008/tmp/CrSi.save/
 
     init_run     :      4.59s CPU      5.02s WALL (       1 calls)
     electrons    :    133.25s CPU    141.41s WALL (       1 calls)
     forces       :      3.96s CPU      4.21s WALL (       1 calls)
     stress       :     10.23s CPU     11.01s WALL (       1 calls)

     Called by init_run:
     wfcinit      :      3.36s CPU      3.45s WALL (       1 calls)
     wfcinit:atom :      0.03s CPU      0.03s WALL (      24 calls)
     wfcinit:wfcr :      3.20s CPU      3.28s WALL (      24 calls)
     potinit      :      0.20s CPU      0.26s WALL (       1 calls)
     hinit0       :      0.18s CPU      0.19s WALL (       1 calls)

     Called by electrons:
     c_bands      :    106.55s CPU    108.25s WALL (      10 calls)
     sum_band     :     20.76s CPU     24.87s WALL (      10 calls)
     v_of_rho     :      0.22s CPU      0.23s WALL (      10 calls)
     v_h          :      0.02s CPU      0.02s WALL (      10 calls)
     v_xc         :      0.25s CPU      0.26s WALL (      12 calls)
     newd         :      4.87s CPU      7.41s WALL (      10 calls)
     PAW_pot      :      1.24s CPU      1.27s WALL (      10 calls)
     mix_rho      :      0.14s CPU      0.15s WALL (      10 calls)

     Called by c_bands:
     init_us_2    :      0.53s CPU      0.54s WALL (     552 calls)
     cegterg      :     97.16s CPU     98.80s WALL (     240 calls)

     Called by sum_band:
     sum_band:wei :      0.03s CPU      0.03s WALL (      10 calls)
     sum_band:loo :     17.99s CPU     18.28s WALL (      10 calls)
     sum_band:buf :      0.16s CPU      0.17s WALL (     240 calls)
     sum_band:ini :      0.24s CPU      0.24s WALL (     240 calls)
     sum_band:cal :      1.28s CPU      1.29s WALL (     240 calls)
     sum_band:bec :      3.08s CPU      3.09s WALL (     240 calls)
     addusdens    :      2.64s CPU      6.46s WALL (      10 calls)
     addusd:skk   :      0.00s CPU      0.01s WALL (      20 calls)
     addusd:dgemm :      0.60s CPU      2.38s WALL (      20 calls)
     addusd:qvan2 :      1.99s CPU      2.00s WALL (      20 calls)

     Called by *egterg:
     cdiaghg      :      9.17s CPU      9.20s WALL (    1309 calls)
     cegterg:over :      5.05s CPU      5.09s WALL (    1093 calls)
     cegterg:upda :      2.59s CPU      2.60s WALL (    1093 calls)
     cegterg:last :      5.33s CPU      5.35s WALL (     721 calls)
     h_psi        :     66.13s CPU     67.69s WALL (    1357 calls)
     s_psi        :      9.58s CPU      9.62s WALL (    1357 calls)
     g_psi        :      0.16s CPU      0.16s WALL (    1093 calls)

     Called by h_psi:
     h_psi:calbec :      4.64s CPU      4.67s WALL (    1357 calls)
     vloc_psi     :     52.32s CPU     53.79s WALL (    1357 calls)
     add_vuspsi   :      8.86s CPU      8.92s WALL (    1357 calls)

     General routines
     calbec       :      6.49s CPU      6.53s WALL (    1717 calls)
     fft          :      0.24s CPU      0.25s WALL (     238 calls)
     ffts         :      0.04s CPU      0.09s WALL (      80 calls)
     fftw         :     48.27s CPU     49.59s WALL (  329460 calls)
     interpolate  :      0.07s CPU      0.12s WALL (      40 calls)
 
     Parallel routines
     fft_scatt_xy :      4.70s CPU      4.81s WALL (  329778 calls)
     fft_scatt_yz :     17.62s CPU     18.09s WALL (  329778 calls)

     PAW routines
     PAW_pot      :      1.24s CPU      1.27s WALL (      10 calls)
     PAW_symme    :      0.02s CPU      0.02s WALL (      20 calls)
 
     PWSCF        :   2m35.02s CPU   2m45.68s WALL

 
   This run was terminated on:  12:45: 4   1Aug2021            

=------------------------------------------------------------------------------=
   JOB DONE.
=------------------------------------------------------------------------------=
