MPI startup(): Warning: I_MPI_PMI_LIBRARY will be ignored since the hydra process manager was found
MPI startup(): Warning: I_MPI_PMI_LIBRARY will be ignored since the hydra process manager was found
MPI startup(): Warning: I_MPI_PMI_LIBRARY will be ignored since the hydra process manager was found
MPI startup(): Warning: I_MPI_PMI_LIBRARY will be ignored since the hydra process manager was found
MPI startup(): Warning: I_MPI_PMI_LIBRARY will be ignored since the hydra process manager was found
MPI startup(): Warning: I_MPI_PMI_LIBRARY will be ignored since the hydra process manager was found
MPI startup(): Warning: I_MPI_PMI_LIBRARY will be ignored since the hydra process manager was found
MPI startup(): Warning: I_MPI_PMI_LIBRARY will be ignored since the hydra process manager was found
MPI startup(): Warning: I_MPI_PMI_LIBRARY will be ignored since the hydra process manager was found
MPI startup(): Warning: I_MPI_PMI_LIBRARY will be ignored since the hydra process manager was found
MPI startup(): Warning: I_MPI_PMI_LIBRARY will be ignored since the hydra process manager was found
MPI startup(): Warning: I_MPI_PMI_LIBRARY will be ignored since the hydra process manager was found
MPI startup(): Warning: I_MPI_PMI_LIBRARY will be ignored since the hydra process manager was found
MPI startup(): Warning: I_MPI_PMI_LIBRARY will be ignored since the hydra process manager was found
MPI startup(): Warning: I_MPI_PMI_LIBRARY will be ignored since the hydra process manager was found
MPI startup(): Warning: I_MPI_PMI_LIBRARY will be ignored since the hydra process manager was found
MPI startup(): Warning: I_MPI_PMI_LIBRARY will be ignored since the hydra process manager was found
MPI startup(): Warning: I_MPI_PMI_LIBRARY will be ignored since the hydra process manager was found
MPI startup(): Warning: I_MPI_PMI_LIBRARY will be ignored since the hydra process manager was found
MPI startup(): Warning: I_MPI_PMI_LIBRARY will be ignored since the hydra process manager was found
MPI startup(): Warning: I_MPI_PMI_LIBRARY will be ignored since the hydra process manager was found
MPI startup(): Warning: I_MPI_PMI_LIBRARY will be ignored since the hydra process manager was found
MPI startup(): Warning: I_MPI_PMI_LIBRARY will be ignored since the hydra process manager was found
MPI startup(): Warning: I_MPI_PMI_LIBRARY will be ignored since the hydra process manager was found

     Program PWSCF v.6.7MaX starts on  1Aug2021 at 12:32:52 

     This program is part of the open-source Quantum ESPRESSO suite
     for quantum simulation of materials; please cite
         "P. Giannozzi et al., J. Phys.:Condens. Matter 21 395502 (2009);
         "P. Giannozzi et al., J. Phys.:Condens. Matter 29 465901 (2017);
          URL http://www.quantum-espresso.org", 
     in publications or presentations arising from this work. More details at
     http://www.quantum-espresso.org/quote

     Parallel version (MPI), running on    24 processors

     MPI processes distributed on     1 nodes
     R & G space division:  proc/nbgrp/npool/nimage =      24
     Waiting for input...
     Reading input from standard input

     Current dimensions of program PWSCF are:
     Max number of different atomic species (ntypx) = 10
     Max number of k-points (npk) =  40000
     Max angular momentum in pseudopotentials (lmaxx) =  3
     file Cr.rel-pbe-spn-kjpaw_psl.1.0.0.UPF: wavefunction(s)  3S 3P 3P 3D 3D renormalized
     file Si.rel-pbe-n-kjpaw_psl.1.0.0.UPF: wavefunction(s)  3S 3P 3P renormalized

     Subspace diagonalization in iterative solution of the eigenvalue problem:
     a serial algorithm will be used

     Message from routine setup:
     using ibrav=0 with symmetry is DISCOURAGED, use correct ibrav instead
 
     Parallelization info
     --------------------
     sticks:   dense  smooth     PW     G-vecs:    dense   smooth      PW
     Min         228      91     25                12702     3210     487
     Max         229      93     26                12704     3214     492
     Sum        5473    2201    621               304867    77053   11753
 


     bravais-lattice index     =            0
     lattice parameter (alat)  =       8.7475  a.u.
     unit-cell volume          =     669.3575 (a.u.)^3
     number of atoms/cell      =            8
     number of atomic types    =            2
     number of electrons       =        72.00
     number of Kohn-Sham states=           86
     kinetic-energy cutoff     =      90.0000  Ry
     charge density cutoff     =     900.0000  Ry
     scf convergence threshold =      1.0E-06
     mixing beta               =       0.7000
     number of iterations used =            8  plain     mixing
     Exchange-correlation= SLA  PW   PBX  PBC
                           (   1   4   3   4   0   0   0)
     Non magnetic calculation with spin-orbit


     celldm(1)=   8.747542  celldm(2)=   0.000000  celldm(3)=   0.000000
     celldm(4)=   0.000000  celldm(5)=   0.000000  celldm(6)=   0.000000

     crystal axes: (cart. coord. in units of alat)
               a(1) = (   1.000000   0.000000   0.000000 )  
               a(2) = (   0.000000   1.000000   0.000000 )  
               a(3) = (   0.000000   0.000000   1.000000 )  

     reciprocal axes: (cart. coord. in units 2 pi/alat)
               b(1) = (  1.000000  0.000000  0.000000 )  
               b(2) = (  0.000000  1.000000  0.000000 )  
               b(3) = (  0.000000  0.000000  1.000000 )  


     PseudoPot. # 1 for Cr read from file:
     ../../../../pseudo/Cr.rel-pbe-spn-kjpaw_psl.1.0.0.UPF
     MD5 check sum: 1e24e2b5251376a8b945118fca0c7981
     Pseudo is Projector augmented-wave + core cor, Zval = 14.0
     Generated using &quot;atomic&quot; code by A. Dal Corso  v.6.3
     Shape of augmentation charge: PSQ
     Using radial grid of 1183 points, 10 beta functions with: 
                l(1) =   0
                l(2) =   0
                l(3) =   1
                l(4) =   1
                l(5) =   1
                l(6) =   1
                l(7) =   2
                l(8) =   2
                l(9) =   2
               l(10) =   2
     Q(r) pseudized with 0 coefficients 


     PseudoPot. # 2 for Si read from file:
     ../../../../pseudo/Si.rel-pbe-n-kjpaw_psl.1.0.0.UPF
     MD5 check sum: d74f6caf6830ea4c2076867160cab1b0
     Pseudo is Projector augmented-wave + core cor, Zval =  4.0
     Generated using &quot;atomic&quot; code by A. Dal Corso  v.6.3
     Shape of augmentation charge: PSQ
     Using radial grid of 1141 points, 10 beta functions with: 
                l(1) =   0
                l(2) =   0
                l(3) =   1
                l(4) =   1
                l(5) =   1
                l(6) =   1
                l(7) =   2
                l(8) =   2
                l(9) =   2
               l(10) =   2
     Q(r) pseudized with 0 coefficients 


     atomic species   valence    mass     pseudopotential
        Cr            14.00    51.99600     Cr( 1.00)
        Si             4.00    28.08500     Si( 1.00)

     12 Sym. Ops. (no inversion) found ( 9 have fractional translation)


                                    s                        frac. trans.

      isym =  1     identity                                     

 cryst.   s( 1) = (     1          0          0      )
                  (     0          1          0      )
                  (     0          0          1      )

 cart.    s( 1) = (  1.0000000  0.0000000  0.0000000 )
                  (  0.0000000  1.0000000  0.0000000 )
                  (  0.0000000  0.0000000  1.0000000 )


      isym =  2     180 deg rotation - cart. axis [0,0,1]        

 cryst.   s( 2) = (    -1          0          0      )    f =(  0.5000000 )
                  (     0         -1          0      )       (  0.0000000 )
                  (     0          0          1      )       ( -0.5000000 )

 cart.    s( 2) = ( -1.0000000  0.0000000  0.0000000 )    f =(  0.5000000 )
                  (  0.0000000 -1.0000000  0.0000000 )       (  0.0000000 )
                  (  0.0000000  0.0000000  1.0000000 )       ( -0.5000000 )


      isym =  3     180 deg rotation - cart. axis [0,1,0]        

 cryst.   s( 3) = (    -1          0          0      )    f =(  0.0000000 )
                  (     0          1          0      )       ( -0.5000000 )
                  (     0          0         -1      )       (  0.5000000 )

 cart.    s( 3) = ( -1.0000000  0.0000000  0.0000000 )    f =(  0.0000000 )
                  (  0.0000000  1.0000000  0.0000000 )       ( -0.5000000 )
                  (  0.0000000  0.0000000 -1.0000000 )       (  0.5000000 )


      isym =  4     180 deg rotation - cart. axis [1,0,0]        

 cryst.   s( 4) = (     1          0          0      )    f =(  0.5000000 )
                  (     0         -1          0      )       (  0.5000000 )
                  (     0          0         -1      )       (  0.0000000 )

 cart.    s( 4) = (  1.0000000  0.0000000  0.0000000 )    f =(  0.5000000 )
                  (  0.0000000 -1.0000000  0.0000000 )       (  0.5000000 )
                  (  0.0000000  0.0000000 -1.0000000 )       (  0.0000000 )


      isym =  5     120 deg rotation - cart. axis [-1,-1,-1]     

 cryst.   s( 5) = (     0          0          1      )
                  (     1          0          0      )
                  (     0          1          0      )

 cart.    s( 5) = (  0.0000000  1.0000000  0.0000000 )
                  (  0.0000000  0.0000000  1.0000000 )
                  (  1.0000000  0.0000000  0.0000000 )


      isym =  6     120 deg rotation - cart. axis [-1,1,1]       

 cryst.   s( 6) = (     0          0         -1      )    f =(  0.0000000 )
                  (    -1          0          0      )       ( -0.5000000 )
                  (     0          1          0      )       (  0.5000000 )

 cart.    s( 6) = (  0.0000000 -1.0000000  0.0000000 )    f =(  0.0000000 )
                  (  0.0000000  0.0000000  1.0000000 )       ( -0.5000000 )
                  ( -1.0000000  0.0000000  0.0000000 )       (  0.5000000 )


      isym =  7     120 deg rotation - cart. axis [1,1,-1]       

 cryst.   s( 7) = (     0          0         -1      )    f =(  0.5000000 )
                  (     1          0          0      )       (  0.5000000 )
                  (     0         -1          0      )       (  0.0000000 )

 cart.    s( 7) = (  0.0000000  1.0000000  0.0000000 )    f =(  0.5000000 )
                  (  0.0000000  0.0000000 -1.0000000 )       (  0.5000000 )
                  ( -1.0000000  0.0000000  0.0000000 )       (  0.0000000 )


      isym =  8     120 deg rotation - cart. axis [1,-1,1]       

 cryst.   s( 8) = (     0          0          1      )    f =(  0.5000000 )
                  (    -1          0          0      )       (  0.0000000 )
                  (     0         -1          0      )       ( -0.5000000 )

 cart.    s( 8) = (  0.0000000 -1.0000000  0.0000000 )    f =(  0.5000000 )
                  (  0.0000000  0.0000000 -1.0000000 )       (  0.0000000 )
                  (  1.0000000  0.0000000  0.0000000 )       ( -0.5000000 )


      isym =  9     120 deg rotation - cart. axis [1,1,1]        

 cryst.   s( 9) = (     0          1          0      )
                  (     0          0          1      )
                  (     1          0          0      )

 cart.    s( 9) = (  0.0000000  0.0000000  1.0000000 )
                  (  1.0000000  0.0000000  0.0000000 )
                  (  0.0000000  1.0000000  0.0000000 )


      isym = 10     120 deg rotation - cart. axis [-1,1,-1]      

 cryst.   s(10) = (     0         -1          0      )    f =(  0.5000000 )
                  (     0          0         -1      )       (  0.5000000 )
                  (     1          0          0      )       (  0.0000000 )

 cart.    s(10) = (  0.0000000  0.0000000  1.0000000 )    f =(  0.5000000 )
                  ( -1.0000000  0.0000000  0.0000000 )       (  0.5000000 )
                  (  0.0000000 -1.0000000  0.0000000 )       (  0.0000000 )


      isym = 11     120 deg rotation - cart. axis [1,-1,-1]      

 cryst.   s(11) = (     0         -1          0      )    f =(  0.5000000 )
                  (     0          0          1      )       (  0.0000000 )
                  (    -1          0          0      )       ( -0.5000000 )

 cart.    s(11) = (  0.0000000  0.0000000 -1.0000000 )    f =(  0.5000000 )
                  ( -1.0000000  0.0000000  0.0000000 )       (  0.0000000 )
                  (  0.0000000  1.0000000  0.0000000 )       ( -0.5000000 )


      isym = 12     120 deg rotation - cart. axis [-1,-1,1]      

 cryst.   s(12) = (     0          1          0      )    f =(  0.0000000 )
                  (     0          0         -1      )       ( -0.5000000 )
                  (    -1          0          0      )       (  0.5000000 )

 cart.    s(12) = (  0.0000000  0.0000000 -1.0000000 )    f =(  0.0000000 )
                  (  1.0000000  0.0000000  0.0000000 )       ( -0.5000000 )
                  (  0.0000000 -1.0000000  0.0000000 )       (  0.5000000 )


   Cartesian axes

     site n.     atom                  positions (alat units)
         1           Cr  tau(   1) = (   0.8640000   0.3640000   0.1360000  )
         2           Cr  tau(   2) = (   0.3640000   0.1360000   0.8640000  )
         3           Cr  tau(   3) = (   0.1360000   0.8640000   0.3640000  )
         4           Cr  tau(   4) = (   0.6360000   0.6360000   0.6360000  )
         5           Si  tau(   5) = (   0.1540000   0.6540000   0.8460000  )
         6           Si  tau(   6) = (   0.6540000   0.8460000   0.1540000  )
         7           Si  tau(   7) = (   0.8460000   0.1540000   0.6540000  )
         8           Si  tau(   8) = (   0.3460000   0.3460000   0.3460000  )

   Crystallographic axes

     site n.     atom                  positions (cryst. coord.)
         1           Cr  tau(   1) = (  0.8640000  0.3640000  0.1360000  )
         2           Cr  tau(   2) = (  0.3640000  0.1360000  0.8640000  )
         3           Cr  tau(   3) = (  0.1360000  0.8640000  0.3640000  )
         4           Cr  tau(   4) = (  0.6360000  0.6360000  0.6360000  )
         5           Si  tau(   5) = (  0.1540000  0.6540000  0.8460000  )
         6           Si  tau(   6) = (  0.6540000  0.8460000  0.1540000  )
         7           Si  tau(   7) = (  0.8460000  0.1540000  0.6540000  )
         8           Si  tau(   8) = (  0.3460000  0.3460000  0.3460000  )

     number of k points=    76  Methfessel-Paxton smearing, width (Ry)=  0.0120
                       cart. coord. in units 2pi/alat
        k(    1) = (   0.0000000   0.0000000   0.0000000), wk =   0.0010000
        k(    2) = (   0.0000000   0.0000000   0.1000000), wk =   0.0060000
        k(    3) = (   0.0000000   0.0000000   0.2000000), wk =   0.0060000
        k(    4) = (   0.0000000   0.0000000   0.3000000), wk =   0.0060000
        k(    5) = (   0.0000000   0.0000000   0.4000000), wk =   0.0060000
        k(    6) = (   0.0000000   0.0000000  -0.5000000), wk =   0.0030000
        k(    7) = (   0.0000000   0.1000000   0.1000000), wk =   0.0120000
        k(    8) = (   0.0000000   0.1000000   0.2000000), wk =   0.0120000
        k(    9) = (   0.0000000   0.1000000   0.3000000), wk =   0.0120000
        k(   10) = (   0.0000000   0.1000000   0.4000000), wk =   0.0120000
        k(   11) = (   0.0000000   0.1000000  -0.5000000), wk =   0.0060000
        k(   12) = (   0.0000000   0.2000000   0.2000000), wk =   0.0120000
        k(   13) = (   0.0000000   0.2000000   0.3000000), wk =   0.0120000
        k(   14) = (   0.0000000   0.2000000   0.4000000), wk =   0.0120000
        k(   15) = (   0.0000000   0.2000000  -0.5000000), wk =   0.0060000
        k(   16) = (   0.0000000   0.3000000   0.3000000), wk =   0.0120000
        k(   17) = (   0.0000000   0.3000000   0.4000000), wk =   0.0120000
        k(   18) = (   0.0000000   0.3000000  -0.5000000), wk =   0.0060000
        k(   19) = (   0.0000000   0.4000000   0.4000000), wk =   0.0120000
        k(   20) = (   0.0000000   0.4000000  -0.5000000), wk =   0.0060000
        k(   21) = (   0.0000000  -0.5000000  -0.5000000), wk =   0.0030000
        k(   22) = (   0.1000000   0.1000000   0.1000000), wk =   0.0080000
        k(   23) = (   0.1000000   0.1000000   0.2000000), wk =   0.0240000
        k(   24) = (   0.1000000   0.1000000   0.3000000), wk =   0.0240000
        k(   25) = (   0.1000000   0.1000000   0.4000000), wk =   0.0240000
        k(   26) = (   0.1000000   0.1000000  -0.5000000), wk =   0.0120000
        k(   27) = (   0.1000000   0.2000000   0.2000000), wk =   0.0240000
        k(   28) = (   0.1000000   0.2000000   0.3000000), wk =   0.0240000
        k(   29) = (   0.1000000   0.2000000   0.4000000), wk =   0.0240000
        k(   30) = (   0.1000000   0.2000000  -0.5000000), wk =   0.0120000
        k(   31) = (   0.1000000   0.3000000   0.3000000), wk =   0.0240000
        k(   32) = (   0.1000000   0.3000000   0.4000000), wk =   0.0240000
        k(   33) = (   0.1000000   0.3000000  -0.5000000), wk =   0.0120000
        k(   34) = (   0.1000000   0.4000000   0.4000000), wk =   0.0240000
        k(   35) = (   0.1000000   0.4000000  -0.5000000), wk =   0.0120000
        k(   36) = (   0.1000000  -0.5000000  -0.5000000), wk =   0.0060000
        k(   37) = (   0.2000000   0.2000000   0.2000000), wk =   0.0080000
        k(   38) = (   0.2000000   0.2000000   0.3000000), wk =   0.0240000
        k(   39) = (   0.2000000   0.2000000   0.4000000), wk =   0.0240000
        k(   40) = (   0.2000000   0.2000000  -0.5000000), wk =   0.0120000
        k(   41) = (   0.2000000   0.3000000   0.3000000), wk =   0.0240000
        k(   42) = (   0.2000000   0.3000000   0.4000000), wk =   0.0240000
        k(   43) = (   0.2000000   0.3000000  -0.5000000), wk =   0.0120000
        k(   44) = (   0.2000000   0.4000000   0.4000000), wk =   0.0240000
        k(   45) = (   0.2000000   0.4000000  -0.5000000), wk =   0.0120000
        k(   46) = (   0.2000000  -0.5000000  -0.5000000), wk =   0.0060000
        k(   47) = (   0.3000000   0.3000000   0.3000000), wk =   0.0080000
        k(   48) = (   0.3000000   0.3000000   0.4000000), wk =   0.0240000
        k(   49) = (   0.3000000   0.3000000  -0.5000000), wk =   0.0120000
        k(   50) = (   0.3000000   0.4000000   0.4000000), wk =   0.0240000
        k(   51) = (   0.3000000   0.4000000  -0.5000000), wk =   0.0120000
        k(   52) = (   0.3000000  -0.5000000  -0.5000000), wk =   0.0060000
        k(   53) = (   0.4000000   0.4000000   0.4000000), wk =   0.0080000
        k(   54) = (   0.4000000   0.4000000  -0.5000000), wk =   0.0120000
        k(   55) = (   0.4000000  -0.5000000  -0.5000000), wk =   0.0060000
        k(   56) = (  -0.5000000  -0.5000000  -0.5000000), wk =   0.0010000
        k(   57) = (   0.0000000   0.2000000   0.1000000), wk =   0.0120000
        k(   58) = (   0.0000000   0.3000000   0.1000000), wk =   0.0120000
        k(   59) = (   0.0000000   0.4000000   0.1000000), wk =   0.0120000
        k(   60) = (   0.0000000  -0.5000000   0.1000000), wk =   0.0060000
        k(   61) = (   0.0000000   0.3000000   0.2000000), wk =   0.0120000
        k(   62) = (   0.0000000   0.4000000   0.2000000), wk =   0.0120000
        k(   63) = (   0.0000000  -0.5000000   0.2000000), wk =   0.0060000
        k(   64) = (   0.0000000   0.4000000   0.3000000), wk =   0.0120000
        k(   65) = (   0.0000000  -0.5000000   0.3000000), wk =   0.0060000
        k(   66) = (   0.0000000  -0.5000000   0.4000000), wk =   0.0060000
        k(   67) = (  -0.1000000   0.3000000   0.2000000), wk =   0.0240000
        k(   68) = (  -0.1000000   0.4000000   0.2000000), wk =   0.0240000
        k(   69) = (  -0.1000000  -0.5000000   0.2000000), wk =   0.0120000
        k(   70) = (  -0.1000000   0.4000000   0.3000000), wk =   0.0240000
        k(   71) = (  -0.1000000  -0.5000000   0.3000000), wk =   0.0120000
        k(   72) = (  -0.1000000  -0.5000000   0.4000000), wk =   0.0120000
        k(   73) = (  -0.2000000   0.4000000   0.3000000), wk =   0.0240000
        k(   74) = (  -0.2000000  -0.5000000   0.3000000), wk =   0.0120000
        k(   75) = (  -0.2000000  -0.5000000   0.4000000), wk =   0.0120000
        k(   76) = (  -0.3000000  -0.5000000   0.4000000), wk =   0.0120000

                       cryst. coord.
        k(    1) = (   0.0000000   0.0000000   0.0000000), wk =   0.0010000
        k(    2) = (   0.0000000   0.0000000   0.1000000), wk =   0.0060000
        k(    3) = (   0.0000000   0.0000000   0.2000000), wk =   0.0060000
        k(    4) = (   0.0000000   0.0000000   0.3000000), wk =   0.0060000
        k(    5) = (   0.0000000   0.0000000   0.4000000), wk =   0.0060000
        k(    6) = (   0.0000000   0.0000000  -0.5000000), wk =   0.0030000
        k(    7) = (   0.0000000   0.1000000   0.1000000), wk =   0.0120000
        k(    8) = (   0.0000000   0.1000000   0.2000000), wk =   0.0120000
        k(    9) = (   0.0000000   0.1000000   0.3000000), wk =   0.0120000
        k(   10) = (   0.0000000   0.1000000   0.4000000), wk =   0.0120000
        k(   11) = (   0.0000000   0.1000000  -0.5000000), wk =   0.0060000
        k(   12) = (   0.0000000   0.2000000   0.2000000), wk =   0.0120000
        k(   13) = (   0.0000000   0.2000000   0.3000000), wk =   0.0120000
        k(   14) = (   0.0000000   0.2000000   0.4000000), wk =   0.0120000
        k(   15) = (   0.0000000   0.2000000  -0.5000000), wk =   0.0060000
        k(   16) = (   0.0000000   0.3000000   0.3000000), wk =   0.0120000
        k(   17) = (   0.0000000   0.3000000   0.4000000), wk =   0.0120000
        k(   18) = (   0.0000000   0.3000000  -0.5000000), wk =   0.0060000
        k(   19) = (   0.0000000   0.4000000   0.4000000), wk =   0.0120000
        k(   20) = (   0.0000000   0.4000000  -0.5000000), wk =   0.0060000
        k(   21) = (   0.0000000  -0.5000000  -0.5000000), wk =   0.0030000
        k(   22) = (   0.1000000   0.1000000   0.1000000), wk =   0.0080000
        k(   23) = (   0.1000000   0.1000000   0.2000000), wk =   0.0240000
        k(   24) = (   0.1000000   0.1000000   0.3000000), wk =   0.0240000
        k(   25) = (   0.1000000   0.1000000   0.4000000), wk =   0.0240000
        k(   26) = (   0.1000000   0.1000000  -0.5000000), wk =   0.0120000
        k(   27) = (   0.1000000   0.2000000   0.2000000), wk =   0.0240000
        k(   28) = (   0.1000000   0.2000000   0.3000000), wk =   0.0240000
        k(   29) = (   0.1000000   0.2000000   0.4000000), wk =   0.0240000
        k(   30) = (   0.1000000   0.2000000  -0.5000000), wk =   0.0120000
        k(   31) = (   0.1000000   0.3000000   0.3000000), wk =   0.0240000
        k(   32) = (   0.1000000   0.3000000   0.4000000), wk =   0.0240000
        k(   33) = (   0.1000000   0.3000000  -0.5000000), wk =   0.0120000
        k(   34) = (   0.1000000   0.4000000   0.4000000), wk =   0.0240000
        k(   35) = (   0.1000000   0.4000000  -0.5000000), wk =   0.0120000
        k(   36) = (   0.1000000  -0.5000000  -0.5000000), wk =   0.0060000
        k(   37) = (   0.2000000   0.2000000   0.2000000), wk =   0.0080000
        k(   38) = (   0.2000000   0.2000000   0.3000000), wk =   0.0240000
        k(   39) = (   0.2000000   0.2000000   0.4000000), wk =   0.0240000
        k(   40) = (   0.2000000   0.2000000  -0.5000000), wk =   0.0120000
        k(   41) = (   0.2000000   0.3000000   0.3000000), wk =   0.0240000
        k(   42) = (   0.2000000   0.3000000   0.4000000), wk =   0.0240000
        k(   43) = (   0.2000000   0.3000000  -0.5000000), wk =   0.0120000
        k(   44) = (   0.2000000   0.4000000   0.4000000), wk =   0.0240000
        k(   45) = (   0.2000000   0.4000000  -0.5000000), wk =   0.0120000
        k(   46) = (   0.2000000  -0.5000000  -0.5000000), wk =   0.0060000
        k(   47) = (   0.3000000   0.3000000   0.3000000), wk =   0.0080000
        k(   48) = (   0.3000000   0.3000000   0.4000000), wk =   0.0240000
        k(   49) = (   0.3000000   0.3000000  -0.5000000), wk =   0.0120000
        k(   50) = (   0.3000000   0.4000000   0.4000000), wk =   0.0240000
        k(   51) = (   0.3000000   0.4000000  -0.5000000), wk =   0.0120000
        k(   52) = (   0.3000000  -0.5000000  -0.5000000), wk =   0.0060000
        k(   53) = (   0.4000000   0.4000000   0.4000000), wk =   0.0080000
        k(   54) = (   0.4000000   0.4000000  -0.5000000), wk =   0.0120000
        k(   55) = (   0.4000000  -0.5000000  -0.5000000), wk =   0.0060000
        k(   56) = (  -0.5000000  -0.5000000  -0.5000000), wk =   0.0010000
        k(   57) = (   0.0000000   0.2000000   0.1000000), wk =   0.0120000
        k(   58) = (   0.0000000   0.3000000   0.1000000), wk =   0.0120000
        k(   59) = (   0.0000000   0.4000000   0.1000000), wk =   0.0120000
        k(   60) = (   0.0000000  -0.5000000   0.1000000), wk =   0.0060000
        k(   61) = (   0.0000000   0.3000000   0.2000000), wk =   0.0120000
        k(   62) = (   0.0000000   0.4000000   0.2000000), wk =   0.0120000
        k(   63) = (   0.0000000  -0.5000000   0.2000000), wk =   0.0060000
        k(   64) = (   0.0000000   0.4000000   0.3000000), wk =   0.0120000
        k(   65) = (   0.0000000  -0.5000000   0.3000000), wk =   0.0060000
        k(   66) = (   0.0000000  -0.5000000   0.4000000), wk =   0.0060000
        k(   67) = (  -0.1000000   0.3000000   0.2000000), wk =   0.0240000
        k(   68) = (  -0.1000000   0.4000000   0.2000000), wk =   0.0240000
        k(   69) = (  -0.1000000  -0.5000000   0.2000000), wk =   0.0120000
        k(   70) = (  -0.1000000   0.4000000   0.3000000), wk =   0.0240000
        k(   71) = (  -0.1000000  -0.5000000   0.3000000), wk =   0.0120000
        k(   72) = (  -0.1000000  -0.5000000   0.4000000), wk =   0.0120000
        k(   73) = (  -0.2000000   0.4000000   0.3000000), wk =   0.0240000
        k(   74) = (  -0.2000000  -0.5000000   0.3000000), wk =   0.0120000
        k(   75) = (  -0.2000000  -0.5000000   0.4000000), wk =   0.0120000
        k(   76) = (  -0.3000000  -0.5000000   0.4000000), wk =   0.0120000

     Dense  grid:   304867 G-vectors     FFT dimensions: (  90,  90,  90)

     Smooth grid:    77053 G-vectors     FFT dimensions: (  54,  54,  54)

     Dynamical RAM for                 wfc:       1.06 MB

     Dynamical RAM for     wfc (w. buffer):      81.24 MB

     Dynamical RAM for           str. fact:       0.39 MB

     Dynamical RAM for           local pot:       0.00 MB

     Dynamical RAM for          nlocal pot:       1.67 MB

     Dynamical RAM for                qrad:      12.61 MB

     Dynamical RAM for          rho,v,vnew:       5.29 MB

     Dynamical RAM for               rhoin:       1.76 MB

     Dynamical RAM for            rho*nmix:      12.41 MB

     Dynamical RAM for           G-vectors:       0.75 MB

     Dynamical RAM for          h,s,v(r/c):       1.35 MB

     Dynamical RAM for          <psi|beta>:       0.71 MB

     Dynamical RAM for                 psi:       2.11 MB

     Dynamical RAM for                hpsi:       2.11 MB

     Dynamical RAM for                spsi:       2.11 MB

     Dynamical RAM for      wfcinit/wfcrot:       2.35 MB

     Dynamical RAM for           addusdens:     119.02 MB

     Dynamical RAM for          addusforce:     120.34 MB

     Dynamical RAM for         addusstress:     121.74 MB

     Estimated static dynamical RAM per process >     118.67 MB

     Estimated max dynamical RAM per process >     240.41 MB

     Estimated total dynamical RAM >       5.63 GB

     Initial potential from superposition of free atoms

     starting charge   71.99469, renormalised to   72.00000
     Starting wfcs are  112 randomized atomic wfcs
     Checking if some PAW data can be deallocated... 
       PAW data deallocated on   12 nodes for type:  1
       PAW data deallocated on   12 nodes for type:  2

     total cpu time spent up to now is       15.4 secs

     Self-consistent Calculation

     iteration #  1     ecut=    90.00 Ry     beta= 0.70
     Davidson diagonalization with overlap
     ethr =  1.00E-02,  avg # of iterations =  2.0

     Threshold (ethr) on eigenvalues was too large:
     Diagonalizing with lowered threshold

     Davidson diagonalization with overlap
     ethr =  2.09E-04,  avg # of iterations =  4.3

     total cpu time spent up to now is       90.8 secs

     total energy              =   -1180.30969541 Ry
     estimated scf accuracy    <       0.18923064 Ry

     iteration #  2     ecut=    90.00 Ry     beta= 0.70
     Davidson diagonalization with overlap
     ethr =  2.63E-04,  avg # of iterations =  3.2

     total cpu time spent up to now is      129.2 secs

     total energy              =   -1180.31423791 Ry
     estimated scf accuracy    <       0.08176036 Ry

     iteration #  3     ecut=    90.00 Ry     beta= 0.70
     Davidson diagonalization with overlap
     ethr =  1.14E-04,  avg # of iterations =  5.1

     total cpu time spent up to now is      176.1 secs

     total energy              =   -1180.32572405 Ry
     estimated scf accuracy    <       0.16437431 Ry

     iteration #  4     ecut=    90.00 Ry     beta= 0.70
     Davidson diagonalization with overlap
     ethr =  1.14E-04,  avg # of iterations =  4.0

     total cpu time spent up to now is      213.8 secs

     total energy              =   -1180.34970468 Ry
     estimated scf accuracy    <       0.00028175 Ry

     iteration #  5     ecut=    90.00 Ry     beta= 0.70
     Davidson diagonalization with overlap
     ethr =  3.91E-07,  avg # of iterations =  8.5

     total cpu time spent up to now is      273.7 secs

     total energy              =   -1180.35034092 Ry
     estimated scf accuracy    <       0.00034916 Ry

     iteration #  6     ecut=    90.00 Ry     beta= 0.70
     Davidson diagonalization with overlap
     ethr =  3.91E-07,  avg # of iterations =  3.2

     total cpu time spent up to now is      307.5 secs

     total energy              =   -1180.35039463 Ry
     estimated scf accuracy    <       0.00000368 Ry

     iteration #  7     ecut=    90.00 Ry     beta= 0.70
     Davidson diagonalization with overlap
     ethr =  5.11E-09,  avg # of iterations =  6.3

     total cpu time spent up to now is      359.0 secs

     total energy              =   -1180.35039753 Ry
     estimated scf accuracy    <       0.00002957 Ry

     iteration #  8     ecut=    90.00 Ry     beta= 0.70
     Davidson diagonalization with overlap
     ethr =  5.11E-09,  avg # of iterations =  5.0

     total cpu time spent up to now is      407.6 secs

     End of self-consistent calculation

          k = 0.0000 0.0000 0.0000 (  9771 PWs)   bands (ev):

   -56.5157 -56.5157 -56.4810 -56.4810 -56.4810 -56.4810 -56.4810 -56.4810
   -28.5814 -28.5814 -28.5736 -28.5736 -28.5736 -28.5736 -28.4843 -28.4843
   -27.6167 -27.6167 -27.6167 -27.6167 -27.5396 -27.5396 -27.5396 -27.5396
   -27.5323 -27.5323 -27.4506 -27.4506 -27.4506 -27.4506 -27.4495 -27.4495
     2.6987   2.6987   7.4570   7.4570   7.4570   7.4570   7.4662   7.4662
    10.5369  10.5369  10.5448  10.5448  10.5448  10.5448  11.9119  11.9119
    11.9119  11.9119  11.9230  11.9230  12.6031  12.6031  12.7721  12.7721
    12.7721  12.7721  13.1429  13.1429  13.1429  13.1429  13.1441  13.1441
    13.6711  13.6711  13.6711  13.6711  13.6749  13.6749  15.5515  15.5515
    15.5828  15.5828  15.5828  15.5828  15.7646  15.7646  15.7646  15.7646
    16.6658  16.6658  16.6961  16.6961  16.6961  16.6961

     occupation numbers 
     1.0000   1.0000   1.0000   1.0000   1.0000   1.0000   1.0000   1.0000
     1.0000   1.0000   1.0000   1.0000   1.0000   1.0000   1.0000   1.0000
     1.0000   1.0000   1.0000   1.0000   1.0000   1.0000   1.0000   1.0000
     1.0000   1.0000   1.0000   1.0000   1.0000   1.0000   1.0000   1.0000
     1.0000   1.0000   1.0000   1.0000   1.0000   1.0000   1.0000   1.0000
     1.0000   1.0000   1.0000   1.0000   1.0000   1.0000   1.0000   1.0000
     1.0000   1.0000   1.0000   1.0000   1.0000   1.0000   1.0000   1.0000
     1.0000   1.0000   1.0000   1.0000   1.0000   1.0000   1.0000   1.0000
     1.0000   1.0000   1.0000   1.0000   1.0000   1.0000  -0.0000  -0.0000
    -0.0000  -0.0000  -0.0000  -0.0000  -0.0000  -0.0000  -0.0000  -0.0000
    -0.0000  -0.0000  -0.0000  -0.0000  -0.0000  -0.0000

          k = 0.0000 0.0000 0.1000 (  9695 PWs)   bands (ev):

   -56.5151 -56.5151 -56.4841 -56.4841 -56.4808 -56.4808 -56.4787 -56.4787
   -28.5865 -28.5792 -28.5777 -28.5761 -28.5689 -28.5660 -28.4862 -28.4861
   -27.6277 -27.6223 -27.6093 -27.6040 -27.5465 -27.5443 -27.5388 -27.5351
   -27.5339 -27.5226 -27.4562 -27.4551 -27.4530 -27.4490 -27.4483 -27.4446
     2.7682   2.7682   6.9407   6.9445   7.4972   7.4983   7.8790   7.8873
    10.1585  10.1640  10.5885  10.5898  10.9493  10.9522  11.4182  11.4193
    11.7328  11.7361  12.4394  12.4550  12.5673  12.5715  12.7702  12.7778
    12.8727  12.8732  13.1172  13.1189  13.1675  13.1678  13.1949  13.1954
    13.5350  13.5412  13.6607  13.6618  13.8556  13.8562  15.4466  15.4686
    15.4702  15.4752  15.7034  15.7188  15.7369  15.7511  15.7552  15.7682
    16.5148  16.5330  16.6528  16.6557  16.8461  16.8664

     occupation numbers 
     1.0000   1.0000   1.0000   1.0000   1.0000   1.0000   1.0000   1.0000
     1.0000   1.0000   1.0000   1.0000   1.0000   1.0000   1.0000   1.0000
     1.0000   1.0000   1.0000   1.0000   1.0000   1.0000   1.0000   1.0000
     1.0000   1.0000   1.0000   1.0000   1.0000   1.0000   1.0000   1.0000
     1.0000   1.0000   1.0000   1.0000   1.0000   1.0000   1.0000   1.0000
     1.0000   1.0000   1.0000   1.0000   1.0000   1.0000   1.0000   1.0000
     1.0000   1.0000   1.0000   1.0000   1.0000   1.0000   1.0000   1.0000
     1.0000   1.0000   1.0000   1.0000   1.0000   1.0000   1.0000   1.0000
     1.0000   1.0000   1.0000   1.0000   1.0000   1.0000  -0.0001  -0.0000
    -0.0000  -0.0000  -0.0000  -0.0000  -0.0000  -0.0000  -0.0000  -0.0000
    -0.0000  -0.0000  -0.0000  -0.0000  -0.0000  -0.0000

          k = 0.0000 0.0000 0.2000 (  9663 PWs)   bands (ev):

   -56.5132 -56.5132 -56.4880 -56.4880 -56.4802 -56.4802 -56.4773 -56.4773
   -28.5901 -28.5828 -28.5791 -28.5776 -28.5598 -28.5565 -28.4915 -28.4914
   -27.6358 -27.6272 -27.5998 -27.5919 -27.5541 -27.5469 -27.5396 -27.5335
   -27.5302 -27.5114 -27.4639 -27.4603 -27.4571 -27.4492 -27.4475 -27.4413
     2.9745   2.9745   6.3259   6.3279   7.6081   7.6104   8.2281   8.2379
     9.8575   9.8606  10.7051  10.7085  10.9856  10.9912  11.3748  11.3807
    11.3908  11.3910  12.3762  12.3887  12.8261  12.8324  12.8459  12.8704
    13.0741  13.0797  13.1045  13.1075  13.2171  13.2207  13.2376  13.2377
    13.5731  13.5844  13.6066  13.6104  14.0037  14.0044  15.2040  15.2280
    15.3997  15.4042  15.6629  15.6751  15.7425  15.7634  15.8240  15.8487
    16.3560  16.3708  16.5585  16.5678  17.0732  17.0937

     occupation numbers 
     1.0000   1.0000   1.0000   1.0000   1.0000   1.0000   1.0000   1.0000
     1.0000   1.0000   1.0000   1.0000   1.0000   1.0000   1.0000   1.0000
     1.0000   1.0000   1.0000   1.0000   1.0000   1.0000   1.0000   1.0000
     1.0000   1.0000   1.0000   1.0000   1.0000   1.0000   1.0000   1.0000
     1.0000   1.0000   1.0000   1.0000   1.0000   1.0000   1.0000   1.0000
     1.0000   1.0000   1.0000   1.0000   1.0000   1.0000   1.0000   1.0000
     1.0000   1.0000   1.0000   1.0000   1.0000   1.0000   1.0000   1.0000
     1.0000   1.0000   1.0000   1.0000   1.0000   1.0000   1.0000   1.0000
     1.0000   1.0000   1.0000   1.0000   1.0000   1.0000  -0.0259  -0.0192
    -0.0004  -0.0003  -0.0000  -0.0000  -0.0000  -0.0000  -0.0000  -0.0000
    -0.0000  -0.0000  -0.0000  -0.0000  -0.0000  -0.0000

          k = 0.0000 0.0000 0.3000 (  9638 PWs)   bands (ev):

   -56.5102 -56.5102 -56.4924 -56.4924 -56.4794 -56.4794 -56.4768 -56.4768
   -28.5916 -28.5845 -28.5825 -28.5791 -28.5484 -28.5456 -28.5000 -28.4995
   -27.6404 -27.6320 -27.5883 -27.5826 -27.5615 -27.5462 -27.5373 -27.5330
   -27.5295 -27.4998 -27.4750 -27.4626 -27.4622 -27.4508 -27.4469 -27.4403
     3.3116   3.3116   5.6497   5.6507   7.7872   7.7908   8.4735   8.4835
     9.6691   9.6696  10.7384  10.7435  10.7933  10.8045  11.0722  11.0788
    11.7458  11.7474  12.1735  12.1894  12.8831  12.9005  12.9087  12.9165
    13.1308  13.1362  13.1516  13.1576  13.2596  13.2618  13.3808  13.3813
    13.4576  13.4626  13.8461  13.8501  14.0773  14.0793  14.9572  14.9897
    15.3633  15.3687  15.5668  15.5841  15.7387  15.7657  15.8575  15.8812
    16.2266  16.2420  16.4213  16.4343  17.2685  17.2872

     occupation numbers 
     1.0000   1.0000   1.0000   1.0000   1.0000   1.0000   1.0000   1.0000
     1.0000   1.0000   1.0000   1.0000   1.0000   1.0000   1.0000   1.0000
     1.0000   1.0000   1.0000   1.0000   1.0000   1.0000   1.0000   1.0000
     1.0000   1.0000   1.0000   1.0000   1.0000   1.0000   1.0000   1.0000
     1.0000   1.0000   1.0000   1.0000   1.0000   1.0000   1.0000   1.0000
     1.0000   1.0000   1.0000   1.0000   1.0000   1.0000   1.0000   1.0000
     1.0000   1.0000   1.0000   1.0000   1.0000   1.0000   1.0000   1.0000
     1.0000   1.0000   1.0000   1.0000   1.0000   1.0000   1.0000   1.0000
     1.0000   1.0000   1.0000   1.0000   1.0000   1.0000   0.4773   0.3144
    -0.0011  -0.0009  -0.0000  -0.0000  -0.0000  -0.0000  -0.0000  -0.0000
    -0.0000  -0.0000  -0.0000  -0.0000  -0.0000  -0.0000

          k = 0.0000 0.0000 0.4000 (  9654 PWs)   bands (ev):

   -56.5064 -56.5064 -56.4971 -56.4971 -56.4784 -56.4784 -56.4769 -56.4769
   -28.5912 -28.5861 -28.5845 -28.5813 -28.5359 -28.5338 -28.5108 -28.5099
   -27.6418 -27.6366 -27.5789 -27.5729 -27.5679 -27.5466 -27.5424 -27.5322
   -27.5202 -27.4889 -27.4886 -27.4698 -27.4606 -27.4536 -27.4454 -27.4412
     3.7685   3.7686   4.9677   4.9681   8.0221   8.0270   8.4871   8.4954
     9.7178   9.7212  10.4134  10.4152  10.7856  10.7988  11.0146  11.0190
    12.0858  12.0880  12.1326  12.1463  12.7239  12.7392  12.9196  12.9324
    13.0710  13.0772  13.1912  13.1943  13.2341  13.2376  13.2951  13.2986
    13.5918  13.5930  13.9164  13.9207  14.2941  14.3110  14.7678  14.8025
    15.3599  15.3732  15.4739  15.4931  15.7613  15.7912  15.8399  15.8661
    16.1533  16.1688  16.2726  16.2865  17.3792  17.3869

     occupation numbers 
     1.0000   1.0000   1.0000   1.0000   1.0000   1.0000   1.0000   1.0000
     1.0000   1.0000   1.0000   1.0000   1.0000   1.0000   1.0000   1.0000
     1.0000   1.0000   1.0000   1.0000   1.0000   1.0000   1.0000   1.0000
     1.0000   1.0000   1.0000   1.0000   1.0000   1.0000   1.0000   1.0000
     1.0000   1.0000   1.0000   1.0000   1.0000   1.0000   1.0000   1.0000
     1.0000   1.0000   1.0000   1.0000   1.0000   1.0000   1.0000   1.0000
     1.0000   1.0000   1.0000   1.0000   1.0000   1.0000   1.0000   1.0000
     1.0000   1.0000   1.0000   1.0000   1.0000   1.0000   1.0000   1.0000
     1.0000   1.0000   1.0000   1.0000   1.0000   1.0000   1.0340   1.0149
    -0.0012  -0.0008  -0.0000  -0.0000  -0.0000  -0.0000  -0.0000  -0.0000
    -0.0000  -0.0000  -0.0000  -0.0000  -0.0000  -0.0000

          k = 0.0000 0.0000-0.5000 (  9658 PWs)   bands (ev):

   -56.5019 -56.5019 -56.5019 -56.5019 -56.4775 -56.4775 -56.4775 -56.4775
   -28.5892 -28.5892 -28.5833 -28.5833 -28.5230 -28.5230 -28.5216 -28.5216
   -27.6402 -27.6402 -27.5736 -27.5736 -27.5593 -27.5593 -27.5371 -27.5371
   -27.5045 -27.5045 -27.4784 -27.4784 -27.4572 -27.4572 -27.4432 -27.4432
     4.3288   4.3288   4.3289   4.3289   8.2826   8.2826   8.2890   8.2890
    10.0172  10.0172  10.0212  10.0212  10.8981  10.8981  10.9094  10.9094
    12.2473  12.2473  12.2539  12.2539  12.6849  12.6849  12.6973  12.6973
    13.1417  13.1417  13.1422  13.1422  13.2366  13.2366  13.2403  13.2403
    13.7826  13.7826  13.7857  13.7857  14.5657  14.5657  14.5942  14.5942
    15.4004  15.4004  15.4182  15.4182  15.8053  15.8053  15.8351  15.8351
    16.1659  16.1659  16.1796  16.1796  17.5418  17.5467

     occupation numbers 
     1.0000   1.0000   1.0000   1.0000   1.0000   1.0000   1.0000   1.0000
     1.0000   1.0000   1.0000   1.0000   1.0000   1.0000   1.0000   1.0000
     1.0000   1.0000   1.0000   1.0000   1.0000   1.0000   1.0000   1.0000
     1.0000   1.0000   1.0000   1.0000   1.0000   1.0000   1.0000   1.0000
     1.0000   1.0000   1.0000   1.0000   1.0000   1.0000   1.0000   1.0000
     1.0000   1.0000   1.0000   1.0000   1.0000   1.0000   1.0000   1.0000
     1.0000   1.0000   1.0000   1.0000   1.0000   1.0000   1.0000   1.0000
     1.0000   1.0000   1.0000   1.0000   1.0000   1.0000   1.0000   1.0000
     1.0000   1.0000   1.0000   1.0000   1.0020   1.0020   1.0040   1.0040
    -0.0004  -0.0004  -0.0002  -0.0002  -0.0000  -0.0000  -0.0000  -0.0000
    -0.0000  -0.0000  -0.0000  -0.0000  -0.0000  -0.0000

          k = 0.0000 0.1000 0.1000 (  9675 PWs)   bands (ev):

   -56.5144 -56.5144 -56.4853 -56.4853 -56.4810 -56.4810 -56.4779 -56.4779
   -28.5884 -28.5817 -28.5766 -28.5752 -28.5668 -28.5629 -28.4880 -28.4879
   -27.6296 -27.6263 -27.6037 -27.6002 -27.5493 -27.5447 -27.5409 -27.5383
   -27.5286 -27.5177 -27.4596 -27.4589 -27.4542 -27.4494 -27.4462 -27.4426
     2.8373   2.8373   6.8019   6.8071   7.3668   7.3703   8.0833   8.0894
    10.0374  10.0429  10.6306  10.6345  11.0122  11.0165  11.1730  11.1748
    11.8332  11.8345  12.4247  12.4394  12.5996  12.6060  12.8434  12.8518
    12.9295  12.9361  13.1407  13.1431  13.1606  13.1642  13.2337  13.2360
    13.4835  13.4888  13.6675  13.6765  13.9351  13.9390  15.3910  15.3999
    15.4508  15.4546  15.6575  15.6665  15.7366  15.7487  15.7741  15.7906
    16.4354  16.4541  16.6623  16.6679  16.8854  16.9120

     occupation numbers 
     1.0000   1.0000   1.0000   1.0000   1.0000   1.0000   1.0000   1.0000
     1.0000   1.0000   1.0000   1.0000   1.0000   1.0000   1.0000   1.0000
     1.0000   1.0000   1.0000   1.0000   1.0000   1.0000   1.0000   1.0000
     1.0000   1.0000   1.0000   1.0000   1.0000   1.0000   1.0000   1.0000
     1.0000   1.0000   1.0000   1.0000   1.0000   1.0000   1.0000   1.0000
     1.0000   1.0000   1.0000   1.0000   1.0000   1.0000   1.0000   1.0000
     1.0000   1.0000   1.0000   1.0000   1.0000   1.0000   1.0000   1.0000
     1.0000   1.0000   1.0000   1.0000   1.0000   1.0000   1.0000   1.0000
     1.0000   1.0000   1.0000   1.0000   1.0000   1.0000  -0.0005  -0.0004
    -0.0001  -0.0001  -0.0000  -0.0000  -0.0000  -0.0000  -0.0000  -0.0000
    -0.0000  -0.0000  -0.0000  -0.0000  -0.0000  -0.0000

          k = 0.0000 0.1000 0.2000 (  9636 PWs)   bands (ev):

   -56.5126 -56.5126 -56.4884 -56.4884 -56.4807 -56.4807 -56.4770 -56.4770
   -28.5907 -28.5842 -28.5772 -28.5765 -28.5592 -28.5556 -28.4932 -28.4931
   -27.6354 -27.6290 -27.5962 -27.5903 -27.5543 -27.5480 -27.5416 -27.5377
   -27.5253 -27.5079 -27.4682 -27.4634 -27.4570 -27.4511 -27.4443 -27.4395
     3.0427   3.0427   6.3257   6.3288   7.3969   7.3995   8.3525   8.3586
     9.8332   9.8364  10.6454  10.6484  10.7647  10.7687  11.4219  11.4235
    11.6074  11.6122  12.3953  12.4035  12.6324  12.6358  13.0051  13.0160
    13.0981  13.1046  13.1353  13.1366  13.2141  13.2168  13.3004  13.3027
    13.4895  13.4950  13.7056  13.7190  14.0455  14.0519  15.2131  15.2365
    15.3448  15.3583  15.5945  15.6096  15.7102  15.7282  15.8273  15.8510
    16.3030  16.3201  16.5831  16.5941  17.0596  17.0892

     occupation numbers 
     1.0000   1.0000   1.0000   1.0000   1.0000   1.0000   1.0000   1.0000
     1.0000   1.0000   1.0000   1.0000   1.0000   1.0000   1.0000   1.0000
     1.0000   1.0000   1.0000   1.0000   1.0000   1.0000   1.0000   1.0000
     1.0000   1.0000   1.0000   1.0000   1.0000   1.0000   1.0000   1.0000
     1.0000   1.0000   1.0000   1.0000   1.0000   1.0000   1.0000   1.0000
     1.0000   1.0000   1.0000   1.0000   1.0000   1.0000   1.0000   1.0000
     1.0000   1.0000   1.0000   1.0000   1.0000   1.0000   1.0000   1.0000
     1.0000   1.0000   1.0000   1.0000   1.0000   1.0000   1.0000   1.0000
     1.0000   1.0000   1.0000   1.0000   1.0000   1.0000  -0.0233  -0.0169
    -0.0018  -0.0012  -0.0000  -0.0000  -0.0000  -0.0000  -0.0000  -0.0000
    -0.0000  -0.0000  -0.0000  -0.0000  -0.0000  -0.0000

          k = 0.0000 0.1000 0.3000 (  9642 PWs)   bands (ev):

   -56.5097 -56.5097 -56.4925 -56.4925 -56.4798 -56.4798 -56.4767 -56.4767
   -28.5915 -28.5854 -28.5804 -28.5780 -28.5485 -28.5457 -28.5015 -28.5011
   -27.6392 -27.6320 -27.5868 -27.5815 -27.5611 -27.5475 -27.5408 -27.5350
   -27.5259 -27.4972 -27.4792 -27.4662 -27.4607 -27.4540 -27.4428 -27.4381
     3.3781   3.3782   5.6882   5.6897   7.5762   7.5781   8.5076   8.5134
     9.6888   9.6902  10.3944  10.3987  10.9284  10.9300  11.2916  11.3022
    11.7040  11.7071  12.2164  12.2295  12.7190  12.7226  13.0166  13.0267
    13.0324  13.0353  13.2270  13.2331  13.2983  13.2999  13.4130  13.4170
    13.5152  13.5240  13.8857  13.8978  14.1187  14.1242  14.9669  14.9982
    15.3131  15.3258  15.4902  15.5051  15.6995  15.7238  15.8517  15.8775
    16.1923  16.2058  16.4503  16.4638  17.2315  17.2599

     occupation numbers 
     1.0000   1.0000   1.0000   1.0000   1.0000   1.0000   1.0000   1.0000
     1.0000   1.0000   1.0000   1.0000   1.0000   1.0000   1.0000   1.0000
     1.0000   1.0000   1.0000   1.0000   1.0000   1.0000   1.0000   1.0000
     1.0000   1.0000   1.0000   1.0000   1.0000   1.0000   1.0000   1.0000
     1.0000   1.0000   1.0000   1.0000   1.0000   1.0000   1.0000   1.0000
     1.0000   1.0000   1.0000   1.0000   1.0000   1.0000   1.0000   1.0000
     1.0000   1.0000   1.0000   1.0000   1.0000   1.0000   1.0000   1.0000
     1.0000   1.0000   1.0000   1.0000   1.0000   1.0000   1.0000   1.0000
     1.0000   1.0000   1.0000   1.0000   1.0000   1.0000   0.4278   0.2747
    -0.0039  -0.0029  -0.0000  -0.0000  -0.0000  -0.0000  -0.0000  -0.0000
    -0.0000  -0.0000  -0.0000  -0.0000  -0.0000  -0.0000

          k = 0.0000 0.1000 0.4000 (  9650 PWs)   bands (ev):

   -56.5059 -56.5059 -56.4970 -56.4970 -56.4788 -56.4788 -56.4770 -56.4770
   -28.5906 -28.5859 -28.5832 -28.5803 -28.5365 -28.5344 -28.5120 -28.5112
   -27.6402 -27.6355 -27.5788 -27.5720 -27.5676 -27.5491 -27.5423 -27.5312
   -27.5222 -27.4934 -27.4859 -27.4697 -27.4623 -27.4572 -27.4413 -27.4383
     3.8324   3.8326   5.0206   5.0213   7.8363   7.8386   8.4142   8.4188
     9.7548   9.7582  10.2269  10.2308  11.0030  11.0077  11.0665  11.0794
    11.9589  11.9646  12.1919  12.2006  12.6470  12.6519  12.8518  12.8608
    13.0640  13.0687  13.2680  13.2719  13.3067  13.3091  13.3724  13.3742
    13.6274  13.6315  13.9416  13.9469  14.3356  14.3550  14.7771  14.8112
    15.3081  15.3232  15.3969  15.4114  15.7207  15.7475  15.8303  15.8587
    16.1460  16.1550  16.3080  16.3209  17.3507  17.3685

     occupation numbers 
     1.0000   1.0000   1.0000   1.0000   1.0000   1.0000   1.0000   1.0000
     1.0000   1.0000   1.0000   1.0000   1.0000   1.0000   1.0000   1.0000
     1.0000   1.0000   1.0000   1.0000   1.0000   1.0000   1.0000   1.0000
     1.0000   1.0000   1.0000   1.0000   1.0000   1.0000   1.0000   1.0000
     1.0000   1.0000   1.0000   1.0000   1.0000   1.0000   1.0000   1.0000
     1.0000   1.0000   1.0000   1.0000   1.0000   1.0000   1.0000   1.0000
     1.0000   1.0000   1.0000   1.0000   1.0000   1.0000   1.0000   1.0000
     1.0000   1.0000   1.0000   1.0000   1.0000   1.0000   1.0000   1.0000
     1.0000   1.0000   1.0000   1.0000   1.0000   1.0000   1.0314   1.0054
    -0.0044  -0.0031  -0.0004  -0.0003  -0.0000  -0.0000  -0.0000  -0.0000
    -0.0000  -0.0000  -0.0000  -0.0000  -0.0000  -0.0000

          k = 0.0000 0.1000-0.5000 (  9676 PWs)   bands (ev):

   -56.5016 -56.5016 -56.5016 -56.5016 -56.4778 -56.4778 -56.4778 -56.4778
   -28.5884 -28.5884 -28.5824 -28.5824 -28.5244 -28.5244 -28.5223 -28.5223
   -27.6386 -27.6386 -27.5734 -27.5734 -27.5599 -27.5599 -27.5367 -27.5367
   -27.5078 -27.5078 -27.4769 -27.4769 -27.4603 -27.4603 -27.4397 -27.4397
     4.3886   4.3886   4.3890   4.3890   8.1377   8.1377   8.1445   8.1445
     9.9956   9.9956  10.0000  10.0000  10.9955  10.9955  11.0092  11.0092
    12.1786  12.1786  12.1844  12.1844  12.6273  12.6273  12.6434  12.6434
    13.1988  13.1988  13.2026  13.2026  13.3009  13.3009  13.3025  13.3025
    13.8128  13.8128  13.8164  13.8164  14.5876  14.5876  14.6174  14.6174
    15.3350  15.3350  15.3515  15.3515  15.7758  15.7758  15.8055  15.8055
    16.1899  16.1899  16.2015  16.2015  17.5341  17.5375

     occupation numbers 
     1.0000   1.0000   1.0000   1.0000   1.0000   1.0000   1.0000   1.0000
     1.0000   1.0000   1.0000   1.0000   1.0000   1.0000   1.0000   1.0000
     1.0000   1.0000   1.0000   1.0000   1.0000   1.0000   1.0000   1.0000
     1.0000   1.0000   1.0000   1.0000   1.0000   1.0000   1.0000   1.0000
     1.0000   1.0000   1.0000   1.0000   1.0000   1.0000   1.0000   1.0000
     1.0000   1.0000   1.0000   1.0000   1.0000   1.0000   1.0000   1.0000
     1.0000   1.0000   1.0000   1.0000   1.0000   1.0000   1.0000   1.0000
     1.0000   1.0000   1.0000   1.0000   1.0000   1.0000   1.0000   1.0000
     1.0000   1.0000   1.0000   1.0000   1.0035   1.0035   1.0067   1.0067
    -0.0023  -0.0023  -0.0015  -0.0015  -0.0000  -0.0000  -0.0000  -0.0000
    -0.0000  -0.0000  -0.0000  -0.0000  -0.0000  -0.0000

          k = 0.0000 0.2000 0.2000 (  9629 PWs)   bands (ev):

   -56.5109 -56.5109 -56.4901 -56.4901 -56.4810 -56.4810 -56.4767 -56.4767
   -28.5913 -28.5855 -28.5757 -28.5753 -28.5558 -28.5519 -28.4982 -28.4980
   -27.6352 -27.6313 -27.5891 -27.5862 -27.5539 -27.5527 -27.5436 -27.5398
   -27.5214 -27.5007 -27.4757 -27.4696 -27.4614 -27.4498 -27.4411 -27.4368
     3.2451   3.2452   6.2133   6.2173   7.1065   7.1109   8.4947   8.4998
     9.7694   9.7714  10.3195  10.3233  10.8495  10.8514  11.3879  11.3900
    11.7953  11.7968  12.3655  12.3693  12.5709  12.5789  12.9918  12.9992
    13.1298  13.1409  13.1921  13.1955  13.3265  13.3287  13.4084  13.4208
    13.4896  13.4960  13.8247  13.8387  14.1258  14.1332  15.1680  15.1893
    15.2394  15.2607  15.4439  15.4565  15.6651  15.6885  15.8095  15.8355
    16.2125  16.2275  16.5667  16.5776  17.1085  17.1477

     occupation numbers 
     1.0000   1.0000   1.0000   1.0000   1.0000   1.0000   1.0000   1.0000
     1.0000   1.0000   1.0000   1.0000   1.0000   1.0000   1.0000   1.0000
     1.0000   1.0000   1.0000   1.0000   1.0000   1.0000   1.0000   1.0000
     1.0000   1.0000   1.0000   1.0000   1.0000   1.0000   1.0000   1.0000
     1.0000   1.0000   1.0000   1.0000   1.0000   1.0000   1.0000   1.0000
     1.0000   1.0000   1.0000   1.0000   1.0000   1.0000   1.0000   1.0000
     1.0000   1.0000   1.0000   1.0000   1.0000   1.0000   1.0000   1.0000
     1.0000   1.0000   1.0000   1.0000   1.0000   1.0000   1.0000   1.0000
     1.0000   1.0000   1.0000   1.0000   1.0000   1.0000  -0.0343  -0.0299
    -0.0162  -0.0114  -0.0001  -0.0001  -0.0000  -0.0000  -0.0000  -0.0000
    -0.0000  -0.0000  -0.0000  -0.0000  -0.0000  -0.0000

          k = 0.0000 0.2000 0.3000 (  9653 PWs)   bands (ev):

   -56.5082 -56.5082 -56.4930 -56.4930 -56.4807 -56.4807 -56.4769 -56.4769
   -28.5907 -28.5854 -28.5774 -28.5758 -28.5482 -28.5452 -28.5059 -28.5056
   -27.6360 -27.6316 -27.5839 -27.5790 -27.5603 -27.5517 -27.5428 -27.5378
   -27.5221 -27.4939 -27.4864 -27.4734 -27.4645 -27.4503 -27.4386 -27.4348
     3.5753   3.5755   5.7763   5.7788   7.1292   7.1327   8.4353   8.4391
     9.7419   9.7452  10.1780  10.1826  10.9538  10.9556  11.4460  11.4494
    11.7628  11.7643  12.2214  12.2264  12.5370  12.5450  12.8820  12.8900
    13.1664  13.1786  13.2254  13.2294  13.4072  13.4078  13.5504  13.5611
    13.5860  13.5977  13.9901  14.0026  14.2291  14.2380  14.9838  15.0110
    15.1729  15.1946  15.3170  15.3269  15.6298  15.6544  15.7841  15.8143
    16.1557  16.1660  16.4876  16.4993  17.1989  17.2381

     occupation numbers 
     1.0000   1.0000   1.0000   1.0000   1.0000   1.0000   1.0000   1.0000
     1.0000   1.0000   1.0000   1.0000   1.0000   1.0000   1.0000   1.0000
     1.0000   1.0000   1.0000   1.0000   1.0000   1.0000   1.0000   1.0000
     1.0000   1.0000   1.0000   1.0000   1.0000   1.0000   1.0000   1.0000
     1.0000   1.0000   1.0000   1.0000   1.0000   1.0000   1.0000   1.0000
     1.0000   1.0000   1.0000   1.0000   1.0000   1.0000   1.0000   1.0000
     1.0000   1.0000   1.0000   1.0000   1.0000   1.0000   1.0000   1.0000
     1.0000   1.0000   1.0000   1.0000   1.0000   1.0000   1.0000   1.0000
     1.0000   1.0000   1.0000   1.0000   1.0000   1.0000   0.3428   0.2186
    -0.0335  -0.0285  -0.0035  -0.0028  -0.0000  -0.0000  -0.0000  -0.0000
    -0.0000  -0.0000  -0.0000  -0.0000  -0.0000  -0.0000

          k = 0.0000 0.2000 0.4000 (  9651 PWs)   bands (ev):

   -56.5047 -56.5047 -56.4967 -56.4967 -56.4797 -56.4797 -56.4776 -56.4776
   -28.5888 -28.5845 -28.5802 -28.5779 -28.5380 -28.5360 -28.5156 -28.5151
   -27.6357 -27.6323 -27.5800 -27.5726 -27.5648 -27.5524 -27.5419 -27.5302
   -27.5251 -27.5003 -27.4870 -27.4775 -27.4625 -27.4531 -27.4365 -27.4343
     4.0215   4.0219   5.1713   5.1726   7.3846   7.3872   8.1323   8.1350
     9.8718   9.8753  10.1408  10.1442  11.0537  11.0605  11.3121  11.3242
    11.8756  11.8799  12.0990  12.1050  12.4985  12.5092  12.6806  12.6913
    13.2246  13.2302  13.2761  13.2814  13.4060  13.4083  13.5611  13.5635
    13.7420  13.7462  14.0116  14.0191  14.4428  14.4680  14.7926  14.8240
    15.1665  15.1844  15.2248  15.2298  15.6289  15.6549  15.7341  15.7661
    16.1806  16.1867  16.3889  16.4014  17.2688  17.2936

     occupation numbers 
     1.0000   1.0000   1.0000   1.0000   1.0000   1.0000   1.0000   1.0000
     1.0000   1.0000   1.0000   1.0000   1.0000   1.0000   1.0000   1.0000
     1.0000   1.0000   1.0000   1.0000   1.0000   1.0000   1.0000   1.0000
     1.0000   1.0000   1.0000   1.0000   1.0000   1.0000   1.0000   1.0000
     1.0000   1.0000   1.0000   1.0000   1.0000   1.0000   1.0000   1.0000
     1.0000   1.0000   1.0000   1.0000   1.0000   1.0000   1.0000   1.0000
     1.0000   1.0000   1.0000   1.0000   1.0000   1.0000   1.0000   1.0000
     1.0000   1.0000   1.0000   1.0000   1.0000   1.0000   1.0000   1.0000
     1.0000   1.0000   1.0000   1.0000   1.0000   1.0001   1.0231   0.9872
    -0.0345  -0.0311  -0.0201  -0.0187  -0.0000  -0.0000  -0.0000  -0.0000
    -0.0000  -0.0000  -0.0000  -0.0000  -0.0000  -0.0000

          k = 0.0000 0.2000-0.5000 (  9650 PWs)   bands (ev):

   -56.5008 -56.5008 -56.5008 -56.5008 -56.4786 -56.4786 -56.4786 -56.4786
   -28.5859 -28.5859 -28.5802 -28.5802 -28.5276 -28.5276 -28.5247 -28.5247
   -27.6341 -27.6341 -27.5755 -27.5755 -27.5590 -27.5590 -27.5357 -27.5357
   -27.5138 -27.5138 -27.4821 -27.4821 -27.4577 -27.4577 -27.4350 -27.4350
     4.5643   4.5643   4.5652   4.5652   7.7411   7.7411   7.7478   7.7478
    10.0485  10.0485  10.0521  10.0521  11.1494  11.1494  11.1629  11.1629
    12.0403  12.0403  12.0439  12.0439  12.4896  12.4896  12.5044  12.5044
    13.3092  13.3092  13.3123  13.3123  13.4387  13.4387  13.4414  13.4414
    13.9065  13.9065  13.9111  13.9111  14.6380  14.6380  14.6697  14.6697
    15.1776  15.1776  15.1912  15.1912  15.6714  15.6714  15.7010  15.7010
    16.2736  16.2736  16.2843  16.2843  17.4434  17.4477

     occupation numbers 
     1.0000   1.0000   1.0000   1.0000   1.0000   1.0000   1.0000   1.0000
     1.0000   1.0000   1.0000   1.0000   1.0000   1.0000   1.0000   1.0000
     1.0000   1.0000   1.0000   1.0000   1.0000   1.0000   1.0000   1.0000
     1.0000   1.0000   1.0000   1.0000   1.0000   1.0000   1.0000   1.0000
     1.0000   1.0000   1.0000   1.0000   1.0000   1.0000   1.0000   1.0000
     1.0000   1.0000   1.0000   1.0000   1.0000   1.0000   1.0000   1.0000
     1.0000   1.0000   1.0000   1.0000   1.0000   1.0000   1.0000   1.0000
     1.0000   1.0000   1.0000   1.0000   1.0000   1.0000   1.0000   1.0000
     1.0000   1.0000   1.0000   1.0000   1.0100   1.0100   1.0171   1.0171
    -0.0326  -0.0326  -0.0294  -0.0294  -0.0000  -0.0000  -0.0000  -0.0000
    -0.0000  -0.0000  -0.0000  -0.0000  -0.0000  -0.0000

          k = 0.0000 0.3000 0.3000 (  9641 PWs)   bands (ev):

   -56.5058 -56.5058 -56.4943 -56.4943 -56.4811 -56.4811 -56.4775 -56.4775
   -28.5888 -28.5841 -28.5757 -28.5748 -28.5455 -28.5426 -28.5129 -28.5122
   -27.6320 -27.6299 -27.5827 -27.5774 -27.5604 -27.5525 -27.5403 -27.5397
   -27.5215 -27.4966 -27.4936 -27.4817 -27.4626 -27.4463 -27.4360 -27.4327
     3.8961   3.8964   5.7561   5.7587   6.7778   6.7811   8.1199   8.1243
     9.8828   9.8862  10.2220  10.2262  10.9526  10.9549  11.2879  11.2892
    11.9117  11.9183  12.2056  12.2110  12.3903  12.4010  12.7566  12.7638
    13.1520  13.1608  13.3634  13.3724  13.4941  13.4992  13.6396  13.6459
    13.7467  13.7583  14.0594  14.0723  14.3832  14.4035  14.9280  14.9451
    15.0232  15.0462  15.1467  15.1584  15.5584  15.5831  15.6727  15.7031
    16.1812  16.1898  16.4871  16.4957  17.1815  17.2186

     occupation numbers 
     1.0000   1.0000   1.0000   1.0000   1.0000   1.0000   1.0000   1.0000
     1.0000   1.0000   1.0000   1.0000   1.0000   1.0000   1.0000   1.0000
     1.0000   1.0000   1.0000   1.0000   1.0000   1.0000   1.0000   1.0000
     1.0000   1.0000   1.0000   1.0000   1.0000   1.0000   1.0000   1.0000
     1.0000   1.0000   1.0000   1.0000   1.0000   1.0000   1.0000   1.0000
     1.0000   1.0000   1.0000   1.0000   1.0000   1.0000   1.0000   1.0000
     1.0000   1.0000   1.0000   1.0000   1.0000   1.0000   1.0000   1.0000
     1.0000   1.0000   1.0000   1.0000   1.0000   1.0000   1.0000   1.0000
     1.0000   1.0000   1.0000   1.0000   1.0000   1.0000   0.6271   0.5400
     0.1703   0.0931  -0.0352  -0.0353  -0.0000  -0.0000  -0.0000  -0.0000
    -0.0000  -0.0000  -0.0000  -0.0000  -0.0000  -0.0000

          k = 0.0000 0.3000 0.4000 (  9635 PWs)   bands (ev):

   -56.5029 -56.5029 -56.4966 -56.4966 -56.4807 -56.4807 -56.4785 -56.4785
   -28.5857 -28.5820 -28.5771 -28.5755 -28.5392 -28.5374 -28.5212 -28.5206
   -27.6288 -27.6273 -27.5845 -27.5791 -27.5583 -27.5508 -27.5400 -27.5314
   -27.5259 -27.5058 -27.4966 -27.4887 -27.4559 -27.4460 -27.4341 -27.4319
     4.3267   4.3272   5.3794   5.3812   6.8559   6.8589   7.6668   7.6700
    10.0826  10.0851  10.2804  10.2830  11.0335  11.0369  11.3611  11.3685
    11.8662  11.8699  11.9502  11.9527  12.3436  12.3530  12.5149  12.5250
    13.2534  13.2621  13.4279  13.4290  13.4867  13.4870  13.7138  13.7179
    13.9459  13.9517  14.1241  14.1329  14.5478  14.5759  14.7620  14.7837
    14.9728  14.9924  15.0375  15.0504  15.5255  15.5481  15.5902  15.6208
    16.2734  16.2819  16.4808  16.4888  17.1359  17.1593

     occupation numbers 
     1.0000   1.0000   1.0000   1.0000   1.0000   1.0000   1.0000   1.0000
     1.0000   1.0000   1.0000   1.0000   1.0000   1.0000   1.0000   1.0000
     1.0000   1.0000   1.0000   1.0000   1.0000   1.0000   1.0000   1.0000
     1.0000   1.0000   1.0000   1.0000   1.0000   1.0000   1.0000   1.0000
     1.0000   1.0000   1.0000   1.0000   1.0000   1.0000   1.0000   1.0000
     1.0000   1.0000   1.0000   1.0000   1.0000   1.0000   1.0000   1.0000
     1.0000   1.0000   1.0000   1.0000   1.0000   1.0000   1.0000   1.0000
     1.0000   1.0000   1.0000   1.0000   1.0000   1.0000   1.0000   1.0000
     1.0000   1.0000   1.0000   1.0000   1.0013   1.0026   1.0349   1.0285
     0.3973   0.3017   0.1200   0.0811  -0.0000  -0.0000  -0.0000  -0.0000
    -0.0000  -0.0000  -0.0000  -0.0000  -0.0000  -0.0000

          k = 0.0000 0.3000-0.5000 (  9642 PWs)   bands (ev):

   -56.4997 -56.4997 -56.4997 -56.4997 -56.4797 -56.4797 -56.4797 -56.4797
   -28.5823 -28.5823 -28.5774 -28.5774 -28.5316 -28.5316 -28.5284 -28.5284
   -27.6268 -27.6268 -27.5832 -27.5832 -27.5535 -27.5535 -27.5343 -27.5343
   -27.5186 -27.5186 -27.4938 -27.4938 -27.4497 -27.4497 -27.4325 -27.4325
     4.8411   4.8411   4.8423   4.8423   7.2107   7.2107   7.2161   7.2161
    10.2420  10.2420  10.2444  10.2444  11.2286  11.2286  11.2382  11.2382
    11.8470  11.8470  11.8505  11.8505  12.3615  12.3615  12.3710  12.3710
    13.3630  13.3630  13.3706  13.3706  13.6057  13.6057  13.6137  13.6137
    14.0918  14.0918  14.0978  14.0978  14.6425  14.6425  14.6677  14.6677
    14.9955  14.9955  15.0073  15.0073  15.5358  15.5358  15.5625  15.5625
    16.3969  16.3969  16.4079  16.4079  17.2624  17.2656

     occupation numbers 
     1.0000   1.0000   1.0000   1.0000   1.0000   1.0000   1.0000   1.0000
     1.0000   1.0000   1.0000   1.0000   1.0000   1.0000   1.0000   1.0000
     1.0000   1.0000   1.0000   1.0000   1.0000   1.0000   1.0000   1.0000
     1.0000   1.0000   1.0000   1.0000   1.0000   1.0000   1.0000   1.0000
     1.0000   1.0000   1.0000   1.0000   1.0000   1.0000   1.0000   1.0000
     1.0000   1.0000   1.0000   1.0000   1.0000   1.0000   1.0000   1.0000
     1.0000   1.0000   1.0000   1.0000   1.0000   1.0000   1.0000   1.0000
     1.0000   1.0000   1.0000   1.0000   1.0000   1.0000   1.0000   1.0000
     1.0000   1.0000   1.0000   1.0000   1.0109   1.0109   1.0166   1.0166
     0.2873   0.2873   0.2344   0.2344  -0.0000  -0.0000  -0.0000  -0.0000
    -0.0000  -0.0000  -0.0000  -0.0000  -0.0000  -0.0000

          k = 0.0000 0.4000 0.4000 (  9636 PWs)   bands (ev):

   -56.5007 -56.5007 -56.4972 -56.4972 -56.4811 -56.4811 -56.4797 -56.4797
   -28.5818 -28.5790 -28.5755 -28.5747 -28.5382 -28.5367 -28.5278 -28.5269
   -27.6212 -27.6212 -27.5910 -27.5880 -27.5506 -27.5468 -27.5368 -27.5300
   -27.5281 -27.5094 -27.5075 -27.4990 -27.4480 -27.4409 -27.4340 -27.4315
     4.7278   4.7285   5.4689   5.4702   6.5218   6.5234   7.1469   7.1495
    10.3761  10.3765  10.5507  10.5517  10.9050  10.9054  11.2351  11.2385
    11.6917  11.6925  11.9446  11.9499  12.2653  12.2658  12.3944  12.4008
    13.2705  13.2773  13.3819  13.3825  13.7476  13.7494  13.8777  13.8825
    14.1459  14.1545  14.2000  14.2057  14.5513  14.5597  14.6736  14.6920
    14.8202  14.8365  14.9029  14.9272  15.4543  15.4703  15.4758  15.4992
    16.3835  16.3950  16.5292  16.5344  17.0558  17.0735

     occupation numbers 
     1.0000   1.0000   1.0000   1.0000   1.0000   1.0000   1.0000   1.0000
     1.0000   1.0000   1.0000   1.0000   1.0000   1.0000   1.0000   1.0000
     1.0000   1.0000   1.0000   1.0000   1.0000   1.0000   1.0000   1.0000
     1.0000   1.0000   1.0000   1.0000   1.0000   1.0000   1.0000   1.0000
     1.0000   1.0000   1.0000   1.0000   1.0000   1.0000   1.0000   1.0000
     1.0000   1.0000   1.0000   1.0000   1.0000   1.0000   1.0000   1.0000
     1.0000   1.0000   1.0000   1.0000   1.0000   1.0000   1.0000   1.0000
     1.0000   1.0000   1.0000   1.0000   1.0000   1.0000   1.0000   1.0000
     1.0000   1.0000   1.0000   1.0000   1.0014   1.0017   1.0181   1.0232
     0.9932   0.9643   0.7461   0.6311  -0.0001  -0.0000  -0.0000  -0.0000
    -0.0000  -0.0000  -0.0000  -0.0000  -0.0000  -0.0000

          k = 0.0000 0.4000-0.5000 (  9646 PWs)   bands (ev):

   -56.4987 -56.4987 -56.4987 -56.4987 -56.4807 -56.4807 -56.4807 -56.4807
   -28.5784 -28.5784 -28.5754 -28.5754 -28.5345 -28.5345 -28.5323 -28.5323
   -27.6172 -27.6172 -27.5942 -27.5942 -27.5454 -27.5454 -27.5340 -27.5340
   -27.5202 -27.5202 -27.5061 -27.5061 -27.4420 -27.4420 -27.4329 -27.4329
     5.1723   5.1723   5.1737   5.1737   6.6926   6.6926   6.6961   6.6961
    10.5221  10.5221  10.5231  10.5231  11.2415  11.2415  11.2500  11.2500
    11.5668  11.5668  11.5759  11.5759  12.2998  12.2998  12.3036  12.3036
    13.3632  13.3632  13.3679  13.3679  13.8274  13.8274  13.8366  13.8366
    14.3262  14.3262  14.3298  14.3298  14.4969  14.4969  14.5050  14.5050
    14.8518  14.8518  14.8717  14.8717  15.4401  15.4401  15.4565  15.4565
    16.5207  16.5207  16.5299  16.5299  17.0708  17.0720

     occupation numbers 
     1.0000   1.0000   1.0000   1.0000   1.0000   1.0000   1.0000   1.0000
     1.0000   1.0000   1.0000   1.0000   1.0000   1.0000   1.0000   1.0000
     1.0000   1.0000   1.0000   1.0000   1.0000   1.0000   1.0000   1.0000
     1.0000   1.0000   1.0000   1.0000   1.0000   1.0000   1.0000   1.0000
     1.0000   1.0000   1.0000   1.0000   1.0000   1.0000   1.0000   1.0000
     1.0000   1.0000   1.0000   1.0000   1.0000   1.0000   1.0000   1.0000
     1.0000   1.0000   1.0000   1.0000   1.0000   1.0000   1.0000   1.0000
     1.0000   1.0000   1.0000   1.0000   1.0000   1.0000   1.0000   1.0000
     1.0000   1.0000   1.0000   1.0000   1.0003   1.0003   1.0004   1.0004
     0.9284   0.9284   0.8686   0.8686  -0.0001  -0.0001  -0.0001  -0.0001
    -0.0000  -0.0000  -0.0000  -0.0000  -0.0000  -0.0000

          k = 0.0000-0.5000-0.5000 (  9580 PWs)   bands (ev):

   -56.4983 -56.4983 -56.4983 -56.4983 -56.4811 -56.4811 -56.4811 -56.4811
   -28.5756 -28.5756 -28.5756 -28.5756 -28.5349 -28.5349 -28.5349 -28.5349
   -27.6060 -27.6060 -27.6060 -27.6060 -27.5379 -27.5379 -27.5379 -27.5379
   -27.5158 -27.5158 -27.5158 -27.5158 -27.4361 -27.4361 -27.4361 -27.4361
     5.3716   5.3716   5.3716   5.3716   6.4279   6.4279   6.4279   6.4279
    10.7057  10.7057  10.7057  10.7057  11.2423  11.2423  11.2423  11.2423
    11.3851  11.3851  11.3851  11.3851  12.2845  12.2845  12.2845  12.2845
    13.3613  13.3613  13.3613  13.3613  14.0068  14.0068  14.0068  14.0068
    14.2925  14.2925  14.2925  14.2925  14.5253  14.5253  14.5253  14.5253
    14.7578  14.7578  14.7578  14.7578  15.4159  15.4159  15.4159  15.4159
    16.5873  16.5873  16.5873  16.5873  16.9833  16.9833

     occupation numbers 
     1.0000   1.0000   1.0000   1.0000   1.0000   1.0000   1.0000   1.0000
     1.0000   1.0000   1.0000   1.0000   1.0000   1.0000   1.0000   1.0000
     1.0000   1.0000   1.0000   1.0000   1.0000   1.0000   1.0000   1.0000
     1.0000   1.0000   1.0000   1.0000   1.0000   1.0000   1.0000   1.0000
     1.0000   1.0000   1.0000   1.0000   1.0000   1.0000   1.0000   1.0000
     1.0000   1.0000   1.0000   1.0000   1.0000   1.0000   1.0000   1.0000
     1.0000   1.0000   1.0000   1.0000   1.0000   1.0000   1.0000   1.0000
     1.0000   1.0000   1.0000   1.0000   1.0000   1.0000   1.0000   1.0000
     1.0000   1.0000   1.0000   1.0000   1.0007   1.0007   1.0007   1.0007
     1.0353   1.0353   1.0353   1.0353  -0.0002  -0.0002  -0.0002  -0.0002
    -0.0000  -0.0000  -0.0000  -0.0000  -0.0000  -0.0000

          k = 0.1000 0.1000 0.1000 (  9669 PWs)   bands (ev):

   -56.5138 -56.5138 -56.4862 -56.4862 -56.4812 -56.4812 -56.4775 -56.4775
   -28.5895 -28.5832 -28.5757 -28.5745 -28.5652 -28.5609 -28.4897 -28.4897
   -27.6302 -27.6291 -27.6003 -27.5968 -27.5510 -27.5439 -27.5430 -27.5414
   -27.5253 -27.5137 -27.4650 -27.4588 -27.4544 -27.4521 -27.4438 -27.4412
     2.9061   2.9061   6.7165   6.7230   7.2686   7.2748   8.1857   8.1907
     9.9891   9.9946  10.6191  10.6198  10.8711  10.8712  11.1921  11.1975
    11.9277  11.9288  12.3621  12.3755  12.6868  12.6880  12.8055  12.8138
    13.0088  13.0094  13.1666  13.1670  13.2136  13.2186  13.2402  13.2435
    13.4573  13.4610  13.6794  13.6830  13.9965  14.0017  15.3606  15.3648
    15.4272  15.4285  15.6213  15.6269  15.6873  15.7001  15.8009  15.8102
    16.3816  16.4014  16.6657  16.6719  16.9086  16.9400

     occupation numbers 
     1.0000   1.0000   1.0000   1.0000   1.0000   1.0000   1.0000   1.0000
     1.0000   1.0000   1.0000   1.0000   1.0000   1.0000   1.0000   1.0000
     1.0000   1.0000   1.0000   1.0000   1.0000   1.0000   1.0000   1.0000
     1.0000   1.0000   1.0000   1.0000   1.0000   1.0000   1.0000   1.0000
     1.0000   1.0000   1.0000   1.0000   1.0000   1.0000   1.0000   1.0000
     1.0000   1.0000   1.0000   1.0000   1.0000   1.0000   1.0000   1.0000
     1.0000   1.0000   1.0000   1.0000   1.0000   1.0000   1.0000   1.0000
     1.0000   1.0000   1.0000   1.0000   1.0000   1.0000   1.0000   1.0000
     1.0000   1.0000   1.0000   1.0000   1.0000   1.0000  -0.0012  -0.0010
    -0.0002  -0.0002  -0.0000  -0.0000  -0.0000  -0.0000  -0.0000  -0.0000
    -0.0000  -0.0000  -0.0000  -0.0000  -0.0000  -0.0000

          k = 0.1000 0.1000 0.2000 (  9653 PWs)   bands (ev):

   -56.5120 -56.5120 -56.4888 -56.4888 -56.4810 -56.4810 -56.4769 -56.4769
   -28.5910 -28.5850 -28.5758 -28.5755 -28.5587 -28.5548 -28.4949 -28.4947
   -27.6349 -27.6301 -27.5942 -27.5881 -27.5542 -27.5484 -27.5432 -27.5410
   -27.5221 -27.5051 -27.4729 -27.4630 -27.4575 -27.4539 -27.4415 -27.4386
     3.1105   3.1106   6.3283   6.3322   7.2720   7.2764   8.3626   8.3676
     9.8303   9.8335  10.5506  10.5528  10.6972  10.7003  11.3544  11.3594
    11.8169  11.8215  12.3555  12.3582  12.7044  12.7081  12.9591  12.9603
    13.0697  13.0775  13.1338  13.1371  13.2687  13.2733  13.3454  13.3579
    13.5130  13.5279  13.7244  13.7336  14.0854  14.0926  15.2032  15.2266
    15.3336  15.3482  15.5464  15.5599  15.6474  15.6636  15.8246  15.8422
    16.2724  16.2905  16.5960  16.6078  17.0411  17.0743

     occupation numbers 
     1.0000   1.0000   1.0000   1.0000   1.0000   1.0000   1.0000   1.0000
     1.0000   1.0000   1.0000   1.0000   1.0000   1.0000   1.0000   1.0000
     1.0000   1.0000   1.0000   1.0000   1.0000   1.0000   1.0000   1.0000
     1.0000   1.0000   1.0000   1.0000   1.0000   1.0000   1.0000   1.0000
     1.0000   1.0000   1.0000   1.0000   1.0000   1.0000   1.0000   1.0000
     1.0000   1.0000   1.0000   1.0000   1.0000   1.0000   1.0000   1.0000
     1.0000   1.0000   1.0000   1.0000   1.0000   1.0000   1.0000   1.0000
     1.0000   1.0000   1.0000   1.0000   1.0000   1.0000   1.0000   1.0000
     1.0000   1.0000   1.0000   1.0000   1.0000   1.0000  -0.0261  -0.0196
    -0.0024  -0.0016  -0.0000  -0.0000  -0.0000  -0.0000  -0.0000  -0.0000
    -0.0000  -0.0000  -0.0000  -0.0000  -0.0000  -0.0000

          k = 0.1000 0.1000 0.3000 (  9634 PWs)   bands (ev):

   -56.5092 -56.5092 -56.4926 -56.4926 -56.4802 -56.4802 -56.4768 -56.4768
   -28.5913 -28.5856 -28.5789 -28.5770 -28.5488 -28.5457 -28.5030 -28.5026
   -27.6381 -27.6318 -27.5858 -27.5802 -27.5604 -27.5483 -27.5437 -27.5373
   -27.5228 -27.4962 -27.4817 -27.4666 -27.4615 -27.4563 -27.4399 -27.4370
     3.4442   3.4443   5.7262   5.7279   7.4471   7.4494   8.4626   8.4681
     9.6442   9.6453  10.3742  10.3787  10.8190  10.8227  11.3611  11.3657
    11.7650  11.7660  12.2468  12.2547  12.7656  12.7689  13.0168  13.0250
    13.0588  13.0655  13.1623  13.1677  13.3269  13.3305  13.3864  13.3929
    13.5965  13.5994  13.9088  13.9181  14.1569  14.1618  14.9664  14.9966
    15.2974  15.3116  15.4385  15.4535  15.6390  15.6599  15.8289  15.8507
    16.1782  16.1925  16.4654  16.4804  17.1982  17.2274

     occupation numbers 
     1.0000   1.0000   1.0000   1.0000   1.0000   1.0000   1.0000   1.0000
     1.0000   1.0000   1.0000   1.0000   1.0000   1.0000   1.0000   1.0000
     1.0000   1.0000   1.0000   1.0000   1.0000   1.0000   1.0000   1.0000
     1.0000   1.0000   1.0000   1.0000   1.0000   1.0000   1.0000   1.0000
     1.0000   1.0000   1.0000   1.0000   1.0000   1.0000   1.0000   1.0000
     1.0000   1.0000   1.0000   1.0000   1.0000   1.0000   1.0000   1.0000
     1.0000   1.0000   1.0000   1.0000   1.0000   1.0000   1.0000   1.0000
     1.0000   1.0000   1.0000   1.0000   1.0000   1.0000   1.0000   1.0000
     1.0000   1.0000   1.0000   1.0000   1.0000   1.0000   0.4303   0.2821
    -0.0055  -0.0040  -0.0001  -0.0001  -0.0000  -0.0000  -0.0000  -0.0000
    -0.0000  -0.0000  -0.0000  -0.0000  -0.0000  -0.0000

          k = 0.1000 0.1000 0.4000 (  9660 PWs)   bands (ev):

   -56.5055 -56.5055 -56.4969 -56.4969 -56.4792 -56.4792 -56.4772 -56.4772
   -28.5900 -28.5856 -28.5819 -28.5794 -28.5373 -28.5350 -28.5134 -28.5125
   -27.6387 -27.6345 -27.5780 -27.5721 -27.5668 -27.5514 -27.5425 -27.5311
   -27.5229 -27.4981 -27.4824 -27.4695 -27.4636 -27.4596 -27.4387 -27.4368
     3.8959   3.8961   5.0729   5.0737   7.7153   7.7177   8.3339   8.3388
     9.6762   9.6776  10.1906  10.1944  10.9270  10.9310  11.2410  11.2474
    11.8797  11.8842  12.2198  12.2236  12.7273  12.7305  12.9299  12.9375
    13.0627  13.0696  13.2318  13.2376  13.3075  13.3093  13.3797  13.3858
    13.6676  13.6708  13.9456  13.9514  14.3708  14.3919  14.7824  14.8163
    15.2808  15.2970  15.3478  15.3634  15.6664  15.6891  15.7920  15.8163
    16.1491  16.1585  16.3233  16.3372  17.3631  17.3809

     occupation numbers 
     1.0000   1.0000   1.0000   1.0000   1.0000   1.0000   1.0000   1.0000
     1.0000   1.0000   1.0000   1.0000   1.0000   1.0000   1.0000   1.0000
     1.0000   1.0000   1.0000   1.0000   1.0000   1.0000   1.0000   1.0000
     1.0000   1.0000   1.0000   1.0000   1.0000   1.0000   1.0000   1.0000
     1.0000   1.0000   1.0000   1.0000   1.0000   1.0000   1.0000   1.0000
     1.0000   1.0000   1.0000   1.0000   1.0000   1.0000   1.0000   1.0000
     1.0000   1.0000   1.0000   1.0000   1.0000   1.0000   1.0000   1.0000
     1.0000   1.0000   1.0000   1.0000   1.0000   1.0000   1.0000   1.0000
     1.0000   1.0000   1.0000   1.0000   1.0000   1.0000   1.0291   0.9988
    -0.0078  -0.0056  -0.0016  -0.0011  -0.0000  -0.0000  -0.0000  -0.0000
    -0.0000  -0.0000  -0.0000  -0.0000  -0.0000  -0.0000

          k = 0.1000 0.1000-0.5000 (  9662 PWs)   bands (ev):

   -56.5013 -56.5013 -56.5013 -56.5013 -56.4781 -56.4781 -56.4781 -56.4781
   -28.5875 -28.5875 -28.5816 -28.5816 -28.5256 -28.5256 -28.5231 -28.5231
   -27.6372 -27.6372 -27.5726 -27.5726 -27.5612 -27.5612 -27.5362 -27.5362
   -27.5109 -27.5109 -27.4751 -27.4751 -27.4624 -27.4624 -27.4376 -27.4376
     4.4480   4.4480   4.4485   4.4485   8.0330   8.0330   8.0393   8.0393
     9.9192   9.9192   9.9219   9.9219  11.0690  11.0690  11.0797  11.0797
    12.1014  12.1014  12.1056  12.1056  12.7598  12.7598  12.7730  12.7730
    13.1692  13.1692  13.1759  13.1759  13.3255  13.3255  13.3283  13.3283
    13.8211  13.8211  13.8260  13.8260  14.6062  14.6062  14.6371  14.6371
    15.2941  15.2941  15.3129  15.3129  15.7262  15.7262  15.7539  15.7539
    16.2036  16.2036  16.2145  16.2145  17.6025  17.6048

     occupation numbers 
     1.0000   1.0000   1.0000   1.0000   1.0000   1.0000   1.0000   1.0000
     1.0000   1.0000   1.0000   1.0000   1.0000   1.0000   1.0000   1.0000
     1.0000   1.0000   1.0000   1.0000   1.0000   1.0000   1.0000   1.0000
     1.0000   1.0000   1.0000   1.0000   1.0000   1.0000   1.0000   1.0000
     1.0000   1.0000   1.0000   1.0000   1.0000   1.0000   1.0000   1.0000
     1.0000   1.0000   1.0000   1.0000   1.0000   1.0000   1.0000   1.0000
     1.0000   1.0000   1.0000   1.0000   1.0000   1.0000   1.0000   1.0000
     1.0000   1.0000   1.0000   1.0000   1.0000   1.0000   1.0000   1.0000
     1.0000   1.0000   1.0000   1.0000   1.0053   1.0053   1.0098   1.0098
    -0.0059  -0.0059  -0.0039  -0.0039  -0.0000  -0.0000  -0.0000  -0.0000
    -0.0000  -0.0000  -0.0000  -0.0000  -0.0000  -0.0000

          k = 0.1000 0.2000 0.2000 (  9644 PWs)   bands (ev):

   -56.5103 -56.5103 -56.4903 -56.4903 -56.4814 -56.4814 -56.4767 -56.4767
   -28.5912 -28.5856 -28.5746 -28.5743 -28.5556 -28.5517 -28.4998 -28.4995
   -27.6345 -27.6313 -27.5896 -27.5827 -27.5537 -27.5524 -27.5451 -27.5433
   -27.5186 -27.4996 -27.4799 -27.4663 -27.4628 -27.4531 -27.4387 -27.4363
     3.3120   3.3121   6.2297   6.2347   7.0571   7.0635   8.3960   8.3996
     9.6896   9.6921  10.4531  10.4558  10.6341  10.6367  11.4238  11.4289
    11.8990  11.9025  12.3330  12.3373  12.6658  12.6724  13.0039  13.0063
    13.0642  13.0715  13.1660  13.1707  13.2560  13.2612  13.4818  13.4927
    13.5997  13.6087  13.8296  13.8388  14.1573  14.1646  15.1589  15.1767
    15.2420  15.2606  15.4244  15.4363  15.5781  15.5936  15.7950  15.8137
    16.2055  16.2212  16.5740  16.5862  17.0893  17.1295

     occupation numbers 
     1.0000   1.0000   1.0000   1.0000   1.0000   1.0000   1.0000   1.0000
     1.0000   1.0000   1.0000   1.0000   1.0000   1.0000   1.0000   1.0000
     1.0000   1.0000   1.0000   1.0000   1.0000   1.0000   1.0000   1.0000
     1.0000   1.0000   1.0000   1.0000   1.0000   1.0000   1.0000   1.0000
     1.0000   1.0000   1.0000   1.0000   1.0000   1.0000   1.0000   1.0000
     1.0000   1.0000   1.0000   1.0000   1.0000   1.0000   1.0000   1.0000
     1.0000   1.0000   1.0000   1.0000   1.0000   1.0000   1.0000   1.0000
     1.0000   1.0000   1.0000   1.0000   1.0000   1.0000   1.0000   1.0000
     1.0000   1.0000   1.0000   1.0000   1.0000   1.0000  -0.0353  -0.0328
    -0.0156  -0.0114  -0.0002  -0.0001  -0.0000  -0.0000  -0.0000  -0.0000
    -0.0000  -0.0000  -0.0000  -0.0000  -0.0000  -0.0000

          k = 0.1000 0.2000 0.3000 (  9631 PWs)   bands (ev):

   -56.5077 -56.5077 -56.4930 -56.4930 -56.4810 -56.4810 -56.4770 -56.4770
   -28.5903 -28.5852 -28.5762 -28.5749 -28.5486 -28.5455 -28.5074 -28.5069
   -27.6349 -27.6308 -27.5842 -27.5770 -27.5601 -27.5516 -27.5451 -27.5402
   -27.5192 -27.4982 -27.4838 -27.4705 -27.4668 -27.4530 -27.4368 -27.4344
     3.6404   3.6406   5.8140   5.8169   7.0978   7.1023   8.3493   8.3526
     9.5028   9.5051  10.3405  10.3433  10.7928  10.7974  11.5156  11.5206
    11.8103  11.8163  12.2471  12.2497  12.5914  12.5996  12.9286  12.9360
    13.1506  13.1611  13.2101  13.2149  13.3133  13.3195  13.5196  13.5241
    13.7293  13.7344  13.9819  13.9910  14.2718  14.2814  14.9770  15.0021
    15.1791  15.1975  15.3012  15.3118  15.5591  15.5755  15.7524  15.7764
    16.1614  16.1725  16.4929  16.5060  17.1716  17.2090

     occupation numbers 
     1.0000   1.0000   1.0000   1.0000   1.0000   1.0000   1.0000   1.0000
     1.0000   1.0000   1.0000   1.0000   1.0000   1.0000   1.0000   1.0000
     1.0000   1.0000   1.0000   1.0000   1.0000   1.0000   1.0000   1.0000
     1.0000   1.0000   1.0000   1.0000   1.0000   1.0000   1.0000   1.0000
     1.0000   1.0000   1.0000   1.0000   1.0000   1.0000   1.0000   1.0000
     1.0000   1.0000   1.0000   1.0000   1.0000   1.0000   1.0000   1.0000
     1.0000   1.0000   1.0000   1.0000   1.0000   1.0000   1.0000   1.0000
     1.0000   1.0000   1.0000   1.0000   1.0000   1.0000   1.0000   1.0000
     1.0000   1.0000   1.0000   1.0000   1.0000   1.0000   0.3762   0.2574
    -0.0323  -0.0277  -0.0051  -0.0040  -0.0000  -0.0000  -0.0000  -0.0000
    -0.0000  -0.0000  -0.0000  -0.0000  -0.0000  -0.0000

          k = 0.1000 0.2000 0.4000 (  9656 PWs)   bands (ev):

   -56.5043 -56.5043 -56.4965 -56.4965 -56.4801 -56.4801 -56.4778 -56.4778
   -28.5881 -28.5840 -28.5792 -28.5770 -28.5388 -28.5367 -28.5170 -28.5162
   -27.6343 -27.6312 -27.5794 -27.5717 -27.5657 -27.5543 -27.5417 -27.5321
   -27.5233 -27.5054 -27.4825 -27.4753 -27.4645 -27.4554 -27.4353 -27.4337
     4.0839   4.0842   5.2222   5.2236   7.3547   7.3575   8.0849   8.0876
     9.5719   9.5733  10.1180  10.1203  11.0717  11.0770  11.5567  11.5629
    11.7333  11.7355  12.0999  12.1025  12.5620  12.5712  12.7860  12.7940
    13.1895  13.1973  13.2807  13.2857  13.3631  13.3674  13.5203  13.5265
    13.7983  13.8045  14.0210  14.0295  14.4748  14.5017  14.8017  14.8332
    15.1543  15.1687  15.2088  15.2152  15.5813  15.6006  15.6973  15.7235
    16.1851  16.1916  16.3893  16.4020  17.2754  17.2986

     occupation numbers 
     1.0000   1.0000   1.0000   1.0000   1.0000   1.0000   1.0000   1.0000
     1.0000   1.0000   1.0000   1.0000   1.0000   1.0000   1.0000   1.0000
     1.0000   1.0000   1.0000   1.0000   1.0000   1.0000   1.0000   1.0000
     1.0000   1.0000   1.0000   1.0000   1.0000   1.0000   1.0000   1.0000
     1.0000   1.0000   1.0000   1.0000   1.0000   1.0000   1.0000   1.0000
     1.0000   1.0000   1.0000   1.0000   1.0000   1.0000   1.0000   1.0000
     1.0000   1.0000   1.0000   1.0000   1.0000   1.0000   1.0000   1.0000
     1.0000   1.0000   1.0000   1.0000   1.0000   1.0000   1.0000   1.0000
[...]
    11.8848  11.8848  11.8888  11.8888  12.3763  12.3763  12.3838  12.3838
    13.2703  13.2703  13.2752  13.2752  13.8514  13.8514  13.8644  13.8644
    14.2108  14.2108  14.2179  14.2179  14.6454  14.6454  14.6728  14.6728
    14.8179  14.8179  14.8576  14.8576  15.4135  15.4135  15.4281  15.4281
    16.4545  16.4545  16.4657  16.4657  17.1053  17.1077

     occupation numbers 
     1.0000   1.0000   1.0000   1.0000   1.0000   1.0000   1.0000   1.0000
     1.0000   1.0000   1.0000   1.0000   1.0000   1.0000   1.0000   1.0000
     1.0000   1.0000   1.0000   1.0000   1.0000   1.0000   1.0000   1.0000
     1.0000   1.0000   1.0000   1.0000   1.0000   1.0000   1.0000   1.0000
     1.0000   1.0000   1.0000   1.0000   1.0000   1.0000   1.0000   1.0000
     1.0000   1.0000   1.0000   1.0000   1.0000   1.0000   1.0000   1.0000
     1.0000   1.0000   1.0000   1.0000   1.0000   1.0000   1.0000   1.0000
     1.0000   1.0000   1.0000   1.0000   1.0000   1.0000   1.0000   1.0000
     1.0000   1.0000   1.0000   1.0000   1.0114   1.0114   1.0179   1.0179
     0.9965   0.9965   0.9124   0.9124  -0.0002  -0.0002  -0.0002  -0.0002
    -0.0000  -0.0000  -0.0000  -0.0000  -0.0000  -0.0000

          k =-0.2000 0.4000 0.3000 (  9651 PWs)   bands (ev):

   -56.5012 -56.5012 -56.4956 -56.4956 -56.4821 -56.4821 -56.4797 -56.4797
   -28.5827 -28.5793 -28.5735 -28.5721 -28.5426 -28.5403 -28.5262 -28.5248
   -27.6247 -27.6223 -27.5815 -27.5763 -27.5658 -27.5606 -27.5402 -27.5318
   -27.5243 -27.5136 -27.4840 -27.4773 -27.4611 -27.4535 -27.4344 -27.4319
     4.5651   4.5655   5.5671   5.5692   6.8872   6.8916   7.6192   7.6225
     9.1376   9.1412   9.7833   9.7867  11.0153  11.0178  11.5299  11.5317
    11.7529  11.7560  12.2099  12.2131  12.6685  12.6739  12.8320  12.8386
    13.1082  13.1146  13.1937  13.2061  13.4199  13.4264  13.6483  13.6598
    13.9722  13.9827  14.2845  14.2945  14.6197  14.6455  14.8154  14.8310
    14.9757  14.9925  15.1253  15.1539  15.3616  15.3667  15.5057  15.5190
    16.2476  16.2556  16.4033  16.4122  17.1304  17.1466

     occupation numbers 
     1.0000   1.0000   1.0000   1.0000   1.0000   1.0000   1.0000   1.0000
     1.0000   1.0000   1.0000   1.0000   1.0000   1.0000   1.0000   1.0000
     1.0000   1.0000   1.0000   1.0000   1.0000   1.0000   1.0000   1.0000
     1.0000   1.0000   1.0000   1.0000   1.0000   1.0000   1.0000   1.0000
     1.0000   1.0000   1.0000   1.0000   1.0000   1.0000   1.0000   1.0000
     1.0000   1.0000   1.0000   1.0000   1.0000   1.0000   1.0000   1.0000
     1.0000   1.0000   1.0000   1.0000   1.0000   1.0000   1.0000   1.0000
     1.0000   1.0000   1.0000   1.0000   1.0000   1.0000   1.0000   1.0000
     1.0000   1.0000   1.0000   1.0000   1.0070   1.0115   1.0000   0.9749
     0.3828   0.3010  -0.0300  -0.0355  -0.0011  -0.0010  -0.0000  -0.0000
    -0.0000  -0.0000  -0.0000  -0.0000  -0.0000  -0.0000

          k =-0.2000-0.5000 0.3000 (  9660 PWs)   bands (ev):

   -56.4983 -56.4983 -56.4983 -56.4983 -56.4811 -56.4811 -56.4811 -56.4811
   -28.5790 -28.5790 -28.5742 -28.5742 -28.5358 -28.5358 -28.5321 -28.5321
   -27.6220 -27.6220 -27.5798 -27.5798 -27.5640 -27.5640 -27.5337 -27.5337
   -27.5208 -27.5208 -27.4822 -27.4822 -27.4557 -27.4557 -27.4332 -27.4332
     5.0601   5.0601   5.0612   5.0612   7.2218   7.2218   7.2267   7.2267
     9.4399   9.4399   9.4432   9.4432  11.2335  11.2335  11.2363  11.2363
    11.9948  11.9948  12.0019  12.0019  12.7536  12.7536  12.7642  12.7642
    13.1382  13.1382  13.1488  13.1488  13.5466  13.5466  13.5563  13.5563
    14.1601  14.1601  14.1695  14.1695  14.7347  14.7347  14.7604  14.7604
    15.0217  15.0217  15.0468  15.0468  15.4238  15.4238  15.4404  15.4404
    16.3232  16.3232  16.3337  16.3337  17.2487  17.2545

     occupation numbers 
     1.0000   1.0000   1.0000   1.0000   1.0000   1.0000   1.0000   1.0000
     1.0000   1.0000   1.0000   1.0000   1.0000   1.0000   1.0000   1.0000
     1.0000   1.0000   1.0000   1.0000   1.0000   1.0000   1.0000   1.0000
     1.0000   1.0000   1.0000   1.0000   1.0000   1.0000   1.0000   1.0000
     1.0000   1.0000   1.0000   1.0000   1.0000   1.0000   1.0000   1.0000
     1.0000   1.0000   1.0000   1.0000   1.0000   1.0000   1.0000   1.0000
     1.0000   1.0000   1.0000   1.0000   1.0000   1.0000   1.0000   1.0000
     1.0000   1.0000   1.0000   1.0000   1.0000   1.0000   1.0000   1.0000
     1.0000   1.0000   1.0000   1.0000   1.0338   1.0338   1.0351   1.0351
     0.1758   0.1758   0.0914   0.0914  -0.0002  -0.0002  -0.0001  -0.0001
    -0.0000  -0.0000  -0.0000  -0.0000  -0.0000  -0.0000

          k =-0.2000-0.5000 0.4000 (  9638 PWs)   bands (ev):

   -56.4971 -56.4971 -56.4971 -56.4971 -56.4822 -56.4822 -56.4822 -56.4822
   -28.5750 -28.5750 -28.5720 -28.5720 -28.5389 -28.5389 -28.5363 -28.5363
   -27.6134 -27.6134 -27.5902 -27.5902 -27.5599 -27.5599 -27.5370 -27.5370
   -27.5166 -27.5166 -27.4900 -27.4900 -27.4486 -27.4486 -27.4353 -27.4353
     5.3782   5.3782   5.3796   5.3796   6.8021   6.8021   6.8057   6.8057
     9.5481   9.5481   9.5521   9.5521  10.9113  10.9113  10.9138  10.9138
    12.1981  12.1981  12.2060  12.2060  12.5665  12.5665  12.5765  12.5765
    13.1588  13.1588  13.1647  13.1647  13.6488  13.6488  13.6619  13.6619
    14.3397  14.3397  14.3455  14.3455  14.7475  14.7475  14.7713  14.7713
    14.9077  14.9077  14.9457  14.9457  15.3607  15.3607  15.3730  15.3730
    16.3980  16.3980  16.4078  16.4078  17.0259  17.0300

     occupation numbers 
     1.0000   1.0000   1.0000   1.0000   1.0000   1.0000   1.0000   1.0000
     1.0000   1.0000   1.0000   1.0000   1.0000   1.0000   1.0000   1.0000
     1.0000   1.0000   1.0000   1.0000   1.0000   1.0000   1.0000   1.0000
     1.0000   1.0000   1.0000   1.0000   1.0000   1.0000   1.0000   1.0000
     1.0000   1.0000   1.0000   1.0000   1.0000   1.0000   1.0000   1.0000
     1.0000   1.0000   1.0000   1.0000   1.0000   1.0000   1.0000   1.0000
     1.0000   1.0000   1.0000   1.0000   1.0000   1.0000   1.0000   1.0000
     1.0000   1.0000   1.0000   1.0000   1.0000   1.0000   1.0000   1.0000
     1.0000   1.0000   1.0000   1.0000   1.0353   1.0353   1.0332   1.0332
     0.7244   0.7244   0.5370   0.5370  -0.0012  -0.0012  -0.0008  -0.0008
    -0.0000  -0.0000  -0.0000  -0.0000  -0.0000  -0.0000

          k =-0.3000-0.5000 0.4000 (  9654 PWs)   bands (ev):

   -56.4954 -56.4954 -56.4954 -56.4954 -56.4840 -56.4840 -56.4840 -56.4840
   -28.5711 -28.5711 -28.5681 -28.5681 -28.5435 -28.5435 -28.5408 -28.5408
   -27.6085 -27.6085 -27.5871 -27.5871 -27.5696 -27.5696 -27.5429 -27.5429
   -27.5089 -27.5089 -27.4795 -27.4795 -27.4545 -27.4545 -27.4392 -27.4392
     5.6191   5.6191   5.6212   5.6212   6.8418   6.8418   6.8470   6.8470
     9.1179   9.1179   9.1237   9.1237  10.4443  10.4443  10.4475  10.4475
    12.4412  12.4412  12.4494  12.4494  12.7823  12.7823  12.7913  12.7913
    13.0788  13.0788  13.0883  13.0883  13.4290  13.4290  13.4401  13.4401
    14.5075  14.5075  14.5146  14.5146  14.8783  14.8783  14.9006  14.9006
    15.0314  15.0314  15.0641  15.0641  15.2848  15.2848  15.3004  15.3004
    16.3476  16.3476  16.3566  16.3566  16.8704  16.8762

     occupation numbers 
     1.0000   1.0000   1.0000   1.0000   1.0000   1.0000   1.0000   1.0000
     1.0000   1.0000   1.0000   1.0000   1.0000   1.0000   1.0000   1.0000
     1.0000   1.0000   1.0000   1.0000   1.0000   1.0000   1.0000   1.0000
     1.0000   1.0000   1.0000   1.0000   1.0000   1.0000   1.0000   1.0000
     1.0000   1.0000   1.0000   1.0000   1.0000   1.0000   1.0000   1.0000
     1.0000   1.0000   1.0000   1.0000   1.0000   1.0000   1.0000   1.0000
     1.0000   1.0000   1.0000   1.0000   1.0000   1.0000   1.0000   1.0000
     1.0000   1.0000   1.0000   1.0000   1.0000   1.0000   1.0000   1.0000
     1.0004   1.0004   1.0005   1.0005   0.8455   0.8455   0.7560   0.7560
     0.1404   0.1404   0.0467   0.0467  -0.0072  -0.0072  -0.0052  -0.0052
    -0.0000  -0.0000  -0.0000  -0.0000  -0.0000  -0.0000

     the Fermi energy is    14.9529 ev

!    total energy              =   -1180.35040200 Ry

     total all-electron energy =    -10727.811238 Ry
     estimated scf accuracy    <       0.00000035 Ry
     smearing contrib. (-TS)   =      -0.00035161 Ry
     internal energy E=F+TS    =   -1180.35005039 Ry

     The total energy is F=E-TS. E is the sum of the following terms:
     one-electron contribution =    -336.79775011 Ry
     hartree contribution      =     207.04267813 Ry
     xc contribution           =    -114.36225424 Ry
     ewald contribution        =    -496.51183961 Ry
     one-center paw contrib.   =    -439.72088457 Ry
      -> PAW hartree energy AE =     126.71637329 Ry
      -> PAW hartree energy PS =    -125.74902120 Ry
      -> PAW xc energy AE      =     -96.23993576 Ry
      -> PAW xc energy PS      =      20.93256464 Ry
      -> total E_H with PAW    =     208.01003022 Ry
      -> total E_XC with PAW   =    -189.66962535 Ry

     convergence has been achieved in   8 iterations

     Forces acting on atoms (cartesian axes, Ry/au):

     atom    1 type  1   force =    -0.00279848   -0.00279848    0.00279848
     atom    2 type  1   force =    -0.00279848    0.00279848   -0.00279848
     atom    3 type  1   force =     0.00279848   -0.00279848   -0.00279848
     atom    4 type  1   force =     0.00279848    0.00279848    0.00279848
     atom    5 type  2   force =    -0.00429769   -0.00429769    0.00429769
     atom    6 type  2   force =    -0.00429769    0.00429769   -0.00429769
     atom    7 type  2   force =     0.00429769   -0.00429769   -0.00429769
     atom    8 type  2   force =     0.00429769    0.00429769    0.00429769
     The non-local contrib.  to forces
     atom    1 type  1   force =     0.05122383    0.05122383   -0.05122383
     atom    2 type  1   force =     0.05122383   -0.05122383    0.05122383
     atom    3 type  1   force =    -0.05122383    0.05122383    0.05122383
     atom    4 type  1   force =    -0.05122383   -0.05122383   -0.05122383
     atom    5 type  2   force =    -0.00808045   -0.00808045    0.00808045
     atom    6 type  2   force =    -0.00808045    0.00808045   -0.00808045
     atom    7 type  2   force =     0.00808045   -0.00808045   -0.00808045
     atom    8 type  2   force =     0.00808045    0.00808045    0.00808045
     The ionic contribution  to forces
     atom    1 type  1   force =    -0.85044630   -0.85044630    0.85044630
     atom    2 type  1   force =    -0.85044630    0.85044630   -0.85044630
     atom    3 type  1   force =     0.85044630   -0.85044630   -0.85044630
     atom    4 type  1   force =     0.85044630    0.85044630    0.85044630
     atom    5 type  2   force =    -0.24524978   -0.24524978    0.24524978
     atom    6 type  2   force =    -0.24524978    0.24524978   -0.24524978
     atom    7 type  2   force =     0.24524978   -0.24524978   -0.24524978
     atom    8 type  2   force =     0.24524978    0.24524978    0.24524978
     The local contribution  to forces
     atom    1 type  1   force =     0.79736101    0.79736101   -0.79736101
     atom    2 type  1   force =     0.79736101   -0.79736101    0.79736101
     atom    3 type  1   force =    -0.79736101    0.79736101    0.79736101
     atom    4 type  1   force =    -0.79736101   -0.79736101   -0.79736101
     atom    5 type  2   force =     0.24824655    0.24824655   -0.24824655
     atom    6 type  2   force =     0.24824655   -0.24824655    0.24824655
     atom    7 type  2   force =    -0.24824655    0.24824655    0.24824655
     atom    8 type  2   force =    -0.24824655   -0.24824655   -0.24824655
     The core correction contribution to forces
     atom    1 type  1   force =    -0.00103261   -0.00103261    0.00103261
     atom    2 type  1   force =    -0.00103261    0.00103261   -0.00103261
     atom    3 type  1   force =     0.00103261   -0.00103261   -0.00103261
     atom    4 type  1   force =     0.00103261    0.00103261    0.00103261
     atom    5 type  2   force =     0.00079647    0.00079647   -0.00079647
     atom    6 type  2   force =     0.00079647   -0.00079647    0.00079647
     atom    7 type  2   force =    -0.00079647    0.00079647    0.00079647
     atom    8 type  2   force =    -0.00079647   -0.00079647   -0.00079647
     The Hubbard contrib.    to forces
     atom    1 type  1   force =     0.00000000    0.00000000    0.00000000
     atom    2 type  1   force =     0.00000000    0.00000000    0.00000000
     atom    3 type  1   force =     0.00000000    0.00000000    0.00000000
     atom    4 type  1   force =     0.00000000    0.00000000    0.00000000
     atom    5 type  2   force =     0.00000000    0.00000000    0.00000000
     atom    6 type  2   force =     0.00000000    0.00000000    0.00000000
     atom    7 type  2   force =     0.00000000    0.00000000    0.00000000
     atom    8 type  2   force =     0.00000000    0.00000000    0.00000000
     The SCF correction term to forces
     atom    1 type  1   force =     0.00009560    0.00009560   -0.00009560
     atom    2 type  1   force =     0.00009560   -0.00009560    0.00009560
     atom    3 type  1   force =    -0.00009560    0.00009560    0.00009560
     atom    4 type  1   force =    -0.00009560   -0.00009560   -0.00009560
     atom    5 type  2   force =    -0.00001048   -0.00001048    0.00001048
     atom    6 type  2   force =    -0.00001048    0.00001048   -0.00001048
     atom    7 type  2   force =     0.00001048   -0.00001048   -0.00001048
     atom    8 type  2   force =     0.00001048    0.00001048    0.00001048

     Total force =     0.017766     Total SCF correction =     0.000333


     Computing stress (Cartesian axis) and pressure

          total   stress  (Ry/bohr**3)                   (kbar)     P=      -41.40
  -0.00028140   0.00000000   0.00000000          -41.40        0.00        0.00
   0.00000000  -0.00028140   0.00000000            0.00      -41.40        0.00
   0.00000000   0.00000000  -0.00028140            0.00        0.00      -41.40

     kinetic stress (kbar)  35759.90      0.00      0.00
                                0.00  35759.90      0.00
                                0.00      0.00  35759.90

     local   stress (kbar) -10012.52     -0.00     -0.00
                               -0.00 -10012.52     -0.00
                               -0.00     -0.00 -10012.52

     nonloc. stress (kbar)   2427.82      0.00      0.00
                                0.00   2427.82      0.00
                                0.00      0.00   2427.82

     hartree stress (kbar)  15167.30     -0.00      0.00
                               -0.00  15167.30     -0.00
                                0.00     -0.00  15167.30

     exc-cor stress (kbar)  -1706.61     -0.00     -0.00
                               -0.00  -1706.61     -0.00
                               -0.00     -0.00  -1706.61

     corecor stress (kbar)  -5304.38      0.00      0.00
                                0.00  -5304.38     -0.00
                                0.00     -0.00  -5304.38

     ewald   stress (kbar) -36372.90      0.00      0.00
                                0.00 -36372.90      0.00
                                0.00      0.00 -36372.90

     hubbard stress (kbar)      0.00      0.00      0.00
                                0.00      0.00      0.00
                                0.00      0.00      0.00

     DFT-D   stress (kbar)      0.00      0.00      0.00
                                0.00      0.00      0.00
                                0.00      0.00      0.00

     XDM     stress (kbar)      0.00      0.00      0.00
                                0.00      0.00      0.00
                                0.00      0.00      0.00

     dft-nl  stress (kbar)      0.00      0.00      0.00
                                0.00      0.00      0.00
                                0.00      0.00      0.00

     TS-vdW  stress (kbar)      0.00      0.00      0.00
                                0.00      0.00      0.00
                                0.00      0.00      0.00



     Writing output data file /zfs_data/vergnior/martin/Scratch/OAL/CrSi/convergence/smearing/10x10x10/0.012/tmp/CrSi.save/
 
     init_run     :     12.34s CPU     12.76s WALL (       1 calls)
     electrons    :    384.54s CPU    392.31s WALL (       1 calls)
     forces       :     11.47s CPU     11.57s WALL (       1 calls)
     stress       :     28.91s CPU     29.18s WALL (       1 calls)

     Called by init_run:
     wfcinit      :     11.13s CPU     11.39s WALL (       1 calls)
     wfcinit:atom :      0.10s CPU      0.10s WALL (      76 calls)
     wfcinit:wfcr :     10.53s CPU     10.79s WALL (      76 calls)
     potinit      :      0.19s CPU      0.27s WALL (       1 calls)
     hinit0       :      0.18s CPU      0.19s WALL (       1 calls)

     Called by electrons:
     c_bands      :    318.77s CPU    324.30s WALL (       9 calls)
     sum_band     :     60.30s CPU     61.91s WALL (       9 calls)
     v_of_rho     :      0.24s CPU      0.25s WALL (       9 calls)
     v_h          :      0.02s CPU      0.02s WALL (       9 calls)
     v_xc         :      0.28s CPU      0.29s WALL (      11 calls)
     newd         :      4.42s CPU      5.01s WALL (       9 calls)
     PAW_pot      :      1.17s CPU      1.19s WALL (       9 calls)
     mix_rho      :      0.14s CPU      0.14s WALL (       9 calls)

     Called by c_bands:
     init_us_2    :      2.56s CPU      2.58s WALL (    1596 calls)
     cegterg      :    292.03s CPU    296.98s WALL (     684 calls)

     Called by sum_band:
     sum_band:wei :      0.10s CPU      0.10s WALL (       9 calls)
     sum_band:loo :     56.79s CPU     57.67s WALL (       9 calls)
     sum_band:buf :      0.57s CPU      0.64s WALL (     684 calls)
     sum_band:ini :      1.11s CPU      1.11s WALL (     684 calls)
     sum_band:cal :      3.88s CPU      3.90s WALL (     684 calls)
     sum_band:bec :      8.81s CPU      8.83s WALL (     684 calls)
     addusdens    :      3.28s CPU      3.99s WALL (       9 calls)
     addusd:skk   :      0.01s CPU      0.01s WALL (      18 calls)
     addusd:dgemm :      1.41s CPU      2.10s WALL (      18 calls)
     addusd:qvan2 :      1.83s CPU      1.84s WALL (      18 calls)

     Called by *egterg:
     cdiaghg      :     27.85s CPU     27.97s WALL (    3774 calls)
     cegterg:over :     15.33s CPU     15.41s WALL (    3166 calls)
     cegterg:upda :      7.62s CPU      7.70s WALL (    3166 calls)
     cegterg:last :     15.35s CPU     15.41s WALL (    2015 calls)
     h_psi        :    201.58s CPU    206.13s WALL (    3926 calls)
     s_psi        :     27.70s CPU     27.81s WALL (    3926 calls)
     g_psi        :      0.45s CPU      0.46s WALL (    3166 calls)

     Called by h_psi:
     h_psi:calbec :     14.07s CPU     14.18s WALL (    3926 calls)
     vloc_psi     :    160.24s CPU    164.40s WALL (    3926 calls)
     add_vuspsi   :     26.05s CPU     26.22s WALL (    3926 calls)

     General routines
     calbec       :     19.87s CPU     20.01s WALL (    4990 calls)
     fft          :      0.24s CPU      0.25s WALL (     216 calls)
     ffts         :      0.03s CPU      0.09s WALL (      72 calls)
     fftw         :    141.20s CPU    144.89s WALL (  945116 calls)
     interpolate  :      0.06s CPU      0.12s WALL (      36 calls)
 
     Parallel routines
     fft_scatt_xy :     14.00s CPU     14.30s WALL (  945404 calls)
     fft_scatt_yz :     51.10s CPU     52.40s WALL (  945404 calls)

     PAW routines
     PAW_pot      :      1.17s CPU      1.19s WALL (       9 calls)
     PAW_symme    :      0.02s CPU      0.02s WALL (      18 calls)
 
     PWSCF        :   7m21.30s CPU   7m32.88s WALL

 
   This run was terminated on:  12:40:25   1Aug2021            

=------------------------------------------------------------------------------=
   JOB DONE.
=------------------------------------------------------------------------------=
