
     Program PWSCF v.6.7MaX starts on 18May2022 at 15:54: 5 

     This program is part of the open-source Quantum ESPRESSO suite
     for quantum simulation of materials; please cite
         "P. Giannozzi et al., J. Phys.:Condens. Matter 21 395502 (2009);
         "P. Giannozzi et al., J. Phys.:Condens. Matter 29 465901 (2017);
          URL http://www.quantum-espresso.org", 
     in publications or presentations arising from this work. More details at
     http://www.quantum-espresso.org/quote

     Parallel version (MPI), running on    48 processors

     MPI processes distributed on     1 nodes
     R & G space division:  proc/nbgrp/npool/nimage =      48
     Waiting for input...
     Reading input from standard input

     Current dimensions of program PWSCF are:
     Max number of different atomic species (ntypx) = 10
     Max number of k-points (npk) =  40000
     Max angular momentum in pseudopotentials (lmaxx) =  3
     file O.pbe-nl-kjpaw_psl.1.0.0.UPF: wavefunction(s)  2S 2P renormalized
     file Cl.pbe-nl-kjpaw_psl.1.0.0.UPF: wavefunction(s)  3S renormalized
     file Nb.pbe-spn-kjpaw_psl.1.0.0.UPF: wavefunction(s)  4S 4P 4D renormalized

     Subspace diagonalization in iterative solution of the eigenvalue problem:
     a serial algorithm will be used

     Message from routine setup:
     using ibrav=0 with symmetry is DISCOURAGED, use correct ibrav instead
 
     Parallelization info
     --------------------
     sticks:   dense  smooth     PW     G-vecs:    dense   smooth      PW
     Min         150      60     19                 4360     1102     208
     Max         151      61     20                 4363     1104     211
     Sum        7247    2901    949               209365    52925   10049
 


     bravais-lattice index     =            0
     lattice parameter (alat)  =      12.6717  a.u.
     unit-cell volume          =     547.9313 (a.u.)^3
     number of atoms/cell      =            4
     number of atomic types    =            3
     number of electrons       =        33.00
     number of Kohn-Sham states=           21
     kinetic-energy cutoff     =      80.0000  Ry
     charge density cutoff     =     800.0000  Ry
     scf convergence threshold =      1.0E-10
     mixing beta               =       0.7000
     number of iterations used =            8  plain     mixing
     Exchange-correlation= SLA  PW   PBX  PBC
                           (   1   4   3   4   0   0   0)

     celldm(1)=  12.671676  celldm(2)=   0.000000  celldm(3)=   0.000000
     celldm(4)=   0.000000  celldm(5)=   0.000000  celldm(6)=   0.000000

     crystal axes: (cart. coord. in units of alat)
               a(1) = (  -0.250426   0.291161   0.923316 )  
               a(2) = (   0.250426  -0.291161   0.923316 )  
               a(3) = (   0.250426   0.291161  -0.923316 )  

     reciprocal axes: (cart. coord. in units 2 pi/alat)
               b(1) = (  0.000000  1.717261  0.541527 )  
               b(2) = (  1.996594  0.000000  0.541527 )  
               b(3) = (  1.996594  1.717261  0.000000 )  


     PseudoPot. # 1 for O  read from file:
     /zfs_data/gutierre/Scratch/Cl2NbO/convergence/cutoff/8x8x8/80/pseudo/O.pbe-nl-kjpaw_psl.1.0.0.UPF
     MD5 check sum: df3ddea38124b4e5de5e1084591730e4
     Pseudo is Projector augmented-wave + core cor, Zval =  6.0
     Generated using 'atomic' code by A. Dal Corso  v.6.7MaX
     Shape of augmentation charge: PSQ
     Using radial grid of 1095 points,  4 beta functions with: 
                l(1) =   0
                l(2) =   0
                l(3) =   1
                l(4) =   1
     Q(r) pseudized with 0 coefficients 


     PseudoPot. # 2 for Cl read from file:
     /zfs_data/gutierre/Scratch/Cl2NbO/convergence/cutoff/8x8x8/80/pseudo/Cl.pbe-nl-kjpaw_psl.1.0.0.UPF
     MD5 check sum: 8cf6bde52c08f6236e0f72a8870677af
     Pseudo is Projector augmented-wave + core cor, Zval =  7.0
     Generated using 'atomic' code by A. Dal Corso  v.6.7MaX
     Shape of augmentation charge: PSQ
     Using radial grid of 1157 points,  4 beta functions with: 
                l(1) =   0
                l(2) =   0
                l(3) =   1
                l(4) =   1
     Q(r) pseudized with 0 coefficients 


     PseudoPot. # 3 for Nb read from file:
     /zfs_data/gutierre/Scratch/Cl2NbO/convergence/cutoff/8x8x8/80/pseudo/Nb.pbe-spn-kjpaw_psl.1.0.0.UPF
     MD5 check sum: 1ec1a3aa7bf3cbf7f7e0d720422bce7a
     Pseudo is Projector augmented-wave + core cor, Zval = 13.0
     Generated using 'atomic' code by A. Dal Corso  v.6.7MaX
     Shape of augmentation charge: PSQ
     Using radial grid of 1227 points,  6 beta functions with: 
                l(1) =   0
                l(2) =   0
                l(3) =   1
                l(4) =   1
                l(5) =   2
                l(6) =   2
     Q(r) pseudized with 0 coefficients 


     atomic species   valence    mass     pseudopotential
        O              6.00    15.99940     O ( 1.00)
        Cl             7.00    35.45150     Cl( 1.00)
        Nb            13.00    92.90637     Nb( 1.00)

      8 Sym. Ops., with inversion, found


                                    s                        frac. trans.

      isym =  1     identity                                     

 cryst.   s( 1) = (     1          0          0      )
                  (     0          1          0      )
                  (     0          0          1      )

 cart.    s( 1) = (  1.0000000  0.0000000  0.0000000 )
                  (  0.0000000  1.0000000  0.0000000 )
                  (  0.0000000  0.0000000  1.0000000 )


      isym =  2     180 deg rotation - cart. axis [0,0,1]        

 cryst.   s( 2) = (     0          1          0      )
                  (     1          0          0      )
                  (    -1         -1         -1      )

 cart.    s( 2) = ( -1.0000000  0.0000000  0.0000000 )
                  (  0.0000000 -1.0000000  0.0000000 )
                  (  0.0000000  0.0000000  1.0000000 )


      isym =  3     180 deg rotation - cart. axis [0,1,0]        

 cryst.   s( 3) = (     0          0          1      )
                  (    -1         -1         -1      )
                  (     1          0          0      )

 cart.    s( 3) = ( -1.0000000  0.0000000  0.0000000 )
                  (  0.0000000  1.0000000  0.0000000 )
                  (  0.0000000  0.0000000 -1.0000000 )


      isym =  4     180 deg rotation - cart. axis [1,0,0]        

 cryst.   s( 4) = (    -1         -1         -1      )
                  (     0          0          1      )
                  (     0          1          0      )

 cart.    s( 4) = (  1.0000000  0.0000000  0.0000000 )
                  (  0.0000000 -1.0000000  0.0000000 )
                  (  0.0000000  0.0000000 -1.0000000 )


      isym =  5     inversion                                    

 cryst.   s( 5) = (    -1          0          0      )
                  (     0         -1          0      )
                  (     0          0         -1      )

 cart.    s( 5) = ( -1.0000000  0.0000000  0.0000000 )
                  (  0.0000000 -1.0000000  0.0000000 )
                  (  0.0000000  0.0000000 -1.0000000 )


      isym =  6     inv. 180 deg rotation - cart. axis [0,0,1]   

 cryst.   s( 6) = (     0         -1          0      )
                  (    -1          0          0      )
                  (     1          1          1      )

 cart.    s( 6) = (  1.0000000  0.0000000  0.0000000 )
                  (  0.0000000  1.0000000  0.0000000 )
                  (  0.0000000  0.0000000 -1.0000000 )


      isym =  7     inv. 180 deg rotation - cart. axis [0,1,0]   

 cryst.   s( 7) = (     0          0         -1      )
                  (     1          1          1      )
                  (    -1          0          0      )

 cart.    s( 7) = (  1.0000000  0.0000000  0.0000000 )
                  (  0.0000000 -1.0000000  0.0000000 )
                  (  0.0000000  0.0000000  1.0000000 )


      isym =  8     inv. 180 deg rotation - cart. axis [1,0,0]   

 cryst.   s( 8) = (     1          1          1      )
                  (     0          0         -1      )
                  (     0         -1          0      )

 cart.    s( 8) = ( -1.0000000  0.0000000  0.0000000 )
                  (  0.0000000  1.0000000  0.0000000 )
                  (  0.0000000  0.0000000  1.0000000 )


   Cartesian axes

     site n.     atom                  positions (alat units)
         1           O   tau(   1) = (   0.0000000   0.2911613   0.0000000  )
         2           Cl  tau(   2) = (  -0.0000000   0.2911613   0.6365338  )
         3           Cl  tau(   3) = (   0.2504264  -0.0000000   0.2867819  )
         4           Nb  tau(   4) = (   0.0000000   0.0000000   0.0000000  )

   Crystallographic axes

     site n.     atom                  positions (cryst. coord.)
         1           O   tau(   1) = (  0.5000000  0.0000000  0.5000000  )
         2           Cl  tau(   2) = (  0.8447000  0.3447000  0.5000000  )
         3           Cl  tau(   3) = (  0.1553000  0.6553000  0.5000000  )
         4           Nb  tau(   4) = (  0.0000000  0.0000000  0.0000000  )

     number of k points=    95  Methfessel-Paxton smearing, width (Ry)=  0.0120
                       cart. coord. in units 2pi/alat
        k(    1) = (   0.0000000   0.0000000   0.0000000), wk =   0.0039062
        k(    2) = (   0.2495743   0.2146577   0.0000000), wk =   0.0156250
        k(    3) = (   0.4991486   0.4293153   0.0000000), wk =   0.0156250
        k(    4) = (   0.7487229   0.6439730   0.0000000), wk =   0.0156250
        k(    5) = (  -0.9982971  -0.8586307   0.0000000), wk =   0.0078125
        k(    6) = (   0.2495743   0.0000000   0.0676908), wk =   0.0156250
        k(    7) = (   0.4991486   0.2146577   0.0676908), wk =   0.0312500
        k(    8) = (   0.7487229   0.4293153   0.0676908), wk =   0.0312500
        k(    9) = (   0.9982971   0.6439730   0.0676908), wk =   0.0312500
        k(   10) = (  -0.7487229  -0.8586307   0.0676908), wk =   0.0312500
        k(   11) = (  -0.4991486  -0.6439730   0.0676908), wk =   0.0312500
        k(   12) = (  -0.2495743  -0.4293153   0.0676908), wk =   0.0312500
        k(   13) = (   0.0000000  -0.2146577   0.0676908), wk =   0.0156250
        k(   14) = (   0.4991486   0.0000000   0.1353817), wk =   0.0156250
        k(   15) = (   0.7487229   0.2146577   0.1353817), wk =   0.0312500
        k(   16) = (   0.9982971   0.4293153   0.1353817), wk =   0.0312500
        k(   17) = (   1.2478714   0.6439730   0.1353817), wk =   0.0312500
        k(   18) = (  -0.4991486  -0.8586307   0.1353817), wk =   0.0312500
        k(   19) = (  -0.2495743  -0.6439730   0.1353817), wk =   0.0312500
        k(   20) = (   0.0000000  -0.4293153   0.1353817), wk =   0.0156250
        k(   21) = (   0.2495743  -0.2146577   0.1353817), wk =   0.0312500
        k(   22) = (   0.7487229   0.0000000   0.2030725), wk =   0.0156250
        k(   23) = (   0.9982971   0.2146577   0.2030725), wk =   0.0312500
        k(   24) = (   1.2478714   0.4293153   0.2030725), wk =   0.0312500
        k(   25) = (   1.4974457   0.6439730   0.2030725), wk =   0.0312500
        k(   26) = (  -0.2495743  -0.8586307   0.2030725), wk =   0.0312500
        k(   27) = (   0.0000000  -0.6439730   0.2030725), wk =   0.0156250
        k(   28) = (   0.2495743  -0.4293153   0.2030725), wk =   0.0312500
        k(   29) = (   0.4991486  -0.2146577   0.2030725), wk =   0.0312500
        k(   30) = (  -0.9982971   0.0000000  -0.2707633), wk =   0.0078125
        k(   31) = (  -0.7487229   0.2146577  -0.2707633), wk =   0.0312500
        k(   32) = (  -0.4991486   0.4293153  -0.2707633), wk =   0.0312500
        k(   33) = (  -0.2495743   0.6439730  -0.2707633), wk =   0.0312500
        k(   34) = (  -1.9965943  -0.8586307  -0.2707633), wk =   0.0078125
        k(   35) = (   0.4991486   0.4293153   0.1353817), wk =   0.0312500
        k(   36) = (   0.7487229   0.6439730   0.1353817), wk =   0.0312500
        k(   37) = (   0.9982971   0.8586307   0.1353817), wk =   0.0156250
        k(   38) = (   0.0000000   0.0000000   0.1353817), wk =   0.0078125
        k(   39) = (   0.7487229   0.4293153   0.2030725), wk =   0.0312500
        k(   40) = (   0.9982971   0.6439730   0.2030725), wk =   0.0312500
        k(   41) = (   1.2478714   0.8586307   0.2030725), wk =   0.0312500
        k(   42) = (  -0.4991486  -0.6439730   0.2030725), wk =   0.0312500
        k(   43) = (   0.0000000  -0.2146577   0.2030725), wk =   0.0156250
        k(   44) = (   0.2495743   0.0000000   0.2030725), wk =   0.0156250
        k(   45) = (   0.9982971   0.4293153   0.2707633), wk =   0.0156250
        k(   46) = (   1.2478714   0.6439730   0.2707633), wk =   0.0312500
        k(   47) = (   1.4974457   0.8586307   0.2707633), wk =   0.0156250
        k(   48) = (   0.0000000  -0.4293153   0.2707633), wk =   0.0156250
        k(   49) = (   0.2495743  -0.2146577   0.2707633), wk =   0.0312500
        k(   50) = (   0.4991486   0.0000000   0.2707633), wk =   0.0156250
        k(   51) = (  -1.9965943  -0.6439730  -0.2030725), wk =   0.0156250
        k(   52) = (  -1.7470200  -0.4293153  -0.2030725), wk =   0.0312500
        k(   53) = (  -1.4974457  -0.2146577  -0.2030725), wk =   0.0312500
        k(   54) = (  -1.2478714   0.0000000  -0.2030725), wk =   0.0156250
        k(   55) = (   0.0000000   0.8586307  -0.1353817), wk =   0.0156250
        k(   56) = (  -1.7470200  -0.6439730  -0.1353817), wk =   0.0312500
        k(   57) = (  -1.4974457  -0.4293153  -0.1353817), wk =   0.0312500
        k(   58) = (  -1.2478714  -0.2146577  -0.1353817), wk =   0.0312500
        k(   59) = (  -0.9982971   0.0000000  -0.1353817), wk =   0.0156250
        k(   60) = (   0.0000000   0.6439730  -0.0676908), wk =   0.0156250
        k(   61) = (   0.2495743   0.8586307  -0.0676908), wk =   0.0312500
        k(   62) = (  -1.4974457  -0.6439730  -0.0676908), wk =   0.0312500
        k(   63) = (  -1.2478714  -0.4293153  -0.0676908), wk =   0.0312500
        k(   64) = (  -0.9982971  -0.2146577  -0.0676908), wk =   0.0312500
        k(   65) = (  -0.7487229   0.0000000  -0.0676908), wk =   0.0156250
        k(   66) = (   0.0000000   0.4293153   0.0000000), wk =   0.0078125
        k(   67) = (   0.2495743   0.6439730   0.0000000), wk =   0.0156250
        k(   68) = (   0.4991486   0.8586307   0.0000000), wk =   0.0156250
        k(   69) = (  -1.2478714  -0.6439730   0.0000000), wk =   0.0156250
        k(   70) = (  -0.9982971  -0.4293153   0.0000000), wk =   0.0156250
        k(   71) = (  -0.7487229  -0.2146577   0.0000000), wk =   0.0156250
        k(   72) = (  -0.4991486   0.0000000   0.0000000), wk =   0.0078125
        k(   73) = (   0.9982971   0.8586307   0.2707633), wk =   0.0078125
        k(   74) = (   0.0000000   0.0000000   0.2707633), wk =   0.0078125
        k(   75) = (   0.0000000  -0.2146577   0.3384542), wk =   0.0156250
        k(   76) = (   0.2495743   0.0000000   0.3384542), wk =   0.0156250
        k(   77) = (  -1.9965943  -0.4293153  -0.1353817), wk =   0.0156250
        k(   78) = (  -1.7470200  -0.2146577  -0.1353817), wk =   0.0312500
        k(   79) = (  -1.4974457   0.0000000  -0.1353817), wk =   0.0156250
        k(   80) = (   0.0000000   1.0732883  -0.0676908), wk =   0.0156250
        k(   81) = (  -1.7470200  -0.4293153  -0.0676908), wk =   0.0312500
        k(   82) = (  -1.4974457  -0.2146577  -0.0676908), wk =   0.0312500
        k(   83) = (  -1.2478714   0.0000000  -0.0676908), wk =   0.0156250
        k(   84) = (   0.0000000   0.8586307   0.0000000), wk =   0.0078125
        k(   85) = (   0.2495743   1.0732883   0.0000000), wk =   0.0156250
        k(   86) = (  -1.4974457  -0.4293153   0.0000000), wk =   0.0156250
        k(   87) = (  -1.2478714  -0.2146577   0.0000000), wk =   0.0156250
        k(   88) = (  -0.9982971   0.0000000   0.0000000), wk =   0.0078125
        k(   89) = (   0.0000000   0.0000000   0.4061450), wk =   0.0078125
        k(   90) = (  -1.9965943  -0.2146577  -0.0676908), wk =   0.0156250
        k(   91) = (  -1.7470200   0.0000000  -0.0676908), wk =   0.0156250
        k(   92) = (   0.0000000   1.2879460   0.0000000), wk =   0.0078125
        k(   93) = (  -1.7470200  -0.2146577   0.0000000), wk =   0.0156250
        k(   94) = (  -1.4974457   0.0000000   0.0000000), wk =   0.0078125
        k(   95) = (  -1.9965943  -1.7172613  -0.5415266), wk =   0.0039062

                       cryst. coord.
        k(    1) = (   0.0000000   0.0000000   0.0000000), wk =   0.0039062
        k(    2) = (   0.0000000   0.0000000   0.1250000), wk =   0.0156250
        k(    3) = (   0.0000000   0.0000000   0.2500000), wk =   0.0156250
        k(    4) = (  -0.0000000   0.0000000   0.3750000), wk =   0.0156250
        k(    5) = (   0.0000000   0.0000000  -0.5000000), wk =   0.0078125
        k(    6) = (   0.0000000   0.1250000   0.0000000), wk =   0.0156250
        k(    7) = (   0.0000000   0.1250000   0.1250000), wk =   0.0312500
        k(    8) = (   0.0000000   0.1250000   0.2500000), wk =   0.0312500
        k(    9) = (  -0.0000000   0.1250000   0.3750000), wk =   0.0312500
        k(   10) = (   0.0000000   0.1250000  -0.5000000), wk =   0.0312500
        k(   11) = (   0.0000000   0.1250000  -0.3750000), wk =   0.0312500
        k(   12) = (   0.0000000   0.1250000  -0.2500000), wk =   0.0312500
        k(   13) = (   0.0000000   0.1250000  -0.1250000), wk =   0.0156250
        k(   14) = (   0.0000000   0.2500000   0.0000000), wk =   0.0156250
        k(   15) = (   0.0000000   0.2500000   0.1250000), wk =   0.0312500
        k(   16) = (   0.0000000   0.2500000   0.2500000), wk =   0.0312500
        k(   17) = (  -0.0000000   0.2500000   0.3750000), wk =   0.0312500
        k(   18) = (   0.0000000   0.2500000  -0.5000000), wk =   0.0312500
        k(   19) = (   0.0000000   0.2500000  -0.3750000), wk =   0.0312500
        k(   20) = (   0.0000000   0.2500000  -0.2500000), wk =   0.0156250
        k(   21) = (   0.0000000   0.2500000  -0.1250000), wk =   0.0312500
        k(   22) = (   0.0000000   0.3750000   0.0000000), wk =   0.0156250
        k(   23) = (   0.0000000   0.3750000   0.1250000), wk =   0.0312500
        k(   24) = (  -0.0000000   0.3750000   0.2500000), wk =   0.0312500
        k(   25) = (  -0.0000000   0.3750000   0.3750000), wk =   0.0312500
        k(   26) = (   0.0000000   0.3750000  -0.5000000), wk =   0.0312500
        k(   27) = (   0.0000000   0.3750000  -0.3750000), wk =   0.0156250
        k(   28) = (   0.0000000   0.3750000  -0.2500000), wk =   0.0312500
        k(   29) = (   0.0000000   0.3750000  -0.1250000), wk =   0.0312500
        k(   30) = (   0.0000000  -0.5000000   0.0000000), wk =   0.0078125
        k(   31) = (   0.0000000  -0.5000000   0.1250000), wk =   0.0312500
        k(   32) = (   0.0000000  -0.5000000   0.2500000), wk =   0.0312500
        k(   33) = (   0.0000000  -0.5000000   0.3750000), wk =   0.0312500
        k(   34) = (   0.0000000  -0.5000000  -0.5000000), wk =   0.0078125
        k(   35) = (   0.1250000   0.1250000   0.1250000), wk =   0.0312500
        k(   36) = (   0.1250000   0.1250000   0.2500000), wk =   0.0312500
        k(   37) = (   0.1250000   0.1250000   0.3750000), wk =   0.0156250
        k(   38) = (   0.1250000   0.1250000  -0.1250000), wk =   0.0078125
        k(   39) = (   0.1250000   0.2500000   0.1250000), wk =   0.0312500
        k(   40) = (   0.1250000   0.2500000   0.2500000), wk =   0.0312500
        k(   41) = (   0.1250000   0.2500000   0.3750000), wk =   0.0312500
        k(   42) = (   0.1250000   0.2500000  -0.5000000), wk =   0.0312500
        k(   43) = (   0.1250000   0.2500000  -0.2500000), wk =   0.0156250
        k(   44) = (   0.1250000   0.2500000  -0.1250000), wk =   0.0156250
        k(   45) = (   0.1250000   0.3750000   0.1250000), wk =   0.0156250
        k(   46) = (   0.1250000   0.3750000   0.2500000), wk =   0.0312500
        k(   47) = (   0.1250000   0.3750000   0.3750000), wk =   0.0156250
        k(   48) = (   0.1250000   0.3750000  -0.3750000), wk =   0.0156250
        k(   49) = (   0.1250000   0.3750000  -0.2500000), wk =   0.0312500
        k(   50) = (   0.1250000   0.3750000  -0.1250000), wk =   0.0156250
        k(   51) = (   0.1250000  -0.5000000  -0.5000000), wk =   0.0156250
        k(   52) = (   0.1250000  -0.5000000  -0.3750000), wk =   0.0312500
        k(   53) = (   0.1250000  -0.5000000  -0.2500000), wk =   0.0312500
        k(   54) = (   0.1250000  -0.5000000  -0.1250000), wk =   0.0156250
        k(   55) = (   0.1250000  -0.3750000   0.3750000), wk =   0.0156250
        k(   56) = (   0.1250000  -0.3750000  -0.5000000), wk =   0.0312500
        k(   57) = (   0.1250000  -0.3750000  -0.3750000), wk =   0.0312500
        k(   58) = (   0.1250000  -0.3750000  -0.2500000), wk =   0.0312500
        k(   59) = (   0.1250000  -0.3750000  -0.1250000), wk =   0.0156250
        k(   60) = (   0.1250000  -0.2500000   0.2500000), wk =   0.0156250
        k(   61) = (   0.1250000  -0.2500000   0.3750000), wk =   0.0312500
        k(   62) = (   0.1250000  -0.2500000  -0.5000000), wk =   0.0312500
        k(   63) = (   0.1250000  -0.2500000  -0.3750000), wk =   0.0312500
        k(   64) = (   0.1250000  -0.2500000  -0.2500000), wk =   0.0312500
        k(   65) = (   0.1250000  -0.2500000  -0.1250000), wk =   0.0156250
        k(   66) = (   0.1250000  -0.1250000   0.1250000), wk =   0.0078125
        k(   67) = (   0.1250000  -0.1250000   0.2500000), wk =   0.0156250
        k(   68) = (   0.1250000  -0.1250000   0.3750000), wk =   0.0156250
        k(   69) = (   0.1250000  -0.1250000  -0.5000000), wk =   0.0156250
        k(   70) = (   0.1250000  -0.1250000  -0.3750000), wk =   0.0156250
        k(   71) = (   0.1250000  -0.1250000  -0.2500000), wk =   0.0156250
        k(   72) = (   0.1250000  -0.1250000  -0.1250000), wk =   0.0078125
        k(   73) = (   0.2500000   0.2500000   0.2500000), wk =   0.0078125
        k(   74) = (   0.2500000   0.2500000  -0.2500000), wk =   0.0078125
        k(   75) = (   0.2500000   0.3750000  -0.3750000), wk =   0.0156250
        k(   76) = (   0.2500000   0.3750000  -0.2500000), wk =   0.0156250
        k(   77) = (   0.2500000  -0.5000000  -0.5000000), wk =   0.0156250
        k(   78) = (   0.2500000  -0.5000000  -0.3750000), wk =   0.0312500
        k(   79) = (   0.2500000  -0.5000000  -0.2500000), wk =   0.0156250
        k(   80) = (   0.2500000  -0.3750000   0.3750000), wk =   0.0156250
        k(   81) = (   0.2500000  -0.3750000  -0.5000000), wk =   0.0312500
        k(   82) = (   0.2500000  -0.3750000  -0.3750000), wk =   0.0312500
        k(   83) = (   0.2500000  -0.3750000  -0.2500000), wk =   0.0156250
        k(   84) = (   0.2500000  -0.2500000   0.2500000), wk =   0.0078125
        k(   85) = (   0.2500000  -0.2500000   0.3750000), wk =   0.0156250
        k(   86) = (   0.2500000  -0.2500000  -0.5000000), wk =   0.0156250
        k(   87) = (   0.2500000  -0.2500000  -0.3750000), wk =   0.0156250
        k(   88) = (   0.2500000  -0.2500000  -0.2500000), wk =   0.0078125
        k(   89) = (   0.3750000   0.3750000  -0.3750000), wk =   0.0078125
        k(   90) = (   0.3750000  -0.5000000  -0.5000000), wk =   0.0156250
        k(   91) = (   0.3750000  -0.5000000  -0.3750000), wk =   0.0156250
        k(   92) = (   0.3750000  -0.3750000   0.3750000), wk =   0.0078125
        k(   93) = (   0.3750000  -0.3750000  -0.5000000), wk =   0.0156250
        k(   94) = (   0.3750000  -0.3750000  -0.3750000), wk =   0.0078125
        k(   95) = (  -0.5000000  -0.5000000  -0.5000000), wk =   0.0039062

     Dense  grid:   209365 G-vectors     FFT dimensions: ( 120, 120, 120)

     Smooth grid:    52925 G-vectors     FFT dimensions: (  75,  75,  75)

     Dynamical RAM for                 wfc:       0.04 MB

     Dynamical RAM for     wfc (w. buffer):       4.21 MB

     Dynamical RAM for           str. fact:       0.20 MB

     Dynamical RAM for           local pot:       0.00 MB

     Dynamical RAM for          nlocal pot:       0.09 MB

     Dynamical RAM for                qrad:       6.81 MB

     Dynamical RAM for          rho,v,vnew:       1.19 MB

     Dynamical RAM for               rhoin:       0.40 MB

     Dynamical RAM for            rho*nmix:       1.07 MB

     Dynamical RAM for           G-vectors:       0.26 MB

     Dynamical RAM for          h,s,v(r/c):       0.08 MB

     Dynamical RAM for          <psi|beta>:       0.01 MB

     Dynamical RAM for                 psi:       0.09 MB

     Dynamical RAM for                hpsi:       0.09 MB

     Dynamical RAM for                spsi:       0.09 MB

     Dynamical RAM for      wfcinit/wfcrot:       0.12 MB

     Dynamical RAM for           addusdens:      12.52 MB

     Dynamical RAM for          addusforce:      12.69 MB

     Dynamical RAM for         addusstress:      13.38 MB

     Estimated static dynamical RAM per process >      16.13 MB

     Estimated max dynamical RAM per process >      29.51 MB

     Estimated total dynamical RAM >       1.38 GB

     Initial potential from superposition of free atoms

     starting charge   32.99867, renormalised to   33.00000
     Starting wfcs are   25 randomized atomic wfcs
     Checking if some PAW data can be deallocated... 
       PAW data deallocated on   36 nodes for type:  1
       PAW data deallocated on   24 nodes for type:  2
       PAW data deallocated on   36 nodes for type:  3

     total cpu time spent up to now is        2.8 secs

     Self-consistent Calculation

     iteration #  1     ecut=    80.00 Ry     beta= 0.70
     Davidson diagonalization with overlap
     ethr =  1.00E-02,  avg # of iterations =  2.2

     total cpu time spent up to now is        7.2 secs

     total energy              =    -534.52314556 Ry
     estimated scf accuracy    <       0.76466433 Ry

     iteration #  2     ecut=    80.00 Ry     beta= 0.70
     Davidson diagonalization with overlap
     ethr =  2.32E-03,  avg # of iterations =  3.6

     total cpu time spent up to now is       12.3 secs

     total energy              =    -533.64447723 Ry
     estimated scf accuracy    <       8.30966078 Ry

     iteration #  3     ecut=    80.00 Ry     beta= 0.70
     Davidson diagonalization with overlap
     ethr =  2.32E-03,  avg # of iterations =  3.5

     total cpu time spent up to now is       17.0 secs

     total energy              =    -534.97251020 Ry
     estimated scf accuracy    <       0.12323022 Ry

     iteration #  4     ecut=    80.00 Ry     beta= 0.70
     Davidson diagonalization with overlap
     ethr =  3.73E-04,  avg # of iterations =  1.3

     total cpu time spent up to now is       20.9 secs

     total energy              =    -534.96667543 Ry
     estimated scf accuracy    <       0.05853358 Ry

     iteration #  5     ecut=    80.00 Ry     beta= 0.70
     Davidson diagonalization with overlap
     ethr =  1.77E-04,  avg # of iterations =  1.5

     total cpu time spent up to now is       24.9 secs

     total energy              =    -534.96249914 Ry
     estimated scf accuracy    <       0.02400552 Ry

     iteration #  6     ecut=    80.00 Ry     beta= 0.70
     Davidson diagonalization with overlap
     ethr =  7.27E-05,  avg # of iterations =  2.0

     total cpu time spent up to now is       28.9 secs

     total energy              =    -534.96522238 Ry
     estimated scf accuracy    <       0.00058982 Ry

     iteration #  7     ecut=    80.00 Ry     beta= 0.70
     Davidson diagonalization with overlap
     ethr =  1.79E-06,  avg # of iterations =  3.6

     total cpu time spent up to now is       34.0 secs

     total energy              =    -534.96541496 Ry
     estimated scf accuracy    <       0.00016830 Ry

     iteration #  8     ecut=    80.00 Ry     beta= 0.70
     Davidson diagonalization with overlap
     ethr =  5.10E-07,  avg # of iterations =  1.4

     total cpu time spent up to now is       37.9 secs

     total energy              =    -534.96541622 Ry
     estimated scf accuracy    <       0.00002779 Ry

     iteration #  9     ecut=    80.00 Ry     beta= 0.70
     Davidson diagonalization with overlap
     ethr =  8.42E-08,  avg # of iterations =  2.4

     total cpu time spent up to now is       42.3 secs

     total energy              =    -534.96542271 Ry
     estimated scf accuracy    <       0.00000055 Ry

     iteration # 10     ecut=    80.00 Ry     beta= 0.70
     Davidson diagonalization with overlap
     ethr =  1.67E-09,  avg # of iterations =  3.9

     total cpu time spent up to now is       47.6 secs

     total energy              =    -534.96542298 Ry
     estimated scf accuracy    <          8.9E-09 Ry

     iteration # 11     ecut=    80.00 Ry     beta= 0.70
     Davidson diagonalization with overlap
     ethr =  2.71E-11,  avg # of iterations =  4.4

     total cpu time spent up to now is       53.6 secs

     total energy              =    -534.96542298 Ry
     estimated scf accuracy    <       0.00000002 Ry

     iteration # 12     ecut=    80.00 Ry     beta= 0.70
     Davidson diagonalization with overlap
     ethr =  2.71E-11,  avg # of iterations =  2.1

     total cpu time spent up to now is       57.8 secs

     End of self-consistent calculation

          k = 0.0000 0.0000 0.0000 (  6623 PWs)   bands (ev):

   -49.8376 -26.0574 -25.7922 -25.7147 -12.3812  -9.5181  -8.8287   0.6167
     2.4659   2.7369   2.8734   3.0041   3.4591   3.9426   4.2016   4.2831
     5.5057   7.2155   7.3556   8.6481   9.3882

     occupation numbers 
     1.0000   1.0000   1.0000   1.0000   1.0000   1.0000   1.0000   1.0000
     1.0000   1.0000   1.0000   1.0000   1.0000   1.0000   1.0000   1.0000
     1.0000  -0.0015  -0.0000  -0.0000  -0.0000

          k = 0.2496 0.2147 0.0000 (  6606 PWs)   bands (ev):

   -49.8350 -26.0824 -25.7856 -25.7458 -12.1860  -9.4094  -8.8364   0.8283
     2.1218   2.2558   2.4435   2.9941   3.2924   3.5033   3.8833   4.0352
     5.9395   7.5252   7.6004   8.7523  10.0915

     occupation numbers 
     1.0000   1.0000   1.0000   1.0000   1.0000   1.0000   1.0000   1.0000
     1.0000   1.0000   1.0000   1.0000   1.0000   1.0000   1.0000   1.0000
     1.0000  -0.0000  -0.0000  -0.0000  -0.0000

          k = 0.4991 0.4293 0.0000 (  6619 PWs)   bands (ev):

   -49.8286 -26.1412 -25.8197 -25.7696 -11.6871  -9.1320  -8.8585   1.1101
     1.4013   1.7329   1.8972   2.0069   2.1867   2.9231   3.8456   4.0134
     6.8104   8.1637   8.2741   9.1611  11.1513

     occupation numbers 
     1.0000   1.0000   1.0000   1.0000   1.0000   1.0000   1.0000   1.0000
     1.0000   1.0000   1.0000   1.0000   1.0000   1.0000   1.0000   1.0000
     0.5325  -0.0000  -0.0000  -0.0000  -0.0000

          k = 0.7487 0.6440 0.0000 (  6635 PWs)   bands (ev):

   -49.8223 -26.1976 -25.8922 -25.7537 -11.1375  -8.8857  -8.8275  -0.0717
     0.9780   1.2642   1.6649   1.7789   2.1864   2.3104   3.5231   3.9756
     7.8677   8.8519   9.0595   9.5772  11.3843

     occupation numbers 
     1.0000   1.0000   1.0000   1.0000   1.0000   1.0000   1.0000   1.0000
     1.0000   1.0000   1.0000   1.0000   1.0000   1.0000   1.0000   1.0000
    -0.0000  -0.0000  -0.0000  -0.0000  -0.0000

          k =-0.9983-0.8586 0.0000 (  6616 PWs)   bands (ev):

   -49.8197 -26.2203 -25.9218 -25.7472 -10.8902  -8.8984  -8.6909  -0.5605
     0.6052   0.9557   1.7502   1.8300   1.9832   2.5727   3.2692   3.8800
     8.4670   9.1828   9.3749   9.7683  11.4095

     occupation numbers 
     1.0000   1.0000   1.0000   1.0000   1.0000   1.0000   1.0000   1.0000
     1.0000   1.0000   1.0000   1.0000   1.0000   1.0000   1.0000   1.0000
    -0.0000  -0.0000  -0.0000  -0.0000  -0.0000

          k = 0.2496 0.0000 0.0677 (  6617 PWs)   bands (ev):

   -49.8355 -26.0549 -25.7866 -25.7467 -12.3639  -9.4288  -8.8417   0.8063
     2.2497   2.6630   2.9509   3.0592   3.1023   3.8007   3.9332   4.1206
     5.9239   7.1251   7.2954   8.7324   9.7669

     occupation numbers 
     1.0000   1.0000   1.0000   1.0000   1.0000   1.0000   1.0000   1.0000
     1.0000   1.0000   1.0000   1.0000   1.0000   1.0000   1.0000   1.0000
     1.0000  -0.0113  -0.0001  -0.0000  -0.0000

          k = 0.4991 0.2147 0.0677 (  6623 PWs)   bands (ev):

   -49.8298 -26.0762 -25.8221 -25.7720 -12.1450  -9.1891  -8.8602   1.2354
     1.9031   2.0825   2.2404   2.4851   2.8916   3.0650   3.8696   4.0702
     6.7591   7.3215   7.4395   9.1639  10.5525

     occupation numbers 
     1.0000   1.0000   1.0000   1.0000   1.0000   1.0000   1.0000   1.0000
     1.0000   1.0000   1.0000   1.0000   1.0000   1.0000   1.0000   1.0000
     0.7788  -0.0001  -0.0000  -0.0000  -0.0000

          k = 0.7487 0.4293 0.0677 (  6628 PWs)   bands (ev):

   -49.8235 -26.1345 -25.8948 -25.7561 -11.6477  -8.9106  -8.8639   1.0915
     1.2397   1.4423   1.6811   1.9123   2.2617   2.5427   3.7130   4.1141
     7.7191   8.0648   8.1712   9.6545  11.1282

     occupation numbers 
     1.0000   1.0000   1.0000   1.0000   1.0000   1.0000   1.0000   1.0000
     1.0000   1.0000   1.0000   1.0000   1.0000   1.0000   1.0000   1.0000
    -0.0000  -0.0000  -0.0000  -0.0000  -0.0000

          k = 0.9983 0.6440 0.0677 (  6613 PWs)   bands (ev):

   -49.8202 -26.1947 -25.9229 -25.7481 -11.1220  -8.9104  -8.7042  -0.0589
     0.7502   0.9306   1.5588   1.9414   2.2115   2.6029   3.3441   3.9452
     8.4547   8.7791   9.0185   9.7527  11.2841

     occupation numbers 
     1.0000   1.0000   1.0000   1.0000   1.0000   1.0000   1.0000   1.0000
     1.0000   1.0000   1.0000   1.0000   1.0000   1.0000   1.0000   1.0000
    -0.0000  -0.0000  -0.0000  -0.0000  -0.0000

          k =-0.7487-0.8586 0.0677 (  6606 PWs)   bands (ev):

   -49.8218 -26.2234 -25.8911 -25.7528 -10.9050  -8.9043  -8.7817  -0.5712
     0.7913   1.2450   1.4373   1.8053   2.3302   2.4023   3.4323   3.8230
     7.9192   9.2339   9.4233   9.4880  11.3445

     occupation numbers 
     1.0000   1.0000   1.0000   1.0000   1.0000   1.0000   1.0000   1.0000
     1.0000   1.0000   1.0000   1.0000   1.0000   1.0000   1.0000   1.0000
    -0.0000  -0.0000  -0.0000  -0.0000  -0.0000

          k =-0.4991-0.6440 0.0677 (  6610 PWs)   bands (ev):

   -49.8275 -26.2048 -25.8173 -25.7673 -11.1743  -9.0561  -8.8769  -0.1008
     1.3240   1.4612   1.5710   1.8787   2.1360   2.9312   3.7150   3.8066
     6.8869   8.9662   9.0526   9.2212  11.4259

     occupation numbers 
     1.0000   1.0000   1.0000   1.0000   1.0000   1.0000   1.0000   1.0000
     1.0000   1.0000   1.0000   1.0000   1.0000   1.0000   1.0000   1.0000
     0.1706  -0.0000  -0.0000  -0.0000  -0.0000

          k =-0.2496-0.4293 0.0677 (  6598 PWs)   bands (ev):

   -49.8338 -26.1479 -25.7832 -25.7436 -11.7263  -9.3411  -8.8500   0.9167
     1.1325   1.4947   2.2525   2.5201   3.1832   3.4088   3.7281   3.9159
     6.0040   8.3729   8.4037   8.7872  10.6496

     occupation numbers 
     1.0000   1.0000   1.0000   1.0000   1.0000   1.0000   1.0000   1.0000
     1.0000   1.0000   1.0000   1.0000   1.0000   1.0000   1.0000   1.0000
     1.0000  -0.0000  -0.0000  -0.0000  -0.0000

          k = 0.0000-0.2147 0.0677 (  6576 PWs)   bands (ev):

   -49.8371 -26.0850 -25.7912 -25.7138 -12.2030  -9.4877  -8.8374   0.6693
     2.0626   2.4319   2.4884   3.2940   3.3571   3.7538   3.9564   4.1601
     5.5344   7.6406   7.6654   8.6777   9.7246

     occupation numbers 
     1.0000   1.0000   1.0000   1.0000   1.0000   1.0000   1.0000   1.0000
     1.0000   1.0000   1.0000   1.0000   1.0000   1.0000   1.0000   1.0000
     1.0000  -0.0000  -0.0000  -0.0000  -0.0000

          k = 0.4991 0.0000 0.1354 (  6632 PWs)   bands (ev):

   -49.8303 -26.0488 -25.8231 -25.7730 -12.3223  -9.2060  -8.8679   1.1834
     1.9251   2.0243   2.4800   3.0497   3.3264   3.4625   3.7850   3.9090
     6.7883   6.9379   7.0959   9.1053  10.1141

     occupation numbers 
     1.0000   1.0000   1.0000   1.0000   1.0000   1.0000   1.0000   1.0000
     1.0000   1.0000   1.0000   1.0000   1.0000   1.0000   1.0000   1.0000
     0.6446   0.0262  -0.0181  -0.0000  -0.0000

          k = 0.7487 0.2147 0.1354 (  6642 PWs)   bands (ev):

   -49.8247 -26.0699 -25.8973 -25.7584 -12.1041  -8.9709  -8.8628   1.0787
     1.4581   1.8248   2.0172   2.6176   2.7652   3.1397   3.8330   4.0162
     7.0927   7.2282   7.8521   9.6444  10.4524

     occupation numbers 
     1.0000   1.0000   1.0000   1.0000   1.0000   1.0000   1.0000   1.0000
     1.0000   1.0000   1.0000   1.0000   1.0000   1.0000   1.0000   1.0000
    -0.0190  -0.0011  -0.0000  -0.0000  -0.0000

          k = 0.9983 0.4293 0.1354 (  6635 PWs)   bands (ev):

   -49.8213 -26.1317 -25.9256 -25.7504 -11.6313  -8.9392  -8.7360   0.7675
     1.2166   1.2403   1.4286   1.9514   2.6338   2.8138   3.5537   4.0447
     7.8517   8.1199   8.4574   9.7362  10.9029

     occupation numbers 
     1.0000   1.0000   1.0000   1.0000   1.0000   1.0000   1.0000   1.0000
     1.0000   1.0000   1.0000   1.0000   1.0000   1.0000   1.0000   1.0000
    -0.0000  -0.0000  -0.0000  -0.0000  -0.0000

          k = 1.2479 0.6440 0.1354 (  6613 PWs)   bands (ev):

   -49.8223 -26.1976 -25.8922 -25.7538 -11.1373  -8.9415  -8.7675  -0.0720
     0.9218   1.1570   1.3357   1.9082   2.5120   2.5798   3.5036   3.8062
     7.9359   8.8359   9.0648   9.4143  11.1870

     occupation numbers 
     1.0000   1.0000   1.0000   1.0000   1.0000   1.0000   1.0000   1.0000
     1.0000   1.0000   1.0000   1.0000   1.0000   1.0000   1.0000   1.0000
    -0.0000  -0.0000  -0.0000  -0.0000  -0.0000

          k =-0.4991-0.8586 0.1354 (  6604 PWs)   bands (ev):

   -49.8270 -26.2307 -25.8163 -25.7663 -10.9400  -8.9905  -8.9198  -0.5969
     1.1759   1.2214   1.7233   1.8017   2.1812   2.9628   3.5792   3.7469
     6.9410   8.9613   9.4197   9.5179  11.4709

     occupation numbers 
     1.0000   1.0000   1.0000   1.0000   1.0000   1.0000   1.0000   1.0000
     1.0000   1.0000   1.0000   1.0000   1.0000   1.0000   1.0000   1.0000
     0.0206  -0.0000  -0.0000  -0.0000  -0.0000

          k =-0.2496-0.6440 0.1354 (  6604 PWs)   bands (ev):

   -49.8326 -26.2119 -25.7808 -25.7414 -11.2106  -9.2513  -8.8896  -0.1291
     0.9540   1.2480   2.0109   2.2592   2.9737   3.3196   3.5279   3.9364
     6.0726   8.7669   9.2209   9.2534  11.0513

     occupation numbers 
     1.0000   1.0000   1.0000   1.0000   1.0000   1.0000   1.0000   1.0000
     1.0000   1.0000   1.0000   1.0000   1.0000   1.0000   1.0000   1.0000
     1.0000  -0.0000  -0.0000  -0.0000  -0.0000

          k = 0.0000-0.4293 0.1354 (  6599 PWs)   bands (ev):

   -49.8359 -26.1507 -25.7888 -25.7117 -11.7424  -9.4081  -8.8663   0.7807
     1.1090   1.4388   2.5449   2.9039   3.0141   3.5512   3.9520   4.0104
     5.5895   8.4241   8.5350   8.7496  10.3250

     occupation numbers 
     1.0000   1.0000   1.0000   1.0000   1.0000   1.0000   1.0000   1.0000
     1.0000   1.0000   1.0000   1.0000   1.0000   1.0000   1.0000   1.0000
     1.0000  -0.0000  -0.0000  -0.0000  -0.0000

          k = 0.2496-0.2147 0.1354 (  6607 PWs)   bands (ev):

   -49.8350 -26.0824 -25.7856 -25.7458 -12.1858  -9.3904  -8.8595   0.8844
     2.1374   2.2507   2.4546   2.9579   3.2050   3.4973   3.8606   4.0663
     5.9630   7.5191   7.6180   8.7344  10.1568

     occupation numbers 
     1.0000   1.0000   1.0000   1.0000   1.0000   1.0000   1.0000   1.0000
     1.0000   1.0000   1.0000   1.0000   1.0000   1.0000   1.0000   1.0000
     1.0000  -0.0000  -0.0000  -0.0000  -0.0000

          k = 0.7487 0.0000 0.2031 (  6652 PWs)   bands (ev):

   -49.8251 -26.0427 -25.8984 -25.7593 -12.2809  -9.0090  -8.8475   1.0096
     1.3337   1.9958   2.0963   3.1696   3.4409   3.5788   3.7293   3.7606
     6.7812   6.7960   7.8398   9.5475   9.9805

     occupation numbers 
     1.0000   1.0000   1.0000   1.0000   1.0000   1.0000   1.0000   1.0000
     1.0000   1.0000   1.0000   1.0000   1.0000   1.0000   1.0000   1.0000
     0.6792   0.6066  -0.0000  -0.0000  -0.0000

          k = 0.9983 0.2147 0.2031 (  6639 PWs)   bands (ev):

   -49.8225 -26.0673 -25.9282 -25.7527 -12.0871  -8.9676  -8.7671   0.6970
     1.3338   1.7681   1.9294   2.6866   2.9044   3.4020   3.8042   3.9307
     7.0321   7.1205   8.4340   9.6755  10.3131

     occupation numbers 
     1.0000   1.0000   1.0000   1.0000   1.0000   1.0000   1.0000   1.0000
     1.0000   1.0000   1.0000   1.0000   1.0000   1.0000   1.0000   1.0000
    -0.0342  -0.0122  -0.0000  -0.0000  -0.0000

          k = 1.2479 0.4293 0.2031 (  6630 PWs)   bands (ev):

   -49.8235 -26.1345 -25.8948 -25.7561 -11.6474  -8.9838  -8.7850   1.0044
     1.1820   1.2992   1.3943   2.0971   2.6506   2.8087   3.6920   3.9531
     7.8590   7.9908   8.1758   9.4064  10.8638

     occupation numbers 
     1.0000   1.0000   1.0000   1.0000   1.0000   1.0000   1.0000   1.0000
     1.0000   1.0000   1.0000   1.0000   1.0000   1.0000   1.0000   1.0000
    -0.0000  -0.0000  -0.0000  -0.0000  -0.0000

          k = 1.4974 0.6440 0.2031 (  6610 PWs)   bands (ev):

   -49.8275 -26.2048 -25.8173 -25.7673 -11.1739  -9.0212  -8.9126  -0.1020
     1.2549   1.3213   1.6932   1.8480   2.2865   3.0107   3.5553   3.8700
     6.9454   8.8565   9.1192   9.1545  11.3606

     occupation numbers 
     1.0000   1.0000   1.0000   1.0000   1.0000   1.0000   1.0000   1.0000
     1.0000   1.0000   1.0000   1.0000   1.0000   1.0000   1.0000   1.0000
     0.0130  -0.0000  -0.0000  -0.0000  -0.0000

          k =-0.2496-0.8586 0.2031 (  6595 PWs)   bands (ev):

   -49.8321 -26.2380 -25.7798 -25.7405 -10.9744  -9.1870  -8.9369  -0.6225
     0.8390   1.4200   1.7748   2.1694   2.8874   3.2248   3.4800   3.9639
     6.1095   8.7816   9.5700   9.6001  11.2125

     occupation numbers 
     1.0000   1.0000   1.0000   1.0000   1.0000   1.0000   1.0000   1.0000
     1.0000   1.0000   1.0000   1.0000   1.0000   1.0000   1.0000   1.0000
     1.0000  -0.0000  -0.0000  -0.0000  -0.0000

          k = 0.0000-0.6440 0.2031 (  6604 PWs)   bands (ev):

   -49.8347 -26.2148 -25.7864 -25.7096 -11.2253  -9.3134  -8.9137  -0.1411
     0.7862   1.2387   2.4068   2.5598   2.6079   3.4587   3.9247   3.9852
     5.6433   8.8205   9.2232   9.3606  10.7886

     occupation numbers 
     1.0000   1.0000   1.0000   1.0000   1.0000   1.0000   1.0000   1.0000
     1.0000   1.0000   1.0000   1.0000   1.0000   1.0000   1.0000   1.0000
     1.0000  -0.0000  -0.0000  -0.0000  -0.0000

          k = 0.2496-0.4293 0.2031 (  6610 PWs)   bands (ev):

   -49.8338 -26.1479 -25.7832 -25.7436 -11.7259  -9.3068  -8.8904   0.9619
     1.1572   1.5900   2.1770   2.5417   2.9608   3.4648   3.5775   4.0746
     6.0335   8.3926   8.4018   8.7627  10.7500

     occupation numbers 
     1.0000   1.0000   1.0000   1.0000   1.0000   1.0000   1.0000   1.0000
     1.0000   1.0000   1.0000   1.0000   1.0000   1.0000   1.0000   1.0000
     1.0000  -0.0000  -0.0000  -0.0000  -0.0000

          k = 0.4991-0.2147 0.2031 (  6624 PWs)   bands (ev):

   -49.8298 -26.0762 -25.8221 -25.7720 -12.1447  -9.1749  -8.8748   1.2086
     1.8874   1.9442   2.3078   2.5179   2.9327   3.1628   3.8418   4.0821
     6.8145   7.2872   7.4540   9.0329  10.4956

     occupation numbers 
     1.0000   1.0000   1.0000   1.0000   1.0000   1.0000   1.0000   1.0000
     1.0000   1.0000   1.0000   1.0000   1.0000   1.0000   1.0000   1.0000
     0.5116  -0.0002  -0.0000  -0.0000  -0.0000

          k =-0.9983 0.0000-0.2708 (  6638 PWs)   bands (ev):

   -49.8230 -26.0402 -25.9293 -25.7537 -12.2637  -8.9792  -8.7799   0.6632
     1.3137   1.8905   2.0429   3.3078   3.4079   3.5006   3.7824   3.9221
     6.6044   6.7455   8.4215   9.5377  10.0289

     occupation numbers 
     1.0000   1.0000   1.0000   1.0000   1.0000   1.0000   1.0000   1.0000
     1.0000   1.0000   1.0000   1.0000   1.0000   1.0000   1.0000   1.0000
     1.0347   0.8330  -0.0000  -0.0000  -0.0000

          k =-0.7487 0.2147-0.2708 (  6636 PWs)   bands (ev):

   -49.8247 -26.0699 -25.8973 -25.7584 -12.1039  -9.0117  -8.8180   0.9973
     1.2696   1.8239   2.1577   2.6357   2.8943   3.2510   3.8077   4.0104
     7.0817   7.2222   7.8822   9.4633  10.3197

     occupation numbers 
     1.0000   1.0000   1.0000   1.0000   1.0000   1.0000   1.0000   1.0000
     1.0000   1.0000   1.0000   1.0000   1.0000   1.0000   1.0000   1.0000
    -0.0220  -0.0012  -0.0000  -0.0000  -0.0000

          k =-0.4991 0.4293-0.2708 (  6628 PWs)   bands (ev):

   -49.8286 -26.1412 -25.8197 -25.7697 -11.6866  -9.1053  -8.8861   1.0920
     1.3094   1.6905   1.8858   1.9357   2.4026   3.0822   3.6930   4.0581
     6.8938   8.1344   8.2978   8.9886  11.0561

     occupation numbers 
     1.0000   1.0000   1.0000   1.0000   1.0000   1.0000   1.0000   1.0000
     1.0000   1.0000   1.0000   1.0000   1.0000   1.0000   1.0000   1.0000
     0.1456  -0.0000  -0.0000  -0.0000  -0.0000

          k =-0.2496 0.6440-0.2708 (  6613 PWs)   bands (ev):

   -49.8326 -26.2119 -25.7808 -25.7414 -11.2102  -9.2148  -8.9307  -0.1302
     0.9466   1.4638   1.8441   2.2682   2.8830   3.2750   3.5006   4.0199
     6.0945   8.7722   9.2093   9.2560  11.1192

     occupation numbers 
     1.0000   1.0000   1.0000   1.0000   1.0000   1.0000   1.0000   1.0000
     1.0000   1.0000   1.0000   1.0000   1.0000   1.0000   1.0000   1.0000
     1.0000  -0.0000  -0.0000  -0.0000  -0.0000

          k =-1.9966-0.8586-0.2708 (  6594 PWs)   bands (ev):

   -49.8342 -26.2410 -25.7854 -25.7087 -10.9884  -9.2654  -8.9445  -0.6331
     0.6864   1.3315   2.1200   2.4337   2.6325   3.4174   3.8949   3.9819
     5.6657   8.8505   9.5738   9.6983  10.9592

     occupation numbers 
     1.0000   1.0000   1.0000   1.0000   1.0000   1.0000   1.0000   1.0000
     1.0000   1.0000   1.0000   1.0000   1.0000   1.0000   1.0000   1.0000
     1.0000  -0.0000  -0.0000  -0.0000  -0.0000

          k = 0.4991 0.4293 0.1354 (  6618 PWs)   bands (ev):

   -49.8286 -26.1412 -25.8197 -25.7696 -11.6870  -9.1248  -8.8660   1.1043
     1.3660   1.7505   1.8352   2.0659   2.1922   2.9847   3.7942   4.0336
     6.8339   8.1502   8.2845   9.1111  11.1277

     occupation numbers 
     1.0000   1.0000   1.0000   1.0000   1.0000   1.0000   1.0000   1.0000
     1.0000   1.0000   1.0000   1.0000   1.0000   1.0000   1.0000   1.0000
     0.4112  -0.0000  -0.0000  -0.0000  -0.0000

          k = 0.7487 0.6440 0.1354 (  6627 PWs)   bands (ev):

   -49.8223 -26.1976 -25.8922 -25.7537 -11.1375  -8.9009  -8.8115  -0.0717
     0.9709   1.2298   1.6444   1.7355   2.2833   2.3589   3.5172   3.9484
     7.8799   8.8399   9.0596   9.5583  11.3656

     occupation numbers 
     1.0000   1.0000   1.0000   1.0000   1.0000   1.0000   1.0000   1.0000
     1.0000   1.0000   1.0000   1.0000   1.0000   1.0000   1.0000   1.0000
    -0.0000  -0.0000  -0.0000  -0.0000  -0.0000

          k = 0.9983 0.8586 0.1354 (  6614 PWs)   bands (ev):

   -49.8197 -26.2203 -25.9218 -25.7472 -10.8902  -8.8984  -8.6909  -0.5605
     0.6195   0.9259   1.7734   1.8620   1.9490   2.5844   3.2255   3.9082
     8.4687   9.1845   9.3844   9.7397  11.3906

     occupation numbers 
     1.0000   1.0000   1.0000   1.0000   1.0000   1.0000   1.0000   1.0000
     1.0000   1.0000   1.0000   1.0000   1.0000   1.0000   1.0000   1.0000
    -0.0000  -0.0000  -0.0000  -0.0000  -0.0000

          k = 0.0000 0.0000 0.1354 (  6595 PWs)   bands (ev):

   -49.8376 -26.0574 -25.7922 -25.7147 -12.3809  -9.4953  -8.8577   0.6950
     2.4901   2.7060   2.8460   3.0595   3.4457   3.8230   4.1549   4.2476
     5.5234   7.2157   7.3857   8.6998   9.4805

     occupation numbers 
     1.0000   1.0000   1.0000   1.0000   1.0000   1.0000   1.0000   1.0000
     1.0000   1.0000   1.0000   1.0000   1.0000   1.0000   1.0000   1.0000
     1.0000  -0.0015  -0.0000  -0.0000  -0.0000

          k = 0.7487 0.4293 0.2031 (  6633 PWs)   bands (ev):

   -49.8235 -26.1345 -25.8948 -25.7561 -11.6476  -8.9525  -8.8197   1.0535
     1.2095   1.4131   1.4965   1.9879   2.4687   2.6473   3.7006   4.0552
     7.7724   8.0335   8.1726   9.5543  11.0219

     occupation numbers 
     1.0000   1.0000   1.0000   1.0000   1.0000   1.0000   1.0000   1.0000
     1.0000   1.0000   1.0000   1.0000   1.0000   1.0000   1.0000   1.0000
    -0.0000  -0.0000  -0.0000  -0.0000  -0.0000

          k = 0.9983 0.6440 0.2031 (  6625 PWs)   bands (ev):

   -49.8202 -26.1947 -25.9229 -25.7481 -11.1220  -8.9104  -8.7042  -0.0589
     0.7827   0.8782   1.6400   1.8534   2.2247   2.6419   3.2905   3.9749
     8.4632   8.7747   9.0252   9.7209  11.2749

     occupation numbers 
     1.0000   1.0000   1.0000   1.0000   1.0000   1.0000   1.0000   1.0000
     1.0000   1.0000   1.0000   1.0000   1.0000   1.0000   1.0000   1.0000
    -0.0000  -0.0000  -0.0000  -0.0000  -0.0000

          k = 1.2479 0.8586 0.2031 (  6616 PWs)   bands (ev):

   -49.8218 -26.2234 -25.8911 -25.7528 -10.9050  -8.9043  -8.7817  -0.5712
     0.7948   1.2121   1.5383   1.6987   2.3646   2.4114   3.4287   3.8174
     7.9201   9.1963   9.4285   9.5193  11.3832

     occupation numbers 
     1.0000   1.0000   1.0000   1.0000   1.0000   1.0000   1.0000   1.0000
     1.0000   1.0000   1.0000   1.0000   1.0000   1.0000   1.0000   1.0000
    -0.0000  -0.0000  -0.0000  -0.0000  -0.0000

          k =-0.4991-0.6440 0.2031 (  6609 PWs)   bands (ev):

   -49.8275 -26.2048 -25.8173 -25.7673 -11.1741  -9.0437  -8.8897  -0.1013
     1.2916   1.3909   1.6102   1.9254   2.1588   2.9728   3.6274   3.8537
     6.9104   8.8938   9.1147   9.1867  11.4077

     occupation numbers 
     1.0000   1.0000   1.0000   1.0000   1.0000   1.0000   1.0000   1.0000
     1.0000   1.0000   1.0000   1.0000   1.0000   1.0000   1.0000   1.0000
     0.0920  -0.0000  -0.0000  -0.0000  -0.0000

          k = 0.0000-0.2147 0.2031 (  6592 PWs)   bands (ev):

   -49.8371 -26.0850 -25.7912 -25.7138 -12.2024  -9.4439  -8.8921   0.8133
     2.1026   2.4298   2.5320   3.1517   3.2799   3.5629   4.0588   4.0896
     5.5506   7.6402   7.6885   8.7659   9.9074

     occupation numbers 
     1.0000   1.0000   1.0000   1.0000   1.0000   1.0000   1.0000   1.0000
     1.0000   1.0000   1.0000   1.0000   1.0000   1.0000   1.0000   1.0000
     1.0000  -0.0000  -0.0000  -0.0000  -0.0000

          k = 0.2496 0.0000 0.2031 (  6609 PWs)   bands (ev):

   -49.8355 -26.0549 -25.7866 -25.7467 -12.3634  -9.3906  -8.8878   0.9248
     2.2549   2.5874   2.8860   3.0462   3.1762   3.6988   3.9599   4.0488
     5.9767   7.1051   7.3421   8.7045   9.8642

     occupation numbers 
     1.0000   1.0000   1.0000   1.0000   1.0000   1.0000   1.0000   1.0000
     1.0000   1.0000   1.0000   1.0000   1.0000   1.0000   1.0000   1.0000
     1.0000  -0.0157  -0.0000  -0.0000  -0.0000

          k = 0.9983 0.4293 0.2708 (  6632 PWs)   bands (ev):

   -49.8213 -26.1317 -25.9256 -25.7504 -11.6313  -8.9392  -8.7360   0.7545
     1.2163   1.2388   1.5063   1.8612   2.6211   2.8726   3.5269   4.0530
     7.8605   8.1216   8.4507   9.7134  10.9220

     occupation numbers 
     1.0000   1.0000   1.0000   1.0000   1.0000   1.0000   1.0000   1.0000
     1.0000   1.0000   1.0000   1.0000   1.0000   1.0000   1.0000   1.0000
    -0.0000  -0.0000  -0.0000  -0.0000  -0.0000

          k = 1.2479 0.6440 0.2708 (  6616 PWs)   bands (ev):

   -49.8223 -26.1976 -25.8922 -25.7537 -11.1374  -8.9245  -8.7862  -0.0718
     0.9506   1.1726   1.4836   1.8146   2.4240   2.4738   3.5064   3.8801
     7.9088   8.8250   9.0616   9.4981  11.2930

     occupation numbers 
     1.0000   1.0000   1.0000   1.0000   1.0000   1.0000   1.0000   1.0000
     1.0000   1.0000   1.0000   1.0000   1.0000   1.0000   1.0000   1.0000
    -0.0000  -0.0000  -0.0000  -0.0000  -0.0000

          k = 1.4974 0.8586 0.2708 (  6600 PWs)   bands (ev):

   -49.8270 -26.2307 -25.8163 -25.7663 -10.9400  -8.9905  -8.9198  -0.5969
     1.1916   1.2053   1.7096   1.8098   2.1961   2.9508   3.5708   3.7586
     6.9406   8.9515   9.4398   9.5090  11.4829

     occupation numbers 
     1.0000   1.0000   1.0000   1.0000   1.0000   1.0000   1.0000   1.0000
     1.0000   1.0000   1.0000   1.0000   1.0000   1.0000   1.0000   1.0000
     0.0213  -0.0000  -0.0000  -0.0000  -0.0000

          k = 0.0000-0.4293 0.2708 (  6610 PWs)   bands (ev):

   -49.8359 -26.1507 -25.7888 -25.7117 -11.7416  -9.3500  -8.9357   0.8941
     1.1422   1.5747   2.5926   2.6231   2.8998   3.3864   3.9272   4.1548
     5.6015   8.4151   8.5338   8.8382  10.5421

     occupation numbers 
     1.0000   1.0000   1.0000   1.0000   1.0000   1.0000   1.0000   1.0000
     1.0000   1.0000   1.0000   1.0000   1.0000   1.0000   1.0000   1.0000
     1.0000  -0.0000  -0.0000  -0.0000  -0.0000

          k = 0.2496-0.2147 0.2708 (  6614 PWs)   bands (ev):

   -49.8350 -26.0824 -25.7856 -25.7458 -12.1851  -9.3359  -8.9236   1.0454
     2.1080   2.2755   2.4698   2.8373   3.1157   3.4562   3.7851   4.1149
     6.0179   7.5109   7.6484   8.7249  10.2792

     occupation numbers 
     1.0000   1.0000   1.0000   1.0000   1.0000   1.0000   1.0000   1.0000
     1.0000   1.0000   1.0000   1.0000   1.0000   1.0000   1.0000   1.0000
     1.0000  -0.0000  -0.0000  -0.0000  -0.0000

          k = 0.4991 0.0000 0.2708 (  6634 PWs)   bands (ev):

   -49.8303 -26.0488 -25.8231 -25.7730 -12.3219  -9.1864  -8.8881   1.1662
     1.7851   2.0238   2.5639   2.9850   3.4470   3.5429   3.8486   3.8660
     6.8560   6.8878   7.1099   8.9232  10.0349

     occupation numbers 
     1.0000   1.0000   1.0000   1.0000   1.0000   1.0000   1.0000   1.0000
     1.0000   1.0000   1.0000   1.0000   1.0000   1.0000   1.0000   1.0000
     0.3027   0.1674  -0.0146  -0.0000  -0.0000

          k =-1.9966-0.6440-0.2031 (  6620 PWs)   bands (ev):

   -49.8347 -26.2148 -25.7864 -25.7096 -11.2248  -9.2630  -8.9711  -0.1426
     0.8487   1.3888   2.2004   2.5592   2.6379   3.2637   3.8724   4.1459
     5.6495   8.8724   9.2143   9.3599  10.9074

     occupation numbers 
     1.0000   1.0000   1.0000   1.0000   1.0000   1.0000   1.0000   1.0000
     1.0000   1.0000   1.0000   1.0000   1.0000   1.0000   1.0000   1.0000
     1.0000  -0.0000  -0.0000  -0.0000  -0.0000

          k =-1.7470-0.4293-0.2031 (  6624 PWs)   bands (ev):

   -49.8338 -26.1479 -25.7832 -25.7436 -11.7252  -9.2422  -8.9634   1.0113
     1.2512   1.7344   1.9986   2.5339   2.8801   3.3834   3.4236   4.2206
     6.0756   8.3788   8.4093   8.7796  10.8695

     occupation numbers 
     1.0000   1.0000   1.0000   1.0000   1.0000   1.0000   1.0000   1.0000
     1.0000   1.0000   1.0000   1.0000   1.0000   1.0000   1.0000   1.0000
     1.0000  -0.0000  -0.0000  -0.0000  -0.0000

          k =-1.4974-0.2147-0.2031 (  6641 PWs)   bands (ev):

   -49.8298 -26.0762 -25.8221 -25.7720 -12.1443  -9.1522  -8.8983   1.1978
     1.6784   1.9711   2.3805   2.5396   3.0343   3.2505   3.7851   4.1064
     6.9024   7.2538   7.4610   8.8578  10.3957

     occupation numbers 
     1.0000   1.0000   1.0000   1.0000   1.0000   1.0000   1.0000   1.0000
     1.0000   1.0000   1.0000   1.0000   1.0000   1.0000   1.0000   1.0000
     0.1164  -0.0005  -0.0000  -0.0000  -0.0000

          k =-1.2479 0.0000-0.2031 (  6642 PWs)   bands (ev):

   -49.8251 -26.0427 -25.8984 -25.7594 -12.2807  -9.0444  -8.8075   0.9334
     1.1534   2.0142   2.2751   3.1272   3.5569   3.5669   3.7910   3.8484
     6.7411   6.7717   7.8891   9.3436   9.8444

     occupation numbers 
     1.0000   1.0000   1.0000   1.0000   1.0000   1.0000   1.0000   1.0000
     1.0000   1.0000   1.0000   1.0000   1.0000   1.0000   1.0000   1.0000
     0.8490   0.7239  -0.0000  -0.0000  -0.0000

          k = 0.0000 0.8586-0.1354 (  6602 PWs)   bands (ev):

   -49.8342 -26.2410 -25.7854 -25.7087 -10.9884  -9.2653  -8.9445  -0.6331
     0.7406   1.1822   2.3376   2.4338   2.6324   3.1847   3.8949   4.0979
     5.6613   8.8505   9.5835   9.6982  10.9173

     occupation numbers 
     1.0000   1.0000   1.0000   1.0000   1.0000   1.0000   1.0000   1.0000
     1.0000   1.0000   1.0000   1.0000   1.0000   1.0000   1.0000   1.0000
     1.0000  -0.0000  -0.0000  -0.0000  -0.0000

          k =-1.7470-0.6440-0.1354 (  6624 PWs)   bands (ev):

   -49.8326 -26.2119 -25.7808 -25.7414 -11.2098  -9.1625  -8.9875  -0.1314
     1.0341   1.4555   1.8651   2.2195   2.9281   3.1787   3.3438   4.1497
     6.1129   8.7647   9.2269   9.2552  11.1742

     occupation numbers 
     1.0000   1.0000   1.0000   1.0000   1.0000   1.0000   1.0000   1.0000
     1.0000   1.0000   1.0000   1.0000   1.0000   1.0000   1.0000   1.0000
     1.0000  -0.0000  -0.0000  -0.0000  -0.0000

          k =-1.4974-0.4293-0.1354 (  6629 PWs)   bands (ev):

   -49.8286 -26.1412 -25.8197 -25.7697 -11.6862  -9.0812  -8.9108   1.0836
     1.2749   1.6244   1.7944   1.9882   2.6100   3.1230   3.6020   4.0705
     6.9582   8.1428   8.2953   8.8621  10.9656

     occupation numbers 
     1.0000   1.0000   1.0000   1.0000   1.0000   1.0000   1.0000   1.0000
     1.0000   1.0000   1.0000   1.0000   1.0000   1.0000   1.0000   1.0000
    -0.0052  -0.0000  -0.0000  -0.0000  -0.0000

          k =-1.2479-0.2147-0.1354 (  6638 PWs)   bands (ev):

   -49.8247 -26.0699 -25.8973 -25.7584 -12.1037  -9.0388  -8.7870   0.9415
     1.1184   1.7934   2.2954   2.6357   3.0116   3.3675   3.8071   3.9751
     7.0687   7.2175   7.9260   9.2880  10.1729

     occupation numbers 
     1.0000   1.0000   1.0000   1.0000   1.0000   1.0000   1.0000   1.0000
     1.0000   1.0000   1.0000   1.0000   1.0000   1.0000   1.0000   1.0000
    -0.0257  -0.0014  -0.0000  -0.0000  -0.0000

          k =-0.9983 0.0000-0.1354 (  6649 PWs)   bands (ev):

   -49.8230 -26.0402 -25.9293 -25.7537 -12.2637  -8.9792  -8.7799   0.6811
     1.2603   1.9094   2.0704   3.3076   3.4084   3.5151   3.7533   3.9218
     6.6110   6.7388   8.4249   9.6054   9.9526

     occupation numbers 
     1.0000   1.0000   1.0000   1.0000   1.0000   1.0000   1.0000   1.0000
     1.0000   1.0000   1.0000   1.0000   1.0000   1.0000   1.0000   1.0000
     1.0353   0.8572  -0.0000  -0.0000  -0.0000

          k = 0.0000 0.6440-0.0677 (  6603 PWs)   bands (ev):

   -49.8347 -26.2148 -25.7863 -25.7096 -11.2257  -9.3416  -8.8806  -0.1400
     0.8336   1.0139   2.5619   2.5862   2.8035   3.2232   3.9608   4.0277
     5.6341   8.7838   9.2441   9.3609  10.6663

     occupation numbers 
     1.0000   1.0000   1.0000   1.0000   1.0000   1.0000   1.0000   1.0000
     1.0000   1.0000   1.0000   1.0000   1.0000   1.0000   1.0000   1.0000
     1.0000  -0.0000  -0.0000  -0.0000  -0.0000

          k = 0.2496 0.8586-0.0677 (  6609 PWs)   bands (ev):

   -49.8321 -26.2380 -25.7798 -25.7405 -10.9744  -9.1870  -8.9370  -0.6225
     0.9109   1.2220   1.9462   2.1459   2.9892   3.1526   3.3575   4.0373
     6.1057   8.7804   9.5834   9.5963  11.2030

     occupation numbers 
     1.0000   1.0000   1.0000   1.0000   1.0000   1.0000   1.0000   1.0000
     1.0000   1.0000   1.0000   1.0000   1.0000   1.0000   1.0000   1.0000
     1.0000  -0.0000  -0.0000  -0.0000  -0.0000

          k =-1.4974-0.6440-0.0677 (  6623 PWs)   bands (ev):

   -49.8275 -26.2048 -25.8173 -25.7673 -11.1737  -8.9961  -8.9380  -0.1025
     1.2277   1.2947   1.7540   1.7809   2.3715   3.0332   3.5144   3.8697
     6.9715   8.8591   9.0516   9.1730  11.3120

     occupation numbers 
     1.0000   1.0000   1.0000   1.0000   1.0000   1.0000   1.0000   1.0000
     1.0000   1.0000   1.0000   1.0000   1.0000   1.0000   1.0000   1.0000
    -0.0189  -0.0000  -0.0000  -0.0000  -0.0000

          k =-1.2479-0.4293-0.0677 (  6628 PWs)   bands (ev):

   -49.8235 -26.1345 -25.8948 -25.7561 -11.6473  -9.0005  -8.7659   0.9813
     1.1519   1.1950   1.3832   2.1652   2.7656   2.9153   3.7140   3.8451
     7.9298   7.9626   8.1790   9.2952  10.7455

     occupation numbers 
     1.0000   1.0000   1.0000   1.0000   1.0000   1.0000   1.0000   1.0000
     1.0000   1.0000   1.0000   1.0000   1.0000   1.0000   1.0000   1.0000
    -0.0000  -0.0000  -0.0000  -0.0000  -0.0000

          k =-0.9983-0.2147-0.0677 (  6637 PWs)   bands (ev):

   -49.8225 -26.0673 -25.9282 -25.7527 -12.0871  -8.9675  -8.7672   0.7231
     1.2643   1.7154   2.0597   2.6830   2.8953   3.3626   3.8218   3.9295
     7.0284   7.1179   8.4397   9.7462  10.2319

     occupation numbers 
     1.0000   1.0000   1.0000   1.0000   1.0000   1.0000   1.0000   1.0000
     1.0000   1.0000   1.0000   1.0000   1.0000   1.0000   1.0000   1.0000
    -0.0347  -0.0128  -0.0000  -0.0000  -0.0000

          k =-0.7487 0.0000-0.0677 (  6646 PWs)   bands (ev):

   -49.8251 -26.0427 -25.8984 -25.7593 -12.2810  -8.9649  -8.8948   1.0807
     1.5399   1.8247   2.0378   3.2054   3.3556   3.6092   3.6715   3.6849
     6.7977   6.8244   7.8113   9.7131  10.0508

     occupation numbers 
     1.0000   1.0000   1.0000   1.0000   1.0000   1.0000   1.0000   1.0000
     1.0000   1.0000   1.0000   1.0000   1.0000   1.0000   1.0000   1.0000
     0.5977   0.4603  -0.0000  -0.0000  -0.0000

          k = 0.0000 0.4293 0.0000 (  6583 PWs)   bands (ev):

   -49.8359 -26.1507 -25.7888 -25.7117 -11.7427  -9.4282  -8.8414   0.7349
     1.1045   1.3856   2.5268   2.9052   3.3693   3.3981   3.8831   4.0442
     5.5842   8.4339   8.5360   8.7122  10.2293

     occupation numbers 
     1.0000   1.0000   1.0000   1.0000   1.0000   1.0000   1.0000   1.0000
     1.0000   1.0000   1.0000   1.0000   1.0000   1.0000   1.0000   1.0000
     1.0000  -0.0000  -0.0000  -0.0000  -0.0000

          k = 0.2496 0.6440 0.0000 (  6602 PWs)   bands (ev):

   -49.8326 -26.2119 -25.7808 -25.7414 -11.2108  -9.2642  -8.8749  -0.1286
     1.0532   1.0666   2.0960   2.2310   3.1507   3.2041   3.5039   3.9366
     6.0625   8.7608   9.2418   9.2443  11.0189

     occupation numbers 
     1.0000   1.0000   1.0000   1.0000   1.0000   1.0000   1.0000   1.0000
     1.0000   1.0000   1.0000   1.0000   1.0000   1.0000   1.0000   1.0000
     1.0000  -0.0000  -0.0000  -0.0000  -0.0000

          k = 0.4991 0.8586 0.0000 (  6619 PWs)   bands (ev):

   -49.8270 -26.2307 -25.8163 -25.7663 -10.9400  -8.9905  -8.9199  -0.5969
     1.1677   1.2299   1.7479   1.7824   2.1672   2.9744   3.5894   3.7333
     6.9413   8.9716   9.4015   9.5244  11.4590

     occupation numbers 
     1.0000   1.0000   1.0000   1.0000   1.0000   1.0000   1.0000   1.0000
     1.0000   1.0000   1.0000   1.0000   1.0000   1.0000   1.0000   1.0000
     0.0199  -0.0000  -0.0000  -0.0000  -0.0000

          k =-1.2479-0.6440 0.0000 (  6611 PWs)   bands (ev):

   -49.8223 -26.1976 -25.8922 -25.7538 -11.1372  -8.9476  -8.7607  -0.0720
     0.9071   1.1765   1.2607   1.9484   2.5477   2.6120   3.5072   3.7724
     7.9463   8.8517   9.0651   9.3711  11.1342

     occupation numbers 
     1.0000   1.0000   1.0000   1.0000   1.0000   1.0000   1.0000   1.0000
     1.0000   1.0000   1.0000   1.0000   1.0000   1.0000   1.0000   1.0000
    -0.0000  -0.0000  -0.0000  -0.0000  -0.0000

          k =-0.9983-0.4293 0.0000 (  6638 PWs)   bands (ev):

   -49.8213 -26.1317 -25.9256 -25.7504 -11.6313  -8.9392  -8.7360   0.7817
     1.2172   1.2427   1.3660   2.0272   2.6705   2.7297   3.5793   4.0359
     7.8431   8.1184   8.4637   9.7600  10.8825

     occupation numbers 
     1.0000   1.0000   1.0000   1.0000   1.0000   1.0000   1.0000   1.0000
     1.0000   1.0000   1.0000   1.0000   1.0000   1.0000   1.0000   1.0000
    -0.0000  -0.0000  -0.0000  -0.0000  -0.0000

          k =-0.7487-0.2147 0.0000 (  6643 PWs)   bands (ev):

   -49.8247 -26.0699 -25.8973 -25.7584 -12.1041  -8.9336  -8.9018   1.1204
     1.6352   1.6842   2.0114   2.5819   2.7198   3.0974   3.8487   4.0116
     7.0968   7.2310   7.8427   9.7229  10.5024

     occupation numbers 
     1.0000   1.0000   1.0000   1.0000   1.0000   1.0000   1.0000   1.0000
     1.0000   1.0000   1.0000   1.0000   1.0000   1.0000   1.0000   1.0000
    -0.0179  -0.0010  -0.0000  -0.0000  -0.0000

          k =-0.4991 0.0000 0.0000 (  6637 PWs)   bands (ev):

   -49.8303 -26.0488 -25.8231 -25.7730 -12.3225  -9.2134  -8.8602   1.1979
     1.8918   2.1512   2.4056   3.0967   3.2600   3.4294   3.7549   3.9231
     6.7635   6.9636   7.0852   9.1871  10.1405

     occupation numbers 
     1.0000   1.0000   1.0000   1.0000   1.0000   1.0000   1.0000   1.0000
     1.0000   1.0000   1.0000   1.0000   1.0000   1.0000   1.0000   1.0000
     0.7602  -0.0114  -0.0210  -0.0000  -0.0000

          k = 0.9983 0.8586 0.2708 (  6616 PWs)   bands (ev):

   -49.8197 -26.2203 -25.9218 -25.7472 -10.8902  -8.8983  -8.6909  -0.5605
     0.6363   0.8946   1.8103   1.8938   1.9017   2.5955   3.1837   3.9336
     8.4703   9.1863   9.3954   9.7102  11.3719

     occupation numbers 
     1.0000   1.0000   1.0000   1.0000   1.0000   1.0000   1.0000   1.0000
     1.0000   1.0000   1.0000   1.0000   1.0000   1.0000   1.0000   1.0000
    -0.0000  -0.0000  -0.0000  -0.0000  -0.0000

          k = 0.0000 0.0000 0.2708 (  6599 PWs)   bands (ev):

   -49.8376 -26.0574 -25.7922 -25.7147 -12.3801  -9.4296  -8.9384   0.9172
     2.5550   2.5796   2.8103   3.1745   3.4051   3.5772   4.0319   4.1656
     5.5484   7.2161   7.4571   8.8240   9.6878

     occupation numbers 
     1.0000   1.0000   1.0000   1.0000   1.0000   1.0000   1.0000   1.0000
     1.0000   1.0000   1.0000   1.0000   1.0000   1.0000   1.0000   1.0000
     1.0000  -0.0015  -0.0000  -0.0000  -0.0000

          k = 0.0000-0.2147 0.3385 (  6613 PWs)   bands (ev):

   -49.8371 -26.0850 -25.7912 -25.7138 -12.2015  -9.3614  -8.9898   1.0720
     2.1575   2.4255   2.6033   2.7758   3.2517   3.4535   3.9909   4.0858
     5.5676   7.6398   7.7306   8.8901  10.1498

     occupation numbers 
     1.0000   1.0000   1.0000   1.0000   1.0000   1.0000   1.0000   1.0000
     1.0000   1.0000   1.0000   1.0000   1.0000   1.0000   1.0000   1.0000
     1.0000  -0.0000  -0.0000  -0.0000  -0.0000

          k = 0.2496 0.0000 0.3385 (  6609 PWs)   bands (ev):

   -49.8355 -26.0549 -25.7866 -25.7467 -12.3627  -9.3205  -8.9690   1.1474
     2.1120   2.5779   2.8426   2.9608   3.3151   3.6518   3.9092   3.9262
     6.0390   7.0877   7.3967   8.7156   9.9447

     occupation numbers 
     1.0000   1.0000   1.0000   1.0000   1.0000   1.0000   1.0000   1.0000
     1.0000   1.0000   1.0000   1.0000   1.0000   1.0000   1.0000   1.0000
     1.0000  -0.0203  -0.0000  -0.0000  -0.0000

          k =-1.9966-0.4293-0.1354 (  6620 PWs)   bands (ev):

   -49.8359 -26.1507 -25.7888 -25.7117 -11.7409  -9.2607  -9.0362   0.9815
     1.2735   1.6898   2.3297   2.6478   2.8928   3.1215   3.8405   4.3099
     5.6124   8.4227   8.5334   8.9259  10.7409

     occupation numbers 
     1.0000   1.0000   1.0000   1.0000   1.0000   1.0000   1.0000   1.0000
     1.0000   1.0000   1.0000   1.0000   1.0000   1.0000   1.0000   1.0000
     1.0000  -0.0000  -0.0000  -0.0000  -0.0000

          k =-1.7470-0.2147-0.1354 (  6628 PWs)   bands (ev):

   -49.8350 -26.0824 -25.7856 -25.7458 -12.1845  -9.2557  -9.0136   1.2882
     1.9248   2.3504   2.4498   2.7759   3.0853   3.3917   3.6969   4.1387
     6.0692   7.5057   7.6689   8.7543  10.3598

     occupation numbers 
     1.0000   1.0000   1.0000   1.0000   1.0000   1.0000   1.0000   1.0000
     1.0000   1.0000   1.0000   1.0000   1.0000   1.0000   1.0000   1.0000
     1.0000  -0.0000  -0.0000  -0.0000  -0.0000

          k =-1.4974 0.0000-0.1354 (  6632 PWs)   bands (ev):

   -49.8303 -26.0488 -25.8231 -25.7730 -12.3215  -9.1638  -8.9114   1.1793
     1.5883   2.0928   2.6131   2.9417   3.5751   3.6317   3.7942   3.8934
     6.8453   6.9369   7.1164   8.7548   9.9383

     occupation numbers 
     1.0000   1.0000   1.0000   1.0000   1.0000   1.0000   1.0000   1.0000
     1.0000   1.0000   1.0000   1.0000   1.0000   1.0000   1.0000   1.0000
     0.3541   0.0281  -0.0131  -0.0000  -0.0000

          k = 0.0000 1.0733-0.0677 (  6617 PWs)   bands (ev):

   -49.8347 -26.2148 -25.7864 -25.7096 -11.2244  -9.2099  -9.0291  -0.1437
     1.0091   1.2562   2.3748   2.5593   2.6598   2.8992   3.8345   4.2940
     5.6496   8.9093   9.2205   9.3591  10.9464

     occupation numbers 
     1.0000   1.0000   1.0000   1.0000   1.0000   1.0000   1.0000   1.0000
     1.0000   1.0000   1.0000   1.0000   1.0000   1.0000   1.0000   1.0000
     1.0000  -0.0000  -0.0000  -0.0000  -0.0000

          k =-1.7470-0.4293-0.0677 (  6638 PWs)   bands (ev):

   -49.8338 -26.1479 -25.7832 -25.7436 -11.7247  -9.1566  -9.0550   1.0305
     1.4393   1.6985   1.9092   2.4783   2.9700   3.2266   3.3333   4.3022
     6.1056   8.3568   8.4105   8.8200  10.9399

     occupation numbers 
     1.0000   1.0000   1.0000   1.0000   1.0000   1.0000   1.0000   1.0000
     1.0000   1.0000   1.0000   1.0000   1.0000   1.0000   1.0000   1.0000
     1.0000  -0.0000  -0.0000  -0.0000  -0.0000

          k =-1.4974-0.2147-0.0677 (  6645 PWs)   bands (ev):

   -49.8298 -26.0762 -25.8221 -25.7721 -12.1440  -9.1331  -8.9180   1.2179
     1.5289   1.9767   2.4431   2.5418   3.1164   3.3106   3.7195   4.1289
     6.9705   7.2425   7.4578   8.7379  10.3137

     occupation numbers 
     1.0000   1.0000   1.0000   1.0000   1.0000   1.0000   1.0000   1.0000
     1.0000   1.0000   1.0000   1.0000   1.0000   1.0000   1.0000   1.0000
    -0.0180  -0.0007  -0.0000  -0.0000  -0.0000

          k =-1.2479 0.0000-0.0677 (  6628 PWs)   bands (ev):

   -49.8251 -26.0427 -25.8984 -25.7594 -12.2806  -9.0634  -8.7851   0.8988
     1.0390   2.0155   2.3843   3.1011   3.5629   3.6457   3.8261   3.9028
     6.7079   6.7587   7.9329   9.2098   9.7308

     occupation numbers 
     1.0000   1.0000   1.0000   1.0000   1.0000   1.0000   1.0000   1.0000
     1.0000   1.0000   1.0000   1.0000   1.0000   1.0000   1.0000   1.0000
     0.9475   0.7808  -0.0000  -0.0000  -0.0000

          k = 0.0000 0.8586 0.0000 (  6605 PWs)   bands (ev):

   -49.8342 -26.2410 -25.7854 -25.7087 -10.9884  -9.2653  -8.9445  -0.6331
     0.8425   1.0099   2.4339   2.6323   2.7292   2.7872   3.8950   4.1802
     5.6568   8.8504   9.5936   9.6981  10.8768

     occupation numbers 
     1.0000   1.0000   1.0000   1.0000   1.0000   1.0000   1.0000   1.0000
     1.0000   1.0000   1.0000   1.0000   1.0000   1.0000   1.0000   1.0000
     1.0000  -0.0000  -0.0000  -0.0000  -0.0000

          k = 0.2496 1.0733 0.0000 (  6634 PWs)   bands (ev):

   -49.8326 -26.2119 -25.7808 -25.7414 -11.2096  -9.1256  -9.0262  -0.1319
     1.1472   1.3070   2.0030   2.1437   3.0161   3.1076   3.2357   4.2039
     6.1195   8.7586   9.2432   9.2525  11.1936

     occupation numbers 
     1.0000   1.0000   1.0000   1.0000   1.0000   1.0000   1.0000   1.0000
     1.0000   1.0000   1.0000   1.0000   1.0000   1.0000   1.0000   1.0000
     1.0000  -0.0000  -0.0000  -0.0000  -0.0000

          k =-1.4974-0.4293 0.0000 (  6639 PWs)   bands (ev):

   -49.8286 -26.1412 -25.8197 -25.7697 -11.6861  -9.0689  -8.9233   1.0818
     1.2654   1.5912   1.7570   2.0209   2.7054   3.1186   3.5654   4.0744
     6.9862   8.1587   8.2844   8.8083  10.9230

     occupation numbers 
     1.0000   1.0000   1.0000   1.0000   1.0000   1.0000   1.0000   1.0000
     1.0000   1.0000   1.0000   1.0000   1.0000   1.0000   1.0000   1.0000
    -0.0287  -0.0000  -0.0000  -0.0000  -0.0000

          k =-1.2479-0.2147 0.0000 (  6625 PWs)   bands (ev):

   -49.8247 -26.0699 -25.8973 -25.7584 -12.1037  -9.0483  -8.7759   0.9291
     1.0544   1.7826   2.3462   2.6344   3.0588   3.4136   3.8263   3.9413
     7.0626   7.2160   7.9494   9.2154  10.1084

     occupation numbers 
     1.0000   1.0000   1.0000   1.0000   1.0000   1.0000   1.0000   1.0000
     1.0000   1.0000   1.0000   1.0000   1.0000   1.0000   1.0000   1.0000
    -0.0274  -0.0015  -0.0000  -0.0000  -0.0000

          k =-0.9983 0.0000 0.0000 (  6661 PWs)   bands (ev):

   -49.8230 -26.0402 -25.9293 -25.7537 -12.2637  -8.9792  -8.7799   0.7014
     1.2091   1.9211   2.1007   3.3073   3.4089   3.5347   3.7189   3.9214
     6.6184   6.7314   8.4282   9.7654   9.7842

     occupation numbers 
     1.0000   1.0000   1.0000   1.0000   1.0000   1.0000   1.0000   1.0000
     1.0000   1.0000   1.0000   1.0000   1.0000   1.0000   1.0000   1.0000
     1.0354   0.8823  -0.0000  -0.0000  -0.0000

          k = 0.0000 0.0000 0.4061 (  6600 PWs)   bands (ev):

   -49.8376 -26.0574 -25.7923 -25.7147 -12.3793  -9.3306  -9.0522   1.2351
     2.3123   2.6333   2.7883   3.3070   3.3477   3.4005   3.8797   4.0897
     5.5571   7.2164   7.5272   8.9479   9.8689

     occupation numbers 
     1.0000   1.0000   1.0000   1.0000   1.0000   1.0000   1.0000   1.0000
     1.0000   1.0000   1.0000   1.0000   1.0000   1.0000   1.0000   1.0000
     1.0000  -0.0015  -0.0000  -0.0000  -0.0000

          k =-1.9966-0.2147-0.0677 (  6618 PWs)   bands (ev):

   -49.8371 -26.0850 -25.7913 -25.7138 -12.2009  -9.2538  -9.1081   1.3485
     2.1535   2.4060   2.4884   2.6640   3.2219   3.3864   3.9221   4.0879
     5.5757   7.6396   7.7658   8.9778  10.3075

     occupation numbers 
     1.0000   1.0000   1.0000   1.0000   1.0000   1.0000   1.0000   1.0000
     1.0000   1.0000   1.0000   1.0000   1.0000   1.0000   1.0000   1.0000
     1.0000  -0.0000  -0.0000  -0.0000  -0.0000

          k =-1.7470 0.0000-0.0677 (  6620 PWs)   bands (ev):

   -49.8355 -26.0549 -25.7867 -25.7467 -12.3622  -9.2388  -9.0585   1.4425
     1.8090   2.6748   2.8213   2.8631   3.4422   3.6520   3.8015   3.8412
     6.0745   7.0792   7.4312   8.7526   9.9698

     occupation numbers 
     1.0000   1.0000   1.0000   1.0000   1.0000   1.0000   1.0000   1.0000
     1.0000   1.0000   1.0000   1.0000   1.0000   1.0000   1.0000   1.0000
     1.0000  -0.0227  -0.0000  -0.0000  -0.0000

          k = 0.0000 1.2879 0.0000 (  6614 PWs)   bands (ev):

   -49.8359 -26.1507 -25.7888 -25.7117 -11.7406  -9.1607  -9.1408   1.0013
     1.4271   1.6429   2.2656   2.6740   2.8883   2.9765   3.8033   4.3640
     5.6166   8.4301   8.5334   8.9621  10.8176

     occupation numbers 
     1.0000   1.0000   1.0000   1.0000   1.0000   1.0000   1.0000   1.0000
     1.0000   1.0000   1.0000   1.0000   1.0000   1.0000   1.0000   1.0000
     1.0000  -0.0000  -0.0000  -0.0000  -0.0000

          k =-1.7470-0.2147 0.0000 (  6631 PWs)   bands (ev):

   -49.8350 -26.0824 -25.7857 -25.7458 -12.1842  -9.1928  -9.0805   1.5049
     1.7149   2.4005   2.4208   2.7825   3.0767   3.3558   3.6577   4.1443
     6.0890   7.5039   7.6755   8.7762  10.3822

     occupation numbers 
     1.0000   1.0000   1.0000   1.0000   1.0000   1.0000   1.0000   1.0000
     1.0000   1.0000   1.0000   1.0000   1.0000   1.0000   1.0000   1.0000
     1.0000  -0.0000  -0.0000  -0.0000  -0.0000

          k =-1.4974 0.0000 0.0000 (  6619 PWs)   bands (ev):

   -49.8303 -26.0488 -25.8230 -25.7730 -12.3213  -9.1531  -8.9224   1.2014
     1.4986   2.1188   2.6295   2.9268   3.6744   3.6844   3.7052   3.9034
     6.8290   6.9752   7.1178   8.6872   9.8938

     occupation numbers 
     1.0000   1.0000   1.0000   1.0000   1.0000   1.0000   1.0000   1.0000
     1.0000   1.0000   1.0000   1.0000   1.0000   1.0000   1.0000   1.0000
     0.4363  -0.0218  -0.0128  -0.0000  -0.0000

          k =-1.9966-1.7173-0.5415 (  6606 PWs)   bands (ev):

   -49.8376 -26.0574 -25.7923 -25.7147 -12.3790  -9.2445  -9.1444   1.4567
     2.0956   2.6720   2.7811   3.3164   3.3487   3.3828   3.7945   4.0604
     5.5575   7.2166   7.5558   8.9993   9.9348

     occupation numbers 
     1.0000   1.0000   1.0000   1.0000   1.0000   1.0000   1.0000   1.0000
     1.0000   1.0000   1.0000   1.0000   1.0000   1.0000   1.0000   1.0000
     1.0000  -0.0014  -0.0000  -0.0000  -0.0000

     the Fermi energy is     6.8167 ev

!    total energy              =    -534.96542299 Ry

     total all-electron energy =     -9636.855666 Ry
     estimated scf accuracy    <          5.6E-11 Ry
     smearing contrib. (-TS)   =      -0.00023005 Ry
     internal energy E=F+TS    =    -534.96519294 Ry

     The total energy is F=E-TS. E is the sum of the following terms:
     one-electron contribution =     -93.95386792 Ry
     hartree contribution      =      61.22325253 Ry
     xc contribution           =     -39.53494842 Ry
     ewald contribution        =    -135.48921389 Ry
     one-center paw contrib.   =    -327.21041524 Ry
      -> PAW hartree energy AE =      29.07246745 Ry
      -> PAW hartree energy PS =     -29.04240178 Ry
      -> PAW xc energy AE      =     -17.03537044 Ry
      -> PAW xc energy PS      =       7.41119326 Ry
      -> total E_H with PAW    =      61.25331819 Ry
      -> total E_XC with PAW   =     -49.15912560 Ry

     convergence has been achieved in  12 iterations

     Forces acting on atoms (cartesian axes, Ry/au):

     atom    1 type  1   force =     0.00000000    0.00000000    0.00000000
     atom    2 type  2   force =     0.00000000    0.00000000    0.03657236
     atom    3 type  2   force =     0.00000000    0.00000000   -0.03657236
     atom    4 type  3   force =     0.00000000    0.00000000    0.00000000
     The non-local contrib.  to forces
     atom    1 type  1   force =     0.00000000    0.00000000    0.00000000
     atom    2 type  2   force =    -0.00000000   -0.00000000    0.06849912
     atom    3 type  2   force =     0.00000000    0.00000000   -0.06849912
     atom    4 type  3   force =     0.00000000    0.00000000    0.00000000
     The ionic contribution  to forces
     atom    1 type  1   force =    -0.00000000   -0.00000000    0.00000000
     atom    2 type  2   force =     0.00000001    0.00000000  -10.07462875
     atom    3 type  2   force =    -0.00000001   -0.00000000   10.07462875
     atom    4 type  3   force =    -0.00000000   -0.00000000    0.00000000
     The local contribution  to forces
     atom    1 type  1   force =     0.00000000    0.00000000    0.00000000
     atom    2 type  2   force =     0.00000002   -0.00000003   10.04125456
     atom    3 type  2   force =    -0.00000002    0.00000003  -10.04125456
     atom    4 type  3   force =     0.00000000    0.00000000    0.00000000
     The core correction contribution to forces
     atom    1 type  1   force =     0.00000000    0.00000000    0.00000000
     atom    2 type  2   force =    -0.00000000    0.00000000    0.00144464
     atom    3 type  2   force =     0.00000000   -0.00000000   -0.00144464
     atom    4 type  3   force =     0.00000000    0.00000000    0.00000000
     The Hubbard contrib.    to forces
     atom    1 type  1   force =     0.00000000    0.00000000    0.00000000
     atom    2 type  2   force =     0.00000000    0.00000000    0.00000000
     atom    3 type  2   force =     0.00000000    0.00000000    0.00000000
     atom    4 type  3   force =     0.00000000    0.00000000    0.00000000
     The SCF correction term to forces
     atom    1 type  1   force =     0.00000000    0.00000000   -0.00000000
     atom    2 type  2   force =    -0.00000000    0.00000000    0.00000279
     atom    3 type  2   force =     0.00000000   -0.00000000   -0.00000279
     atom    4 type  3   force =     0.00000000    0.00000000    0.00000000

     Total force =     0.051721     Total SCF correction =     0.000004


     Computing stress (Cartesian axis) and pressure

          total   stress  (Ry/bohr**3)                   (kbar)     P=      -39.32
  -0.00026379  -0.00000000  -0.00000000          -38.81       -0.00       -0.00
  -0.00000000  -0.00026381  -0.00000000           -0.00      -38.81       -0.00
  -0.00000000  -0.00000000  -0.00027431           -0.00       -0.00      -40.35

     kinetic stress (kbar)  14745.67     -0.00      0.00
                               -0.00  14843.13      0.00
                               -0.00     -0.00  14759.30

     local   stress (kbar) -18881.87      0.00      0.00
                                0.00 -24245.89      0.00
                                0.00      0.00   4120.48

     nonloc. stress (kbar)   8011.87     -0.00      0.00
                                0.00   7932.02      0.00
                                0.00      0.00   8006.37

     hartree stress (kbar)   8371.02      0.00      0.00
                                0.00  10123.90      0.00
                                0.00      0.00  -2058.09

     exc-cor stress (kbar)  -1131.03      0.00     -0.00
                                0.00  -1121.17     -0.00
                               -0.00     -0.00  -1130.52

     corecor stress (kbar)  -2029.33     -0.00      0.00
                               -0.00  -2029.36      0.00
                                0.00      0.00  -2029.19

     ewald   stress (kbar)  -9125.13     -0.00     -0.00
                               -0.00  -5541.44     -0.00
                               -0.00     -0.00 -21708.70

     hubbard stress (kbar)      0.00      0.00      0.00
                                0.00      0.00      0.00
                                0.00      0.00      0.00

     DFT-D   stress (kbar)      0.00      0.00      0.00
                                0.00      0.00      0.00
                                0.00      0.00      0.00

     XDM     stress (kbar)      0.00      0.00      0.00
                                0.00      0.00      0.00
                                0.00      0.00      0.00

     dft-nl  stress (kbar)      0.00      0.00      0.00
                                0.00      0.00      0.00
                                0.00      0.00      0.00

     TS-vdW  stress (kbar)      0.00      0.00      0.00
                                0.00      0.00      0.00
                                0.00      0.00      0.00



     Writing output data file /zfs_data/gutierre/Scratch/Cl2NbO/convergence/cutoff/8x8x8/80/tmp/Cl2NbO.save/
 
     init_run     :      2.36s CPU      2.51s WALL (       1 calls)
     electrons    :     53.94s CPU     55.09s WALL (       1 calls)
     forces       :      0.44s CPU      0.45s WALL (       1 calls)
     stress       :      0.98s CPU      0.99s WALL (       1 calls)

     Called by init_run:
     wfcinit      :      1.70s CPU      1.75s WALL (       1 calls)
     wfcinit:atom :      0.01s CPU      0.01s WALL (      95 calls)
     wfcinit:wfcr :      1.66s CPU      1.70s WALL (      95 calls)
     potinit      :      0.24s CPU      0.31s WALL (       1 calls)
     hinit0       :      0.28s CPU      0.29s WALL (       1 calls)

     Called by electrons:
     c_bands      :     42.91s CPU     43.83s WALL (      12 calls)
     sum_band     :      9.17s CPU      9.34s WALL (      12 calls)
     v_of_rho     :      0.61s CPU      0.63s WALL (      13 calls)
     v_h          :      0.05s CPU      0.05s WALL (      13 calls)
     v_xc         :      0.65s CPU      0.67s WALL (      15 calls)
     newd         :      0.54s CPU      0.55s WALL (      13 calls)
     PAW_pot      :      0.67s CPU      0.69s WALL (      13 calls)
     mix_rho      :      0.09s CPU      0.09s WALL (      12 calls)

     Called by c_bands:
     init_us_2    :      0.34s CPU      0.36s WALL (    2565 calls)
     cegterg      :     42.08s CPU     42.94s WALL (    1140 calls)

     Called by sum_band:
     sum_band:wei :      0.04s CPU      0.04s WALL (      12 calls)
     sum_band:loo :      8.52s CPU      8.67s WALL (      12 calls)
     sum_band:buf :      0.03s CPU      0.03s WALL (    1140 calls)
     sum_band:ini :      0.16s CPU      0.16s WALL (    1140 calls)
     sum_band:cal :      0.16s CPU      0.16s WALL (    1140 calls)
     sum_band:bec :      0.03s CPU      0.03s WALL (    1140 calls)
     addusdens    :      0.52s CPU      0.54s WALL (      12 calls)
     addusd:skk   :      0.00s CPU      0.00s WALL (      36 calls)
     addusd:dgemm :      0.13s CPU      0.15s WALL (      36 calls)
     addusd:qvan2 :      0.35s CPU      0.35s WALL (      36 calls)

     Called by *egterg:
     cdiaghg      :      2.41s CPU      2.46s WALL (    4164 calls)
     cegterg:over :      0.46s CPU      0.48s WALL (    3024 calls)
     cegterg:upda :      0.15s CPU      0.15s WALL (    3024 calls)
     cegterg:last :      0.22s CPU      0.23s WALL (    2228 calls)
     h_psi        :     39.76s CPU     40.58s WALL (    4259 calls)
     s_psi        :      0.17s CPU      0.17s WALL (    4259 calls)
     g_psi        :      0.03s CPU      0.03s WALL (    3024 calls)

     Called by h_psi:
     h_psi:calbec :      0.56s CPU      0.57s WALL (    4259 calls)
     vloc_psi     :     38.84s CPU     39.64s WALL (    4259 calls)
     add_vuspsi   :      0.26s CPU      0.27s WALL (    4259 calls)

     General routines
     calbec       :      0.73s CPU      0.75s WALL (    5874 calls)
     fft          :      0.51s CPU      0.52s WALL (     192 calls)
     ffts         :      0.03s CPU      0.08s WALL (      25 calls)
     fftw         :     44.09s CPU     45.01s WALL (  145576 calls)
     interpolate  :      0.06s CPU      0.11s WALL (      13 calls)
 
     Parallel routines
     fft_scatt_xy :      3.74s CPU      3.78s WALL (  145793 calls)
     fft_scatt_yz :     14.73s CPU     15.03s WALL (  145793 calls)

     PAW routines
     PAW_pot      :      0.67s CPU      0.69s WALL (      13 calls)
     PAW_symme    :      0.02s CPU      0.02s WALL (      25 calls)
 
     PWSCF        :     58.52s CPU   1m 0.49s WALL

 
   This run was terminated on:  15:55: 6  18May2022            

=------------------------------------------------------------------------------=
   JOB DONE.
=------------------------------------------------------------------------------=
