MPI startup(): Warning: I_MPI_PMI_LIBRARY will be ignored since the hydra process manager was found
MPI startup(): Warning: I_MPI_PMI_LIBRARY will be ignored since the hydra process manager was found
MPI startup(): Warning: I_MPI_PMI_LIBRARY will be ignored since the hydra process manager was found
MPI startup(): Warning: I_MPI_PMI_LIBRARY will be ignored since the hydra process manager was found
MPI startup(): Warning: I_MPI_PMI_LIBRARY will be ignored since the hydra process manager was found
MPI startup(): Warning: I_MPI_PMI_LIBRARY will be ignored since the hydra process manager was found
MPI startup(): Warning: I_MPI_PMI_LIBRARY will be ignored since the hydra process manager was found
MPI startup(): Warning: I_MPI_PMI_LIBRARY will be ignored since the hydra process manager was found
MPI startup(): Warning: I_MPI_PMI_LIBRARY will be ignored since the hydra process manager was found
MPI startup(): Warning: I_MPI_PMI_LIBRARY will be ignored since the hydra process manager was found
MPI startup(): Warning: I_MPI_PMI_LIBRARY will be ignored since the hydra process manager was found
MPI startup(): Warning: I_MPI_PMI_LIBRARY will be ignored since the hydra process manager was found
MPI startup(): Warning: I_MPI_PMI_LIBRARY will be ignored since the hydra process manager was found
MPI startup(): Warning: I_MPI_PMI_LIBRARY will be ignored since the hydra process manager was found
MPI startup(): Warning: I_MPI_PMI_LIBRARY will be ignored since the hydra process manager was found
MPI startup(): Warning: I_MPI_PMI_LIBRARY will be ignored since the hydra process manager was found
MPI startup(): Warning: I_MPI_PMI_LIBRARY will be ignored since the hydra process manager was found
MPI startup(): Warning: I_MPI_PMI_LIBRARY will be ignored since the hydra process manager was found
MPI startup(): Warning: I_MPI_PMI_LIBRARY will be ignored since the hydra process manager was found
MPI startup(): Warning: I_MPI_PMI_LIBRARY will be ignored since the hydra process manager was found
MPI startup(): Warning: I_MPI_PMI_LIBRARY will be ignored since the hydra process manager was found
MPI startup(): Warning: I_MPI_PMI_LIBRARY will be ignored since the hydra process manager was found
MPI startup(): Warning: I_MPI_PMI_LIBRARY will be ignored since the hydra process manager was found
MPI startup(): Warning: I_MPI_PMI_LIBRARY will be ignored since the hydra process manager was found

     Program PWSCF v.6.7MaX starts on 30Jul2021 at 19: 3: 1 

     This program is part of the open-source Quantum ESPRESSO suite
     for quantum simulation of materials; please cite
         "P. Giannozzi et al., J. Phys.:Condens. Matter 21 395502 (2009);
         "P. Giannozzi et al., J. Phys.:Condens. Matter 29 465901 (2017);
          URL http://www.quantum-espresso.org", 
     in publications or presentations arising from this work. More details at
     http://www.quantum-espresso.org/quote

     Parallel version (MPI), running on    24 processors

     MPI processes distributed on     1 nodes
     R & G space division:  proc/nbgrp/npool/nimage =      24
     Waiting for input...
     Reading input from standard input

     Current dimensions of program PWSCF are:
     Max number of different atomic species (ntypx) = 10
     Max number of k-points (npk) =  40000
     Max angular momentum in pseudopotentials (lmaxx) =  3
     file Cr.rel-pbe-spn-kjpaw_psl.1.0.0.UPF: wavefunction(s)  3S 3P 3P 3D 3D renormalized
     file Si.rel-pbe-n-kjpaw_psl.1.0.0.UPF: wavefunction(s)  3S 3P 3P renormalized

     Subspace diagonalization in iterative solution of the eigenvalue problem:
     a serial algorithm will be used

     Message from routine setup:
     using ibrav=0 with symmetry is DISCOURAGED, use correct ibrav instead
 
     Parallelization info
     --------------------
     sticks:   dense  smooth     PW     G-vecs:    dense   smooth      PW
     Min         203      80     23                10671     2688     409
     Max         204      81     24                10674     2693     414
     Sum        4873    1941    553               256119    64589    9843
 


     bravais-lattice index     =            0
     lattice parameter (alat)  =       8.7475  a.u.
     unit-cell volume          =     669.3575 (a.u.)^3
     number of atoms/cell      =            8
     number of atomic types    =            2
     number of electrons       =        72.00
     number of Kohn-Sham states=           86
     kinetic-energy cutoff     =      80.0000  Ry
     charge density cutoff     =     800.0000  Ry
     scf convergence threshold =      1.0E-06
     mixing beta               =       0.7000
     number of iterations used =            8  plain     mixing
     Exchange-correlation= SLA  PW   PBX  PBC
                           (   1   4   3   4   0   0   0)
     Non magnetic calculation with spin-orbit


     celldm(1)=   8.747542  celldm(2)=   0.000000  celldm(3)=   0.000000
     celldm(4)=   0.000000  celldm(5)=   0.000000  celldm(6)=   0.000000

     crystal axes: (cart. coord. in units of alat)
               a(1) = (   1.000000   0.000000   0.000000 )  
               a(2) = (   0.000000   1.000000   0.000000 )  
               a(3) = (   0.000000   0.000000   1.000000 )  

     reciprocal axes: (cart. coord. in units 2 pi/alat)
               b(1) = (  1.000000  0.000000  0.000000 )  
               b(2) = (  0.000000  1.000000  0.000000 )  
               b(3) = (  0.000000  0.000000  1.000000 )  


     PseudoPot. # 1 for Cr read from file:
     ../../../../pseudo/Cr.rel-pbe-spn-kjpaw_psl.1.0.0.UPF
     MD5 check sum: 1e24e2b5251376a8b945118fca0c7981
     Pseudo is Projector augmented-wave + core cor, Zval = 14.0
     Generated using &quot;atomic&quot; code by A. Dal Corso  v.6.3
     Shape of augmentation charge: PSQ
     Using radial grid of 1183 points, 10 beta functions with: 
                l(1) =   0
                l(2) =   0
                l(3) =   1
                l(4) =   1
                l(5) =   1
                l(6) =   1
                l(7) =   2
                l(8) =   2
                l(9) =   2
               l(10) =   2
     Q(r) pseudized with 0 coefficients 


     PseudoPot. # 2 for Si read from file:
     ../../../../pseudo/Si.rel-pbe-n-kjpaw_psl.1.0.0.UPF
     MD5 check sum: d74f6caf6830ea4c2076867160cab1b0
     Pseudo is Projector augmented-wave + core cor, Zval =  4.0
     Generated using &quot;atomic&quot; code by A. Dal Corso  v.6.3
     Shape of augmentation charge: PSQ
     Using radial grid of 1141 points, 10 beta functions with: 
                l(1) =   0
                l(2) =   0
                l(3) =   1
                l(4) =   1
                l(5) =   1
                l(6) =   1
                l(7) =   2
                l(8) =   2
                l(9) =   2
               l(10) =   2
     Q(r) pseudized with 0 coefficients 


     atomic species   valence    mass     pseudopotential
        Cr            14.00    51.99600     Cr( 1.00)
        Si             4.00    28.08500     Si( 1.00)

     12 Sym. Ops. (no inversion) found ( 9 have fractional translation)


                                    s                        frac. trans.

      isym =  1     identity                                     

 cryst.   s( 1) = (     1          0          0      )
                  (     0          1          0      )
                  (     0          0          1      )

 cart.    s( 1) = (  1.0000000  0.0000000  0.0000000 )
                  (  0.0000000  1.0000000  0.0000000 )
                  (  0.0000000  0.0000000  1.0000000 )


      isym =  2     180 deg rotation - cart. axis [0,0,1]        

 cryst.   s( 2) = (    -1          0          0      )    f =(  0.5000000 )
                  (     0         -1          0      )       (  0.0000000 )
                  (     0          0          1      )       ( -0.5000000 )

 cart.    s( 2) = ( -1.0000000  0.0000000  0.0000000 )    f =(  0.5000000 )
                  (  0.0000000 -1.0000000  0.0000000 )       (  0.0000000 )
                  (  0.0000000  0.0000000  1.0000000 )       ( -0.5000000 )


      isym =  3     180 deg rotation - cart. axis [0,1,0]        

 cryst.   s( 3) = (    -1          0          0      )    f =(  0.0000000 )
                  (     0          1          0      )       ( -0.5000000 )
                  (     0          0         -1      )       (  0.5000000 )

 cart.    s( 3) = ( -1.0000000  0.0000000  0.0000000 )    f =(  0.0000000 )
                  (  0.0000000  1.0000000  0.0000000 )       ( -0.5000000 )
                  (  0.0000000  0.0000000 -1.0000000 )       (  0.5000000 )


      isym =  4     180 deg rotation - cart. axis [1,0,0]        

 cryst.   s( 4) = (     1          0          0      )    f =(  0.5000000 )
                  (     0         -1          0      )       (  0.5000000 )
                  (     0          0         -1      )       (  0.0000000 )

 cart.    s( 4) = (  1.0000000  0.0000000  0.0000000 )    f =(  0.5000000 )
                  (  0.0000000 -1.0000000  0.0000000 )       (  0.5000000 )
                  (  0.0000000  0.0000000 -1.0000000 )       (  0.0000000 )


      isym =  5     120 deg rotation - cart. axis [-1,-1,-1]     

 cryst.   s( 5) = (     0          0          1      )
                  (     1          0          0      )
                  (     0          1          0      )

 cart.    s( 5) = (  0.0000000  1.0000000  0.0000000 )
                  (  0.0000000  0.0000000  1.0000000 )
                  (  1.0000000  0.0000000  0.0000000 )


      isym =  6     120 deg rotation - cart. axis [-1,1,1]       

 cryst.   s( 6) = (     0          0         -1      )    f =(  0.0000000 )
                  (    -1          0          0      )       ( -0.5000000 )
                  (     0          1          0      )       (  0.5000000 )

 cart.    s( 6) = (  0.0000000 -1.0000000  0.0000000 )    f =(  0.0000000 )
                  (  0.0000000  0.0000000  1.0000000 )       ( -0.5000000 )
                  ( -1.0000000  0.0000000  0.0000000 )       (  0.5000000 )


      isym =  7     120 deg rotation - cart. axis [1,1,-1]       

 cryst.   s( 7) = (     0          0         -1      )    f =(  0.5000000 )
                  (     1          0          0      )       (  0.5000000 )
                  (     0         -1          0      )       (  0.0000000 )

 cart.    s( 7) = (  0.0000000  1.0000000  0.0000000 )    f =(  0.5000000 )
                  (  0.0000000  0.0000000 -1.0000000 )       (  0.5000000 )
                  ( -1.0000000  0.0000000  0.0000000 )       (  0.0000000 )


      isym =  8     120 deg rotation - cart. axis [1,-1,1]       

 cryst.   s( 8) = (     0          0          1      )    f =(  0.5000000 )
                  (    -1          0          0      )       (  0.0000000 )
                  (     0         -1          0      )       ( -0.5000000 )

 cart.    s( 8) = (  0.0000000 -1.0000000  0.0000000 )    f =(  0.5000000 )
                  (  0.0000000  0.0000000 -1.0000000 )       (  0.0000000 )
                  (  1.0000000  0.0000000  0.0000000 )       ( -0.5000000 )


      isym =  9     120 deg rotation - cart. axis [1,1,1]        

 cryst.   s( 9) = (     0          1          0      )
                  (     0          0          1      )
                  (     1          0          0      )

 cart.    s( 9) = (  0.0000000  0.0000000  1.0000000 )
                  (  1.0000000  0.0000000  0.0000000 )
                  (  0.0000000  1.0000000  0.0000000 )


      isym = 10     120 deg rotation - cart. axis [-1,1,-1]      

 cryst.   s(10) = (     0         -1          0      )    f =(  0.5000000 )
                  (     0          0         -1      )       (  0.5000000 )
                  (     1          0          0      )       (  0.0000000 )

 cart.    s(10) = (  0.0000000  0.0000000  1.0000000 )    f =(  0.5000000 )
                  ( -1.0000000  0.0000000  0.0000000 )       (  0.5000000 )
                  (  0.0000000 -1.0000000  0.0000000 )       (  0.0000000 )


      isym = 11     120 deg rotation - cart. axis [1,-1,-1]      

 cryst.   s(11) = (     0         -1          0      )    f =(  0.5000000 )
                  (     0          0          1      )       (  0.0000000 )
                  (    -1          0          0      )       ( -0.5000000 )

 cart.    s(11) = (  0.0000000  0.0000000 -1.0000000 )    f =(  0.5000000 )
                  ( -1.0000000  0.0000000  0.0000000 )       (  0.0000000 )
                  (  0.0000000  1.0000000  0.0000000 )       ( -0.5000000 )


      isym = 12     120 deg rotation - cart. axis [-1,-1,1]      

 cryst.   s(12) = (     0          1          0      )    f =(  0.0000000 )
                  (     0          0         -1      )       ( -0.5000000 )
                  (    -1          0          0      )       (  0.5000000 )

 cart.    s(12) = (  0.0000000  0.0000000 -1.0000000 )    f =(  0.0000000 )
                  (  1.0000000  0.0000000  0.0000000 )       ( -0.5000000 )
                  (  0.0000000 -1.0000000  0.0000000 )       (  0.5000000 )


   Cartesian axes

     site n.     atom                  positions (alat units)
         1           Cr  tau(   1) = (   0.8640000   0.3640000   0.1360000  )
         2           Cr  tau(   2) = (   0.3640000   0.1360000   0.8640000  )
         3           Cr  tau(   3) = (   0.1360000   0.8640000   0.3640000  )
         4           Cr  tau(   4) = (   0.6360000   0.6360000   0.6360000  )
         5           Si  tau(   5) = (   0.1540000   0.6540000   0.8460000  )
         6           Si  tau(   6) = (   0.6540000   0.8460000   0.1540000  )
         7           Si  tau(   7) = (   0.8460000   0.1540000   0.6540000  )
         8           Si  tau(   8) = (   0.3460000   0.3460000   0.3460000  )

   Crystallographic axes

     site n.     atom                  positions (cryst. coord.)
         1           Cr  tau(   1) = (  0.8640000  0.3640000  0.1360000  )
         2           Cr  tau(   2) = (  0.3640000  0.1360000  0.8640000  )
         3           Cr  tau(   3) = (  0.1360000  0.8640000  0.3640000  )
         4           Cr  tau(   4) = (  0.6360000  0.6360000  0.6360000  )
         5           Si  tau(   5) = (  0.1540000  0.6540000  0.8460000  )
         6           Si  tau(   6) = (  0.6540000  0.8460000  0.1540000  )
         7           Si  tau(   7) = (  0.8460000  0.1540000  0.6540000  )
         8           Si  tau(   8) = (  0.3460000  0.3460000  0.3460000  )

     number of k points=    45  Methfessel-Paxton smearing, width (Ry)=  0.0200
                       cart. coord. in units 2pi/alat
        k(    1) = (   0.0000000   0.0000000   0.0000000), wk =   0.0019531
        k(    2) = (   0.0000000   0.0000000   0.1250000), wk =   0.0117188
        k(    3) = (   0.0000000   0.0000000   0.2500000), wk =   0.0117188
        k(    4) = (   0.0000000   0.0000000   0.3750000), wk =   0.0117188
        k(    5) = (   0.0000000   0.0000000  -0.5000000), wk =   0.0058594
        k(    6) = (   0.0000000   0.1250000   0.1250000), wk =   0.0234375
        k(    7) = (   0.0000000   0.1250000   0.2500000), wk =   0.0234375
        k(    8) = (   0.0000000   0.1250000   0.3750000), wk =   0.0234375
        k(    9) = (   0.0000000   0.1250000  -0.5000000), wk =   0.0117188
        k(   10) = (   0.0000000   0.2500000   0.2500000), wk =   0.0234375
        k(   11) = (   0.0000000   0.2500000   0.3750000), wk =   0.0234375
        k(   12) = (   0.0000000   0.2500000  -0.5000000), wk =   0.0117188
        k(   13) = (   0.0000000   0.3750000   0.3750000), wk =   0.0234375
        k(   14) = (   0.0000000   0.3750000  -0.5000000), wk =   0.0117188
        k(   15) = (   0.0000000  -0.5000000  -0.5000000), wk =   0.0058594
        k(   16) = (   0.1250000   0.1250000   0.1250000), wk =   0.0156250
        k(   17) = (   0.1250000   0.1250000   0.2500000), wk =   0.0468750
        k(   18) = (   0.1250000   0.1250000   0.3750000), wk =   0.0468750
        k(   19) = (   0.1250000   0.1250000  -0.5000000), wk =   0.0234375
        k(   20) = (   0.1250000   0.2500000   0.2500000), wk =   0.0468750
        k(   21) = (   0.1250000   0.2500000   0.3750000), wk =   0.0468750
        k(   22) = (   0.1250000   0.2500000  -0.5000000), wk =   0.0234375
        k(   23) = (   0.1250000   0.3750000   0.3750000), wk =   0.0468750
        k(   24) = (   0.1250000   0.3750000  -0.5000000), wk =   0.0234375
        k(   25) = (   0.1250000  -0.5000000  -0.5000000), wk =   0.0117188
        k(   26) = (   0.2500000   0.2500000   0.2500000), wk =   0.0156250
        k(   27) = (   0.2500000   0.2500000   0.3750000), wk =   0.0468750
        k(   28) = (   0.2500000   0.2500000  -0.5000000), wk =   0.0234375
        k(   29) = (   0.2500000   0.3750000   0.3750000), wk =   0.0468750
        k(   30) = (   0.2500000   0.3750000  -0.5000000), wk =   0.0234375
        k(   31) = (   0.2500000  -0.5000000  -0.5000000), wk =   0.0117188
        k(   32) = (   0.3750000   0.3750000   0.3750000), wk =   0.0156250
        k(   33) = (   0.3750000   0.3750000  -0.5000000), wk =   0.0234375
        k(   34) = (   0.3750000  -0.5000000  -0.5000000), wk =   0.0117188
        k(   35) = (  -0.5000000  -0.5000000  -0.5000000), wk =   0.0019531
        k(   36) = (   0.0000000   0.2500000   0.1250000), wk =   0.0234375
        k(   37) = (   0.0000000   0.3750000   0.1250000), wk =   0.0234375
        k(   38) = (   0.0000000  -0.5000000   0.1250000), wk =   0.0117188
        k(   39) = (   0.0000000   0.3750000   0.2500000), wk =   0.0234375
        k(   40) = (   0.0000000  -0.5000000   0.2500000), wk =   0.0117188
        k(   41) = (   0.0000000  -0.5000000   0.3750000), wk =   0.0117188
        k(   42) = (  -0.1250000   0.3750000   0.2500000), wk =   0.0468750
        k(   43) = (  -0.1250000  -0.5000000   0.2500000), wk =   0.0234375
        k(   44) = (  -0.1250000  -0.5000000   0.3750000), wk =   0.0234375
        k(   45) = (  -0.2500000  -0.5000000   0.3750000), wk =   0.0234375

                       cryst. coord.
        k(    1) = (   0.0000000   0.0000000   0.0000000), wk =   0.0019531
        k(    2) = (   0.0000000   0.0000000   0.1250000), wk =   0.0117188
        k(    3) = (   0.0000000   0.0000000   0.2500000), wk =   0.0117188
        k(    4) = (   0.0000000   0.0000000   0.3750000), wk =   0.0117188
        k(    5) = (   0.0000000   0.0000000  -0.5000000), wk =   0.0058594
        k(    6) = (   0.0000000   0.1250000   0.1250000), wk =   0.0234375
        k(    7) = (   0.0000000   0.1250000   0.2500000), wk =   0.0234375
        k(    8) = (   0.0000000   0.1250000   0.3750000), wk =   0.0234375
        k(    9) = (   0.0000000   0.1250000  -0.5000000), wk =   0.0117188
        k(   10) = (   0.0000000   0.2500000   0.2500000), wk =   0.0234375
        k(   11) = (   0.0000000   0.2500000   0.3750000), wk =   0.0234375
        k(   12) = (   0.0000000   0.2500000  -0.5000000), wk =   0.0117188
        k(   13) = (   0.0000000   0.3750000   0.3750000), wk =   0.0234375
        k(   14) = (   0.0000000   0.3750000  -0.5000000), wk =   0.0117188
        k(   15) = (   0.0000000  -0.5000000  -0.5000000), wk =   0.0058594
        k(   16) = (   0.1250000   0.1250000   0.1250000), wk =   0.0156250
        k(   17) = (   0.1250000   0.1250000   0.2500000), wk =   0.0468750
        k(   18) = (   0.1250000   0.1250000   0.3750000), wk =   0.0468750
        k(   19) = (   0.1250000   0.1250000  -0.5000000), wk =   0.0234375
        k(   20) = (   0.1250000   0.2500000   0.2500000), wk =   0.0468750
        k(   21) = (   0.1250000   0.2500000   0.3750000), wk =   0.0468750
        k(   22) = (   0.1250000   0.2500000  -0.5000000), wk =   0.0234375
        k(   23) = (   0.1250000   0.3750000   0.3750000), wk =   0.0468750
        k(   24) = (   0.1250000   0.3750000  -0.5000000), wk =   0.0234375
        k(   25) = (   0.1250000  -0.5000000  -0.5000000), wk =   0.0117188
        k(   26) = (   0.2500000   0.2500000   0.2500000), wk =   0.0156250
        k(   27) = (   0.2500000   0.2500000   0.3750000), wk =   0.0468750
        k(   28) = (   0.2500000   0.2500000  -0.5000000), wk =   0.0234375
        k(   29) = (   0.2500000   0.3750000   0.3750000), wk =   0.0468750
        k(   30) = (   0.2500000   0.3750000  -0.5000000), wk =   0.0234375
        k(   31) = (   0.2500000  -0.5000000  -0.5000000), wk =   0.0117188
        k(   32) = (   0.3750000   0.3750000   0.3750000), wk =   0.0156250
        k(   33) = (   0.3750000   0.3750000  -0.5000000), wk =   0.0234375
        k(   34) = (   0.3750000  -0.5000000  -0.5000000), wk =   0.0117188
        k(   35) = (  -0.5000000  -0.5000000  -0.5000000), wk =   0.0019531
        k(   36) = (   0.0000000   0.2500000   0.1250000), wk =   0.0234375
        k(   37) = (   0.0000000   0.3750000   0.1250000), wk =   0.0234375
        k(   38) = (   0.0000000  -0.5000000   0.1250000), wk =   0.0117188
        k(   39) = (   0.0000000   0.3750000   0.2500000), wk =   0.0234375
        k(   40) = (   0.0000000  -0.5000000   0.2500000), wk =   0.0117188
        k(   41) = (   0.0000000  -0.5000000   0.3750000), wk =   0.0117188
        k(   42) = (  -0.1250000   0.3750000   0.2500000), wk =   0.0468750
        k(   43) = (  -0.1250000  -0.5000000   0.2500000), wk =   0.0234375
        k(   44) = (  -0.1250000  -0.5000000   0.3750000), wk =   0.0234375
        k(   45) = (  -0.2500000  -0.5000000   0.3750000), wk =   0.0234375

     Dense  grid:   256119 G-vectors     FFT dimensions: (  80,  80,  80)

     Smooth grid:    64589 G-vectors     FFT dimensions: (  50,  50,  50)

     Dynamical RAM for                 wfc:       0.88 MB

     Dynamical RAM for     wfc (w. buffer):      40.69 MB

     Dynamical RAM for           str. fact:       0.33 MB

     Dynamical RAM for           local pot:       0.00 MB

     Dynamical RAM for          nlocal pot:       1.40 MB

     Dynamical RAM for                qrad:      11.88 MB

     Dynamical RAM for          rho,v,vnew:       4.30 MB

     Dynamical RAM for               rhoin:       1.43 MB

     Dynamical RAM for            rho*nmix:      10.42 MB

     Dynamical RAM for           G-vectors:       0.63 MB

     Dynamical RAM for          h,s,v(r/c):       1.35 MB

     Dynamical RAM for          <psi|beta>:       0.71 MB

     Dynamical RAM for                 psi:       1.77 MB

     Dynamical RAM for                hpsi:       1.77 MB

     Dynamical RAM for                spsi:       1.77 MB

     Dynamical RAM for      wfcinit/wfcrot:       2.02 MB

     Dynamical RAM for           addusdens:      99.99 MB

     Estimated static dynamical RAM per process >      73.13 MB

     Estimated max dynamical RAM per process >     173.12 MB

     Estimated total dynamical RAM >       4.06 GB

     Initial potential from superposition of free atoms

     starting charge   71.99469, renormalised to   72.00000
     Starting wfcs are  112 randomized atomic wfcs
     Checking if some PAW data can be deallocated... 
       PAW data deallocated on   12 nodes for type:  1
       PAW data deallocated on   12 nodes for type:  2

     total cpu time spent up to now is        9.4 secs

     Self-consistent Calculation

     iteration #  1     ecut=    80.00 Ry     beta= 0.70
     Davidson diagonalization with overlap
     ethr =  1.00E-02,  avg # of iterations =  2.0

     Threshold (ethr) on eigenvalues was too large:
     Diagonalizing with lowered threshold

     Davidson diagonalization with overlap
     ethr =  2.09E-04,  avg # of iterations =  4.4

     total cpu time spent up to now is       46.1 secs

     total energy              =   -1180.30873030 Ry
     estimated scf accuracy    <       0.18903017 Ry

     iteration #  2     ecut=    80.00 Ry     beta= 0.70
     Davidson diagonalization with overlap
     ethr =  2.63E-04,  avg # of iterations =  3.2

     total cpu time spent up to now is       65.1 secs

     total energy              =   -1180.31357851 Ry
     estimated scf accuracy    <       0.08141502 Ry

     iteration #  3     ecut=    80.00 Ry     beta= 0.70
     Davidson diagonalization with overlap
     ethr =  1.13E-04,  avg # of iterations =  5.0

     total cpu time spent up to now is       88.2 secs

     total energy              =   -1180.32483826 Ry
     estimated scf accuracy    <       0.16260113 Ry

     iteration #  4     ecut=    80.00 Ry     beta= 0.70
     Davidson diagonalization with overlap
     ethr =  1.13E-04,  avg # of iterations =  4.1

     total cpu time spent up to now is      106.9 secs

     total energy              =   -1180.34874985 Ry
     estimated scf accuracy    <       0.00033310 Ry

     iteration #  5     ecut=    80.00 Ry     beta= 0.70
     Davidson diagonalization with overlap
     ethr =  4.63E-07,  avg # of iterations =  8.1

     total cpu time spent up to now is      135.7 secs

     total energy              =   -1180.34935893 Ry
     estimated scf accuracy    <       0.00031278 Ry

     iteration #  6     ecut=    80.00 Ry     beta= 0.70
     Davidson diagonalization with overlap
     ethr =  4.34E-07,  avg # of iterations =  2.8

     total cpu time spent up to now is      151.9 secs

     total energy              =   -1180.34940918 Ry
     estimated scf accuracy    <       0.00000407 Ry

     iteration #  7     ecut=    80.00 Ry     beta= 0.70
     Davidson diagonalization with overlap
     ethr =  5.66E-09,  avg # of iterations =  6.6

     total cpu time spent up to now is      177.7 secs

     total energy              =   -1180.34941214 Ry
     estimated scf accuracy    <       0.00003565 Ry

     iteration #  8     ecut=    80.00 Ry     beta= 0.70
     Davidson diagonalization with overlap
     ethr =  5.66E-09,  avg # of iterations =  5.1

     total cpu time spent up to now is      201.8 secs

     End of self-consistent calculation

          k = 0.0000 0.0000 0.0000 (  8217 PWs)   bands (ev):

   -56.5145 -56.5145 -56.4798 -56.4798 -56.4798 -56.4798 -56.4798 -56.4798
   -28.5804 -28.5804 -28.5729 -28.5729 -28.5729 -28.5729 -28.4836 -28.4836
   -27.6148 -27.6148 -27.6148 -27.6148 -27.5382 -27.5382 -27.5382 -27.5382
   -27.5333 -27.5333 -27.4509 -27.4509 -27.4507 -27.4507 -27.4507 -27.4507
     2.6985   2.6985   7.4569   7.4569   7.4569   7.4569   7.4660   7.4660
    10.5371  10.5371  10.5450  10.5450  10.5450  10.5450  11.9114  11.9114
    11.9114  11.9114  11.9225  11.9225  12.6026  12.6026  12.7722  12.7722
    12.7722  12.7722  13.1443  13.1443  13.1443  13.1443  13.1454  13.1454
    13.6723  13.6723  13.6723  13.6723  13.6761  13.6761  15.5523  15.5523
    15.5836  15.5836  15.5836  15.5836  15.7669  15.7669  15.7669  15.7669
    16.6657  16.6657  16.6960  16.6960  16.6960  16.6960

     occupation numbers 
     1.0000   1.0000   1.0000   1.0000   1.0000   1.0000   1.0000   1.0000
     1.0000   1.0000   1.0000   1.0000   1.0000   1.0000   1.0000   1.0000
     1.0000   1.0000   1.0000   1.0000   1.0000   1.0000   1.0000   1.0000
     1.0000   1.0000   1.0000   1.0000   1.0000   1.0000   1.0000   1.0000
     1.0000   1.0000   1.0000   1.0000   1.0000   1.0000   1.0000   1.0000
     1.0000   1.0000   1.0000   1.0000   1.0000   1.0000   1.0000   1.0000
     1.0000   1.0000   1.0000   1.0000   1.0000   1.0000   1.0000   1.0000
     1.0000   1.0000   1.0000   1.0000   1.0000   1.0000   1.0000   1.0000
     1.0000   1.0000   1.0000   1.0000   1.0000   1.0000  -0.0040  -0.0040
    -0.0026  -0.0026  -0.0026  -0.0026  -0.0001  -0.0001  -0.0001  -0.0001
    -0.0000  -0.0000  -0.0000  -0.0000  -0.0000  -0.0000

          k = 0.0000 0.0000 0.1250 (  8137 PWs)   bands (ev):

   -56.5135 -56.5135 -56.4839 -56.4839 -56.4795 -56.4795 -56.4771 -56.4771
   -28.5865 -28.5795 -28.5764 -28.5759 -28.5660 -28.5629 -28.4864 -28.4863
   -27.6280 -27.6215 -27.6054 -27.5990 -27.5473 -27.5438 -27.5403 -27.5326
   -27.5309 -27.5209 -27.4586 -27.4566 -27.4544 -27.4493 -27.4484 -27.4444
     2.8069   2.8069   6.7952   6.7985   7.5180   7.5194   7.9727   7.9814
    10.0752  10.0804  10.6134  10.6151  11.0392  11.0411  11.3201  11.3202
    11.6503  11.6541  12.5296  12.5362  12.5611  12.5794  12.7795  12.7867
    12.9232  12.9245  13.1146  13.1166  13.1792  13.1795  13.2100  13.2104
    13.5225  13.5301  13.6538  13.6553  13.9003  13.9005  15.3985  15.4167
    15.4455  15.4552  15.7238  15.7270  15.7402  15.7547  15.7667  15.7721
    16.4743  16.4913  16.6341  16.6390  16.8962  16.9167

     occupation numbers 
     1.0000   1.0000   1.0000   1.0000   1.0000   1.0000   1.0000   1.0000
     1.0000   1.0000   1.0000   1.0000   1.0000   1.0000   1.0000   1.0000
     1.0000   1.0000   1.0000   1.0000   1.0000   1.0000   1.0000   1.0000
     1.0000   1.0000   1.0000   1.0000   1.0000   1.0000   1.0000   1.0000
     1.0000   1.0000   1.0000   1.0000   1.0000   1.0000   1.0000   1.0000
     1.0000   1.0000   1.0000   1.0000   1.0000   1.0000   1.0000   1.0000
     1.0000   1.0000   1.0000   1.0000   1.0000   1.0000   1.0000   1.0000
     1.0000   1.0000   1.0000   1.0000   1.0000   1.0000   1.0000   1.0000
     1.0000   1.0000   1.0000   1.0000   1.0000   1.0000  -0.0217  -0.0187
    -0.0143  -0.0130  -0.0002  -0.0002  -0.0002  -0.0001  -0.0001  -0.0001
    -0.0000  -0.0000  -0.0000  -0.0000  -0.0000  -0.0000

          k = 0.0000 0.0000 0.2500 (  8069 PWs)   bands (ev):

   -56.5106 -56.5106 -56.4890 -56.4890 -56.4786 -56.4786 -56.4758 -56.4758
   -28.5899 -28.5830 -28.5797 -28.5773 -28.5533 -28.5503 -28.4945 -28.4943
   -27.6365 -27.6273 -27.5926 -27.5853 -27.5571 -27.5454 -27.5375 -27.5329
   -27.5273 -27.5065 -27.4687 -27.4625 -27.4603 -27.4501 -27.4479 -27.4413
     3.1271   3.1271   5.9918   5.9932   7.6895   7.6925   8.3702   8.3802
     9.7441   9.7455  10.7561  10.7613  10.8658  10.8745  11.1952  11.2025
    11.5685  11.5692  12.2655  12.2804  12.8663  12.8729  12.9124  12.9343
    13.1214  13.1253  13.1298  13.1349  13.2518  13.2524  13.2824  13.2864
    13.5443  13.5476  13.6982  13.7057  14.0469  14.0474  15.0733  15.1019
    15.3810  15.3815  15.6181  15.6333  15.7405  15.7648  15.8520  15.8760
    16.2858  16.3005  16.4937  16.5053  17.1874  17.2079

     occupation numbers 
     1.0000   1.0000   1.0000   1.0000   1.0000   1.0000   1.0000   1.0000
     1.0000   1.0000   1.0000   1.0000   1.0000   1.0000   1.0000   1.0000
     1.0000   1.0000   1.0000   1.0000   1.0000   1.0000   1.0000   1.0000
     1.0000   1.0000   1.0000   1.0000   1.0000   1.0000   1.0000   1.0000
     1.0000   1.0000   1.0000   1.0000   1.0000   1.0000   1.0000   1.0000
     1.0000   1.0000   1.0000   1.0000   1.0000   1.0000   1.0000   1.0000
     1.0000   1.0000   1.0000   1.0000   1.0000   1.0000   1.0000   1.0000
     1.0000   1.0000   1.0000   1.0000   1.0000   1.0000   1.0000   1.0000
     1.0000   1.0000   1.0000   1.0000   1.0000   1.0000   0.1675   0.1085
    -0.0246  -0.0245  -0.0015  -0.0012  -0.0002  -0.0001  -0.0000  -0.0000
    -0.0000  -0.0000  -0.0000  -0.0000  -0.0000  -0.0000

          k = 0.0000 0.0000 0.3750 (  8065 PWs)   bands (ev):

   -56.5062 -56.5062 -56.4948 -56.4948 -56.4774 -56.4774 -56.4756 -56.4756
   -28.5903 -28.5841 -28.5838 -28.5798 -28.5381 -28.5359 -28.5070 -28.5063
   -27.6396 -27.6333 -27.5795 -27.5745 -27.5657 -27.5423 -27.5417 -27.5290
   -27.5235 -27.4922 -27.4847 -27.4686 -27.4619 -27.4531 -27.4466 -27.4416
     3.6436   3.6437   5.1356   5.1361   7.9592   7.9638   8.5102   8.5191
     9.6769   9.6796  10.5121  10.5127  10.7723  10.7855  11.0298  11.0317
    12.0052  12.0075  12.1209  12.1356  12.7686  12.7840  12.9436  12.9565
    13.0799  13.0874  13.1865  13.1905  13.2461  13.2493  13.3257  13.3292
    13.5404  13.5408  13.9319  13.9363  14.2200  14.2335  14.8126  14.8476
    15.3580  15.3697  15.4979  15.5169  15.7547  15.7842  15.8470  15.8721
    16.1653  16.1812  16.3084  16.3224  17.3501  17.3614

     occupation numbers 
     1.0000   1.0000   1.0000   1.0000   1.0000   1.0000   1.0000   1.0000
     1.0000   1.0000   1.0000   1.0000   1.0000   1.0000   1.0000   1.0000
     1.0000   1.0000   1.0000   1.0000   1.0000   1.0000   1.0000   1.0000
     1.0000   1.0000   1.0000   1.0000   1.0000   1.0000   1.0000   1.0000
     1.0000   1.0000   1.0000   1.0000   1.0000   1.0000   1.0000   1.0000
     1.0000   1.0000   1.0000   1.0000   1.0000   1.0000   1.0000   1.0000
     1.0000   1.0000   1.0000   1.0000   1.0000   1.0000   1.0000   1.0000
     1.0000   1.0000   1.0000   1.0000   1.0000   1.0000   1.0000   1.0000
     1.0000   1.0000   1.0000   1.0000   1.0005   1.0006   0.8823   0.8066
    -0.0285  -0.0266  -0.0081  -0.0064  -0.0001  -0.0001  -0.0000  -0.0000
    -0.0000  -0.0000  -0.0000  -0.0000  -0.0000  -0.0000

          k = 0.0000 0.0000-0.5000 (  8008 PWs)   bands (ev):

   -56.5007 -56.5007 -56.5007 -56.5007 -56.4763 -56.4763 -56.4763 -56.4763
   -28.5880 -28.5880 -28.5823 -28.5823 -28.5221 -28.5221 -28.5206 -28.5206
   -27.6380 -27.6380 -27.5728 -27.5728 -27.5578 -27.5578 -27.5350 -27.5350
   -27.5039 -27.5039 -27.4792 -27.4792 -27.4576 -27.4576 -27.4440 -27.4440
     4.3285   4.3285   4.3287   4.3287   8.2826   8.2826   8.2890   8.2890
    10.0169  10.0169  10.0209  10.0209  10.8981  10.8981  10.9093  10.9093
    12.2474  12.2474  12.2540  12.2540  12.6857  12.6857  12.6981  12.6981
    13.1423  13.1423  13.1428  13.1428  13.2377  13.2377  13.2414  13.2414
    13.7830  13.7830  13.7861  13.7861  14.5655  14.5655  14.5941  14.5941
    15.4022  15.4022  15.4200  15.4200  15.8068  15.8068  15.8365  15.8365
    16.1662  16.1662  16.1799  16.1799  17.5420  17.5476

     occupation numbers 
     1.0000   1.0000   1.0000   1.0000   1.0000   1.0000   1.0000   1.0000
     1.0000   1.0000   1.0000   1.0000   1.0000   1.0000   1.0000   1.0000
     1.0000   1.0000   1.0000   1.0000   1.0000   1.0000   1.0000   1.0000
     1.0000   1.0000   1.0000   1.0000   1.0000   1.0000   1.0000   1.0000
     1.0000   1.0000   1.0000   1.0000   1.0000   1.0000   1.0000   1.0000
     1.0000   1.0000   1.0000   1.0000   1.0000   1.0000   1.0000   1.0000
     1.0000   1.0000   1.0000   1.0000   1.0000   1.0000   1.0000   1.0000
     1.0000   1.0000   1.0000   1.0000   1.0000   1.0000   1.0000   1.0000
     1.0000   1.0000   1.0000   1.0000   1.0306   1.0306   1.0341   1.0341
    -0.0211  -0.0211  -0.0181  -0.0181  -0.0000  -0.0000  -0.0000  -0.0000
    -0.0000  -0.0000  -0.0000  -0.0000  -0.0000  -0.0000

          k = 0.0000 0.1250 0.1250 (  8123 PWs)   bands (ev):

   -56.5126 -56.5126 -56.4853 -56.4853 -56.4798 -56.4798 -56.4763 -56.4763
   -28.5884 -28.5823 -28.5751 -28.5745 -28.5632 -28.5593 -28.4891 -28.4891
   -27.6298 -27.6260 -27.5984 -27.5944 -27.5498 -27.5455 -27.5426 -27.5369
   -27.5243 -27.5143 -27.4634 -27.4620 -27.4559 -27.4501 -27.4455 -27.4419
     2.9145   2.9145   6.6453   6.6502   7.3152   7.3192   8.2193   8.2252
     9.9476   9.9526  10.6669  10.6729  10.8540  10.8586  11.2390  11.2422
    11.8046  11.8057  12.4437  12.4548  12.5943  12.6021  12.9026  12.9088
    13.0103  13.0196  13.1613  13.1623  13.1664  13.1712  13.2680  13.2699
    13.4649  13.4712  13.6784  13.6898  13.9951  14.0005  15.3458  15.3581
    15.3935  15.4029  15.6254  15.6348  15.7253  15.7415  15.7943  15.8156
    16.3741  16.3923  16.6467  16.6541  16.9384  16.9678

     occupation numbers 
     1.0000   1.0000   1.0000   1.0000   1.0000   1.0000   1.0000   1.0000
     1.0000   1.0000   1.0000   1.0000   1.0000   1.0000   1.0000   1.0000
     1.0000   1.0000   1.0000   1.0000   1.0000   1.0000   1.0000   1.0000
     1.0000   1.0000   1.0000   1.0000   1.0000   1.0000   1.0000   1.0000
     1.0000   1.0000   1.0000   1.0000   1.0000   1.0000   1.0000   1.0000
     1.0000   1.0000   1.0000   1.0000   1.0000   1.0000   1.0000   1.0000
     1.0000   1.0000   1.0000   1.0000   1.0000   1.0000   1.0000   1.0000
     1.0000   1.0000   1.0000   1.0000   1.0000   1.0000   1.0000   1.0000
     1.0000   1.0000   1.0000   1.0000   1.0000   1.0000  -0.0304  -0.0284
    -0.0225  -0.0209  -0.0014  -0.0012  -0.0002  -0.0002  -0.0001  -0.0000
    -0.0000  -0.0000  -0.0000  -0.0000  -0.0000  -0.0000

          k = 0.0000 0.1250 0.2500 (  8094 PWs)   bands (ev):

   -56.5098 -56.5098 -56.4894 -56.4894 -56.4793 -56.4793 -56.4756 -56.4756
   -28.5902 -28.5843 -28.5770 -28.5757 -28.5529 -28.5497 -28.4970 -28.4969
   -27.6352 -27.6286 -27.5889 -27.5835 -27.5565 -27.5475 -27.5414 -27.5368
   -27.5219 -27.5020 -27.4753 -27.4670 -27.4604 -27.4525 -27.4431 -27.4385
     3.2322   3.2323   6.0265   6.0290   7.3761   7.3788   8.4795   8.4846
     9.7445   9.7460  10.4121  10.4159  10.8573  10.8582  11.4946  11.4999
    11.5882  11.5898  12.3110  12.3208  12.6386  12.6412  13.0351  13.0426
    13.0741  13.0855  13.2038  13.2099  13.2816  13.2829  13.3812  13.3853
    13.5208  13.5272  13.8051  13.8204  14.1011  14.1082  15.0893  15.1163
    15.2987  15.3137  15.5087  15.5233  15.6907  15.7127  15.8397  15.8652
    16.2240  16.2392  16.5277  16.5399  17.1522  17.1857

     occupation numbers 
     1.0000   1.0000   1.0000   1.0000   1.0000   1.0000   1.0000   1.0000
     1.0000   1.0000   1.0000   1.0000   1.0000   1.0000   1.0000   1.0000
     1.0000   1.0000   1.0000   1.0000   1.0000   1.0000   1.0000   1.0000
     1.0000   1.0000   1.0000   1.0000   1.0000   1.0000   1.0000   1.0000
     1.0000   1.0000   1.0000   1.0000   1.0000   1.0000   1.0000   1.0000
     1.0000   1.0000   1.0000   1.0000   1.0000   1.0000   1.0000   1.0000
     1.0000   1.0000   1.0000   1.0000   1.0000   1.0000   1.0000   1.0000
     1.0000   1.0000   1.0000   1.0000   1.0000   1.0000   1.0000   1.0000
     1.0000   1.0000   1.0000   1.0000   1.0000   1.0000   0.1331   0.0830
    -0.0352  -0.0343  -0.0071  -0.0059  -0.0004  -0.0003  -0.0000  -0.0000
    -0.0000  -0.0000  -0.0000  -0.0000  -0.0000  -0.0000

          k = 0.0000 0.1250 0.3750 (  8083 PWs)   bands (ev):

   -56.5055 -56.5055 -56.4946 -56.4946 -56.4781 -56.4781 -56.4758 -56.4758
   -28.5895 -28.5845 -28.5810 -28.5783 -28.5389 -28.5367 -28.5090 -28.5085
   -27.6373 -27.6320 -27.5791 -27.5729 -27.5650 -27.5471 -27.5413 -27.5292
   -27.5243 -27.4924 -27.4875 -27.4701 -27.4636 -27.4568 -27.4411 -27.4377
     3.7445   3.7447   5.2135   5.2146   7.6678   7.6697   8.4243   8.4280
     9.7360   9.7392  10.2159  10.2199  11.0146  11.0206  11.1797  11.1936
    11.8667  11.8720  12.1816  12.1912  12.6392  12.6458  12.8673  12.8772
    13.0660  13.0723  13.2719  13.2766  13.3353  13.3373  13.4479  13.4508
    13.6022  13.6091  13.9682  13.9750  14.2907  14.3078  14.8249  14.8586
    15.2804  15.2963  15.3809  15.3934  15.6946  15.7208  15.8267  15.8561
    16.1476  16.1562  16.3592  16.3727  17.3043  17.3279

     occupation numbers 
     1.0000   1.0000   1.0000   1.0000   1.0000   1.0000   1.0000   1.0000
     1.0000   1.0000   1.0000   1.0000   1.0000   1.0000   1.0000   1.0000
     1.0000   1.0000   1.0000   1.0000   1.0000   1.0000   1.0000   1.0000
     1.0000   1.0000   1.0000   1.0000   1.0000   1.0000   1.0000   1.0000
     1.0000   1.0000   1.0000   1.0000   1.0000   1.0000   1.0000   1.0000
     1.0000   1.0000   1.0000   1.0000   1.0000   1.0000   1.0000   1.0000
     1.0000   1.0000   1.0000   1.0000   1.0000   1.0000   1.0000   1.0000
     1.0000   1.0000   1.0000   1.0000   1.0000   1.0000   1.0000   1.0000
     1.0000   1.0000   1.0000   1.0000   1.0015   1.0020   0.8575   0.7797
    -0.0353  -0.0353  -0.0247  -0.0225  -0.0004  -0.0003  -0.0000  -0.0000
    -0.0000  -0.0000  -0.0000  -0.0000  -0.0000  -0.0000

          k = 0.0000 0.1250-0.5000 (  8092 PWs)   bands (ev):

   -56.5003 -56.5003 -56.5003 -56.5003 -56.4767 -56.4767 -56.4767 -56.4767
   -28.5868 -28.5868 -28.5811 -28.5811 -28.5241 -28.5241 -28.5219 -28.5219
   -27.6357 -27.6357 -27.5725 -27.5725 -27.5586 -27.5586 -27.5347 -27.5347
   -27.5091 -27.5091 -27.4777 -27.4777 -27.4612 -27.4612 -27.4391 -27.4391
     4.4218   4.4218   4.4223   4.4223   8.0586   8.0586   8.0655   8.0655
     9.9960   9.9960  10.0003  10.0003  11.0365  11.0365  11.0507  11.0507
    12.1474  12.1474  12.1529  12.1529  12.5982  12.5982  12.6145  12.6145
    13.2275  13.2275  13.2300  13.2300  13.3332  13.3332  13.3345  13.3345
    13.8297  13.8297  13.8334  13.8334  14.5988  14.5988  14.6293  14.6293
    15.3035  15.3035  15.3194  15.3194  15.7579  15.7579  15.7876  15.7876
    16.2055  16.2055  16.2166  16.2166  17.5245  17.5258

     occupation numbers 
     1.0000   1.0000   1.0000   1.0000   1.0000   1.0000   1.0000   1.0000
     1.0000   1.0000   1.0000   1.0000   1.0000   1.0000   1.0000   1.0000
     1.0000   1.0000   1.0000   1.0000   1.0000   1.0000   1.0000   1.0000
     1.0000   1.0000   1.0000   1.0000   1.0000   1.0000   1.0000   1.0000
     1.0000   1.0000   1.0000   1.0000   1.0000   1.0000   1.0000   1.0000
     1.0000   1.0000   1.0000   1.0000   1.0000   1.0000   1.0000   1.0000
     1.0000   1.0000   1.0000   1.0000   1.0000   1.0000   1.0000   1.0000
     1.0000   1.0000   1.0000   1.0000   1.0000   1.0000   1.0000   1.0000
     1.0000   1.0000   1.0000   1.0000   1.0345   1.0345   1.0353   1.0353
    -0.0350  -0.0350  -0.0337  -0.0337  -0.0001  -0.0001  -0.0001  -0.0001
    -0.0000  -0.0000  -0.0000  -0.0000  -0.0000  -0.0000

          k = 0.0000 0.2500 0.2500 (  8118 PWs)   bands (ev):

   -56.5073 -56.5073 -56.4911 -56.4911 -56.4799 -56.4799 -56.4757 -56.4757
   -28.5896 -28.5845 -28.5748 -28.5740 -28.5494 -28.5461 -28.5043 -28.5039
   -27.6326 -27.6294 -27.5819 -27.5795 -27.5560 -27.5528 -27.5433 -27.5386
   -27.5185 -27.4963 -27.4853 -27.4749 -27.4659 -27.4488 -27.4391 -27.4351
     3.5425   3.5427   5.9651   5.9683   6.9411   6.9451   8.4364   8.4414
     9.7516   9.7548  10.1863  10.1915  10.9263  10.9288  11.3507  11.3518
    11.8599  11.8636  12.2864  12.2899  12.5059  12.5152  12.9044  12.9120
    13.1485  13.1578  13.2708  13.2802  13.4425  13.4439  13.5203  13.5295
    13.5710  13.5816  13.9849  13.9972  14.2200  14.2256  15.0465  15.0669
    15.1405  15.1652  15.2953  15.3068  15.6168  15.6419  15.7636  15.7924
    16.1600  16.1710  16.5125  16.5232  17.1856  17.2285

     occupation numbers 
     1.0000   1.0000   1.0000   1.0000   1.0000   1.0000   1.0000   1.0000
     1.0000   1.0000   1.0000   1.0000   1.0000   1.0000   1.0000   1.0000
     1.0000   1.0000   1.0000   1.0000   1.0000   1.0000   1.0000   1.0000
     1.0000   1.0000   1.0000   1.0000   1.0000   1.0000   1.0000   1.0000
     1.0000   1.0000   1.0000   1.0000   1.0000   1.0000   1.0000   1.0000
     1.0000   1.0000   1.0000   1.0000   1.0000   1.0000   1.0000   1.0000
     1.0000   1.0000   1.0000   1.0000   1.0000   1.0000   1.0000   1.0000
     1.0000   1.0000   1.0000   1.0000   1.0000   1.0000   1.0000   1.0000
     1.0000   1.0000   1.0000   1.0000   1.0005   1.0005   0.2322   0.1822
     0.0465   0.0172  -0.0354  -0.0348  -0.0016  -0.0010  -0.0001  -0.0001
    -0.0000  -0.0000  -0.0000  -0.0000  -0.0000  -0.0000

          k = 0.0000 0.2500 0.3750 (  8101 PWs)   bands (ev):

   -56.5035 -56.5035 -56.4946 -56.4946 -56.4793 -56.4793 -56.4766 -56.4766
   -28.5870 -28.5828 -28.5770 -28.5751 -28.5401 -28.5380 -28.5149 -28.5145
   -27.6308 -27.6280 -27.5805 -27.5734 -27.5612 -27.5508 -27.5407 -27.5325
   -27.5228 -27.5004 -27.4924 -27.4819 -27.4619 -27.4493 -27.4361 -27.4335
     4.0407   4.0411   5.4171   5.4189   7.0447   7.0479   8.0209   8.0243
     9.9169   9.9202  10.1871  10.1904  11.0286  11.0324  11.3805  11.3881
    11.8896  11.8915  12.0251  12.0293  12.4332  12.4442  12.6528  12.6627
    13.2356  13.2450  13.3302  13.3355  13.4397  13.4435  13.6541  13.6570
    13.7898  13.7933  14.0666  14.0762  14.4539  14.4792  14.8305  14.8574
    15.0725  15.0938  15.1486  15.1540  15.5778  15.6023  15.6806  15.7126
    16.2008  16.2078  16.4545  16.4649  17.1913  17.2202

     occupation numbers 
     1.0000   1.0000   1.0000   1.0000   1.0000   1.0000   1.0000   1.0000
     1.0000   1.0000   1.0000   1.0000   1.0000   1.0000   1.0000   1.0000
     1.0000   1.0000   1.0000   1.0000   1.0000   1.0000   1.0000   1.0000
     1.0000   1.0000   1.0000   1.0000   1.0000   1.0000   1.0000   1.0000
     1.0000   1.0000   1.0000   1.0000   1.0000   1.0000   1.0000   1.0000
     1.0000   1.0000   1.0000   1.0000   1.0000   1.0000   1.0000   1.0000
     1.0000   1.0000   1.0000   1.0000   1.0000   1.0000   1.0000   1.0000
     1.0000   1.0000   1.0000   1.0000   1.0000   1.0000   1.0000   1.0000
     1.0000   1.0000   1.0000   1.0000   1.0129   1.0165   0.8455   0.7826
     0.1694   0.1241   0.0360   0.0295  -0.0028  -0.0020  -0.0005  -0.0003
    -0.0000  -0.0000  -0.0000  -0.0000  -0.0000  -0.0000

          k = 0.0000 0.2500-0.5000 (  8098 PWs)   bands (ev):

   -56.4991 -56.4991 -56.4991 -56.4991 -56.4779 -56.4779 -56.4779 -56.4779
   -28.5831 -28.5831 -28.5779 -28.5779 -28.5287 -28.5287 -28.5256 -28.5256
   -27.6286 -27.6286 -27.5771 -27.5771 -27.5557 -27.5557 -27.5334 -27.5334
   -27.5165 -27.5165 -27.4881 -27.4881 -27.4544 -27.4544 -27.4340 -27.4340
     4.6915   4.6915   4.6925   4.6925   7.4836   7.4836   7.4897   7.4897
    10.1295  10.1295  10.1325  10.1325  11.2001  11.2001  11.2118  11.2118
    11.9554  11.9554  11.9574  11.9574  12.4188  12.4188  12.4313  12.4313
    13.3478  13.3478  13.3543  13.3543  13.5163  13.5163  13.5223  13.5223
    13.9873  13.9873  13.9929  13.9929  14.6543  14.6543  14.6849  14.6849
    15.0859  15.0859  15.0976  15.0976  15.6042  15.6042  15.6330  15.6330
    16.3331  16.3331  16.3441  16.3441  17.3605  17.3617

     occupation numbers 
     1.0000   1.0000   1.0000   1.0000   1.0000   1.0000   1.0000   1.0000
     1.0000   1.0000   1.0000   1.0000   1.0000   1.0000   1.0000   1.0000
     1.0000   1.0000   1.0000   1.0000   1.0000   1.0000   1.0000   1.0000
     1.0000   1.0000   1.0000   1.0000   1.0000   1.0000   1.0000   1.0000
     1.0000   1.0000   1.0000   1.0000   1.0000   1.0000   1.0000   1.0000
     1.0000   1.0000   1.0000   1.0000   1.0000   1.0000   1.0000   1.0000
     1.0000   1.0000   1.0000   1.0000   1.0000   1.0000   1.0000   1.0000
     1.0000   1.0000   1.0000   1.0000   1.0000   1.0000   1.0000   1.0000
     1.0000   1.0000   1.0000   1.0000   1.0328   1.0328   1.0243   1.0243
     0.1402   0.1402   0.1167   0.1167  -0.0019  -0.0019  -0.0012  -0.0012
    -0.0000  -0.0000  -0.0000  -0.0000  -0.0000  -0.0000

          k = 0.0000 0.3750 0.3750 (  8088 PWs)   bands (ev):

   -56.5007 -56.5007 -56.4955 -56.4955 -56.4799 -56.4799 -56.4779 -56.4779
   -28.5827 -28.5794 -28.5746 -28.5737 -28.5387 -28.5369 -28.5235 -28.5226
   -27.6224 -27.6220 -27.5861 -27.5819 -27.5531 -27.5475 -27.5360 -27.5337
   -27.5242 -27.5068 -27.5047 -27.4950 -27.4523 -27.4427 -27.4347 -27.4319
     4.5096   4.5102   5.5231   5.5247   6.5728   6.5749   7.4026   7.4056
    10.2464  10.2477  10.4518  10.4530  10.9117  10.9126  11.2396  11.2427
    11.7868  11.7898  12.0560  12.0599  12.2637  12.2661  12.4686  12.4762
    13.2340  13.2416  13.3901  13.3916  13.6734  13.6739  13.8203  13.8253
    14.0554  14.0676  14.1499  14.1609  14.5570  14.5770  14.7411  14.7529
    14.8534  14.8725  14.9561  14.9792  15.4785  15.4980  15.5184  15.5455
    16.3222  16.3326  16.5109  16.5165  17.0907  17.1131

     occupation numbers 
     1.0000   1.0000   1.0000   1.0000   1.0000   1.0000   1.0000   1.0000
     1.0000   1.0000   1.0000   1.0000   1.0000   1.0000   1.0000   1.0000
     1.0000   1.0000   1.0000   1.0000   1.0000   1.0000   1.0000   1.0000
     1.0000   1.0000   1.0000   1.0000   1.0000   1.0000   1.0000   1.0000
     1.0000   1.0000   1.0000   1.0000   1.0000   1.0000   1.0000   1.0000
     1.0000   1.0000   1.0000   1.0000   1.0000   1.0000   1.0000   1.0000
     1.0000   1.0000   1.0000   1.0000   1.0000   1.0000   1.0000   1.0000
     1.0000   1.0000   1.0000   1.0000   1.0000   1.0000   1.0000   1.0000
     1.0000   1.0000   1.0001   1.0001   1.0293   1.0322   0.9863   0.9738
     0.7925   0.7435   0.4963   0.4245  -0.0101  -0.0081  -0.0063  -0.0044
    -0.0000  -0.0000  -0.0000  -0.0000  -0.0000  -0.0000

          k = 0.0000 0.3750-0.5000 (  8066 PWs)   bands (ev):

   -56.4977 -56.4977 -56.4977 -56.4977 -56.4793 -56.4793 -56.4793 -56.4793
   -28.5782 -28.5782 -28.5748 -28.5748 -28.5330 -28.5330 -28.5305 -28.5305
   -27.6177 -27.6177 -27.5893 -27.5893 -27.5465 -27.5465 -27.5322 -27.5322
   -27.5206 -27.5206 -27.5036 -27.5036 -27.4442 -27.4442 -27.4330 -27.4330
     5.0897   5.0897   5.0911   5.0911   6.8114   6.8114   6.8156   6.8156
    10.4499  10.4499  10.4513  10.4513  11.2418  11.2418  11.2499  11.2499
    11.6408  11.6408  11.6487  11.6487  12.3098  12.3098  12.3149  12.3149
    13.3657  13.3657  13.3714  13.3714  13.7690  13.7690  13.7781  13.7781
    14.2721  14.2721  14.2750  14.2750  14.5444  14.5444  14.5553  14.5553
    14.8853  14.8853  14.9042  14.9042  15.4592  15.4592  15.4789  15.4789
    16.4924  16.4924  16.5025  16.5025  17.1151  17.1174

     occupation numbers 
     1.0000   1.0000   1.0000   1.0000   1.0000   1.0000   1.0000   1.0000
     1.0000   1.0000   1.0000   1.0000   1.0000   1.0000   1.0000   1.0000
     1.0000   1.0000   1.0000   1.0000   1.0000   1.0000   1.0000   1.0000
     1.0000   1.0000   1.0000   1.0000   1.0000   1.0000   1.0000   1.0000
     1.0000   1.0000   1.0000   1.0000   1.0000   1.0000   1.0000   1.0000
     1.0000   1.0000   1.0000   1.0000   1.0000   1.0000   1.0000   1.0000
     1.0000   1.0000   1.0000   1.0000   1.0000   1.0000   1.0000   1.0000
     1.0000   1.0000   1.0000   1.0000   1.0000   1.0000   1.0000   1.0000
     1.0011   1.0011   1.0012   1.0012   1.0273   1.0273   1.0290   1.0290
     0.7088   0.7088   0.6546   0.6546  -0.0125  -0.0125  -0.0101  -0.0101
    -0.0000  -0.0000  -0.0000  -0.0000  -0.0000  -0.0000

          k = 0.0000-0.5000-0.5000 (  8068 PWs)   bands (ev):

   -56.4971 -56.4971 -56.4971 -56.4971 -56.4799 -56.4799 -56.4799 -56.4799
   -28.5746 -28.5746 -28.5746 -28.5746 -28.5340 -28.5340 -28.5340 -28.5340
   -27.6039 -27.6039 -27.6039 -27.6039 -27.5365 -27.5365 -27.5365 -27.5365
   -27.5163 -27.5163 -27.5163 -27.5163 -27.4366 -27.4366 -27.4366 -27.4366
     5.3713   5.3713   5.3713   5.3713   6.4277   6.4277   6.4277   6.4277
    10.7058  10.7058  10.7058  10.7058  11.2427  11.2427  11.2427  11.2427
    11.3852  11.3852  11.3852  11.3852  12.2844  12.2844  12.2844  12.2844
    13.3623  13.3623  13.3623  13.3623  14.0072  14.0072  14.0072  14.0072
    14.2942  14.2942  14.2942  14.2942  14.5253  14.5253  14.5253  14.5253
    14.7577  14.7577  14.7577  14.7577  15.4177  15.4177  15.4177  15.4177
    16.5875  16.5875  16.5875  16.5875  16.9847  16.9847

     occupation numbers 
     1.0000   1.0000   1.0000   1.0000   1.0000   1.0000   1.0000   1.0000
     1.0000   1.0000   1.0000   1.0000   1.0000   1.0000   1.0000   1.0000
     1.0000   1.0000   1.0000   1.0000   1.0000   1.0000   1.0000   1.0000
     1.0000   1.0000   1.0000   1.0000   1.0000   1.0000   1.0000   1.0000
     1.0000   1.0000   1.0000   1.0000   1.0000   1.0000   1.0000   1.0000
     1.0000   1.0000   1.0000   1.0000   1.0000   1.0000   1.0000   1.0000
     1.0000   1.0000   1.0000   1.0000   1.0000   1.0000   1.0000   1.0000
     1.0000   1.0000   1.0000   1.0000   1.0000   1.0000   1.0000   1.0000
     1.0016   1.0016   1.0016   1.0016   1.0241   1.0241   1.0241   1.0241
     0.9681   0.9681   0.9681   0.9681  -0.0185  -0.0185  -0.0185  -0.0185
    -0.0000  -0.0000  -0.0000  -0.0000  -0.0000  -0.0000

          k = 0.1250 0.1250 0.1250 (  8124 PWs)   bands (ev):

   -56.5116 -56.5116 -56.4864 -56.4864 -56.4802 -56.4802 -56.4758 -56.4758
   -28.5895 -28.5836 -28.5740 -28.5734 -28.5612 -28.5570 -28.4919 -28.4917
   -27.6301 -27.6285 -27.5950 -27.5896 -27.5514 -27.5451 -27.5443 -27.5413
   -27.5201 -27.5092 -27.4708 -27.4622 -27.4551 -27.4549 -27.4421 -27.4403
     3.0213   3.0213   6.5635   6.5701   7.1837   7.1910   8.2854   8.2896
     9.9224   9.9272  10.6116  10.6118  10.6511  10.6512  11.2993  11.3048
    11.9441  11.9452  12.3498  12.3611  12.7361  12.7381  12.8159  12.8249
    13.0620  13.0656  13.1646  13.1652  13.2429  13.2487  13.3421  13.3508
    13.4559  13.4640  13.7040  13.7085  14.0639  14.0714  15.3210  15.3252
    15.3560  15.3573  15.5754  15.5765  15.6388  15.6533  15.8132  15.8251
    16.3137  16.3333  16.6479  16.6564  16.9610  16.9962

     occupation numbers 
     1.0000   1.0000   1.0000   1.0000   1.0000   1.0000   1.0000   1.0000
     1.0000   1.0000   1.0000   1.0000   1.0000   1.0000   1.0000   1.0000
     1.0000   1.0000   1.0000   1.0000   1.0000   1.0000   1.0000   1.0000
     1.0000   1.0000   1.0000   1.0000   1.0000   1.0000   1.0000   1.0000
     1.0000   1.0000   1.0000   1.0000   1.0000   1.0000   1.0000   1.0000
     1.0000   1.0000   1.0000   1.0000   1.0000   1.0000   1.0000   1.0000
     1.0000   1.0000   1.0000   1.0000   1.0000   1.0000   1.0000   1.0000
     1.0000   1.0000   1.0000   1.0000   1.0000   1.0000   1.0000   1.0000
     1.0000   1.0000   1.0000   1.0000   1.0000   1.0000  -0.0336  -0.0331
    -0.0288  -0.0286  -0.0029  -0.0029  -0.0011  -0.0009  -0.0000  -0.0000
    -0.0000  -0.0000  -0.0000  -0.0000  -0.0000  -0.0000

          k = 0.1250 0.1250 0.2500 (  8086 PWs)   bands (ev):

   -56.5089 -56.5089 -56.4897 -56.4897 -56.4799 -56.4799 -56.4755 -56.4755
   -28.5901 -28.5847 -28.5751 -28.5742 -28.5527 -28.5493 -28.4996 -28.4992
   -27.6338 -27.6289 -27.5875 -27.5802 -27.5555 -27.5485 -27.5439 -27.5413
   -27.5177 -27.4997 -27.4803 -27.4667 -27.4619 -27.4554 -27.4394 -27.4374
     3.3367   3.3367   6.0624   6.0656   7.2201   7.2246   8.4043   8.4084
     9.6715   9.6735  10.4340  10.4379  10.6895  10.6933  11.4163  11.4203
    11.8415  11.8464  12.2994  12.3028  12.7369  12.7421  13.0069  13.0120
    13.0826  13.0894  13.1146  13.1223  13.2814  13.2860  13.4389  13.4483
    13.6246  13.6332  13.8386  13.8473  14.1518  14.1579  15.0817  15.1069
    15.2836  15.2988  15.4460  15.4596  15.5896  15.6068  15.8108  15.8298
    16.2013  16.2171  16.5428  16.5566  17.1169  17.1527

     occupation numbers 
     1.0000   1.0000   1.0000   1.0000   1.0000   1.0000   1.0000   1.0000
     1.0000   1.0000   1.0000   1.0000   1.0000   1.0000   1.0000   1.0000
     1.0000   1.0000   1.0000   1.0000   1.0000   1.0000   1.0000   1.0000
     1.0000   1.0000   1.0000   1.0000   1.0000   1.0000   1.0000   1.0000
     1.0000   1.0000   1.0000   1.0000   1.0000   1.0000   1.0000   1.0000
     1.0000   1.0000   1.0000   1.0000   1.0000   1.0000   1.0000   1.0000
     1.0000   1.0000   1.0000   1.0000   1.0000   1.0000   1.0000   1.0000
     1.0000   1.0000   1.0000   1.0000   1.0000   1.0000   1.0000   1.0000
     1.0000   1.0000   1.0000   1.0000   1.0001   1.0001   0.1490   0.0993
    -0.0354  -0.0352  -0.0143  -0.0124  -0.0024  -0.0018  -0.0000  -0.0000
    -0.0000  -0.0000  -0.0000  -0.0000  -0.0000  -0.0000

          k = 0.1250 0.1250 0.3750 (  8089 PWs)   bands (ev):

   -56.5048 -56.5048 -56.4945 -56.4945 -56.4787 -56.4787 -56.4761 -56.4761
   -28.5887 -28.5841 -28.5791 -28.5768 -28.5398 -28.5375 -28.5112 -28.5105
   -27.6351 -27.6305 -27.5782 -27.5722 -27.5639 -27.5501 -27.5421 -27.5326
   -27.5216 -27.4996 -27.4822 -27.4697 -27.4662 -27.4590 -27.4378 -27.4361
     3.8444   3.8446   5.2902   5.2913   7.5133   7.5156   8.3090   8.3133
     9.5581   9.5591  10.2041  10.2074  10.9209  10.9253  11.4068  11.4128
    11.7852  11.7885  12.2119  12.2157  12.7422  12.7479  12.9494  12.9570
    13.0586  13.0669  13.2279  13.2351  13.3260  13.3295  13.4310  13.4375
    13.6947  13.6977  13.9775  13.9848  14.3496  14.3695  14.8301  14.8629
    15.2458  15.2621  15.3183  15.3316  15.6103  15.6303  15.7681  15.7914
    16.1539  16.1633  16.3773  16.3918  17.3097  17.3332

     occupation numbers 
     1.0000   1.0000   1.0000   1.0000   1.0000   1.0000   1.0000   1.0000
     1.0000   1.0000   1.0000   1.0000   1.0000   1.0000   1.0000   1.0000
     1.0000   1.0000   1.0000   1.0000   1.0000   1.0000   1.0000   1.0000
     1.0000   1.0000   1.0000   1.0000   1.0000   1.0000   1.0000   1.0000
     1.0000   1.0000   1.0000   1.0000   1.0000   1.0000   1.0000   1.0000
     1.0000   1.0000   1.0000   1.0000   1.0000   1.0000   1.0000   1.0000
     1.0000   1.0000   1.0000   1.0000   1.0000   1.0000   1.0000   1.0000
     1.0000   1.0000   1.0000   1.0000   1.0000   1.0000   1.0000   1.0000
     1.0000   1.0000   1.0000   1.0000   1.0036   1.0048   0.8464   0.7688
    -0.0309  -0.0339  -0.0338  -0.0323  -0.0017  -0.0013  -0.0001  -0.0001
    -0.0000  -0.0000  -0.0000  -0.0000  -0.0000  -0.0000

          k = 0.1250 0.1250-0.5000 (  8080 PWs)   bands (ev):

   -56.4998 -56.4998 -56.4998 -56.4998 -56.4772 -56.4772 -56.4772 -56.4772
   -28.5854 -28.5854 -28.5799 -28.5799 -28.5260 -28.5260 -28.5231 -28.5231
   -27.6334 -27.6334 -27.5713 -27.5713 -27.5606 -27.5606 -27.5340 -27.5340
   -27.5134 -27.5134 -27.4751 -27.4751 -27.4638 -27.4638 -27.4365 -27.4365
     4.5139   4.5139   4.5145   4.5145   7.9201   7.9201   7.9264   7.9264
     9.8403   9.8403   9.8417   9.8417  11.1809  11.1809  11.1906  11.1906
    12.0269  12.0269  12.0307  12.0307  12.7784  12.7784  12.7912  12.7912
    13.1762  13.1762  13.1844  13.1844  13.3661  13.3661  13.3690  13.3690
    13.8487  13.8487  13.8548  13.8548  14.6283  14.6283  14.6604  14.6604
    15.2470  15.2470  15.2662  15.2662  15.6848  15.6848  15.7109  15.7109
    16.2240  16.2240  16.2342  16.2342  17.6143  17.6160

     occupation numbers 
     1.0000   1.0000   1.0000   1.0000   1.0000   1.0000   1.0000   1.0000
     1.0000   1.0000   1.0000   1.0000   1.0000   1.0000   1.0000   1.0000
     1.0000   1.0000   1.0000   1.0000   1.0000   1.0000   1.0000   1.0000
     1.0000   1.0000   1.0000   1.0000   1.0000   1.0000   1.0000   1.0000
     1.0000   1.0000   1.0000   1.0000   1.0000   1.0000   1.0000   1.0000
     1.0000   1.0000   1.0000   1.0000   1.0000   1.0000   1.0000   1.0000
     1.0000   1.0000   1.0000   1.0000   1.0000   1.0000   1.0000   1.0000
     1.0000   1.0000   1.0000   1.0000   1.0000   1.0000   1.0000   1.0000
     1.0000   1.0000   1.0000   1.0000   1.0354   1.0354   1.0317   1.0317
    -0.0312  -0.0312  -0.0343  -0.0343  -0.0005  -0.0005  -0.0003  -0.0003
    -0.0000  -0.0000  -0.0000  -0.0000  -0.0000  -0.0000

          k = 0.1250 0.2500 0.2500 (  8084 PWs)   bands (ev):

   -56.5065 -56.5065 -56.4911 -56.4911 -56.4805 -56.4805 -56.4759 -56.4759
   -28.5889 -28.5841 -28.5732 -28.5725 -28.5497 -28.5465 -28.5067 -28.5061
   -27.6313 -27.6281 -27.5836 -27.5750 -27.5560 -27.5518 -27.5453 -27.5434
   -27.5142 -27.5016 -27.4830 -27.4704 -27.4690 -27.4529 -27.4368 -27.4345
     3.6444   3.6446   6.0132   6.0176   6.9143   6.9207   8.2971   8.3008
     9.4083   9.4111  10.4285  10.4303  10.6904  10.6929  11.4594  11.4643
    11.9040  11.9066  12.3024  12.3042  12.6212  12.6277  12.9567  12.9631
    13.1178  13.1228  13.1940  13.2046  13.2833  13.2888  13.5800  13.5868
    13.7502  13.7579  13.9712  13.9803  14.2867  14.2937  15.0253  15.0426
    15.1597  15.1803  15.2860  15.2986  15.5001  15.5121  15.7213  15.7418
    16.1691  16.1801  16.5174  16.5299  17.1467  17.1873

     occupation numbers 
     1.0000   1.0000   1.0000   1.0000   1.0000   1.0000   1.0000   1.0000
     1.0000   1.0000   1.0000   1.0000   1.0000   1.0000   1.0000   1.0000
     1.0000   1.0000   1.0000   1.0000   1.0000   1.0000   1.0000   1.0000
     1.0000   1.0000   1.0000   1.0000   1.0000   1.0000   1.0000   1.0000
     1.0000   1.0000   1.0000   1.0000   1.0000   1.0000   1.0000   1.0000
     1.0000   1.0000   1.0000   1.0000   1.0000   1.0000   1.0000   1.0000
     1.0000   1.0000   1.0000   1.0000   1.0000   1.0000   1.0000   1.0000
     1.0000   1.0000   1.0000   1.0000   1.0000   1.0000   1.0000   1.0000
     1.0000   1.0000   1.0000   1.0000   1.0014   1.0016   0.2888   0.2423
     0.0231   0.0031  -0.0354  -0.0352  -0.0079  -0.0068  -0.0003  -0.0002
    -0.0000  -0.0000  -0.0000  -0.0000  -0.0000  -0.0000

          k = 0.1250 0.2500 0.3750 (  8097 PWs)   bands (ev):

   -56.5028 -56.5028 -56.4943 -56.4943 -56.4799 -56.4799 -56.4770 -56.4770
   -28.5859 -28.5819 -28.5754 -28.5737 -28.5412 -28.5391 -28.5171 -28.5163
   -27.6291 -27.6261 -27.5799 -27.5720 -27.5629 -27.5529 -27.5408 -27.5359
   -27.5192 -27.5088 -27.4848 -27.4779 -27.4644 -27.4527 -27.4352 -27.4329
     4.1379   4.1382   5.4906   5.4927   7.0390   7.0429   7.9714   7.9746
     9.4102   9.4126  10.1456  10.1480  11.0642  11.0674  11.5739  11.5799
    11.8041  11.8115  12.0656  12.0673  12.5157  12.5257  12.7885  12.7962
    13.2092  13.2146  13.2909  13.3033  13.3532  13.3589  13.5999  13.6092
    13.8635  13.8750  14.0970  14.1084  14.5024  14.5305  14.8376  14.8644
    15.0713  15.0810  15.1478  15.1613  15.5092  15.5219  15.6340  15.6568
    16.2028  16.2097  16.4441  16.4549  17.1773  17.2039

     occupation numbers 
     1.0000   1.0000   1.0000   1.0000   1.0000   1.0000   1.0000   1.0000
     1.0000   1.0000   1.0000   1.0000   1.0000   1.0000   1.0000   1.0000
     1.0000   1.0000   1.0000   1.0000   1.0000   1.0000   1.0000   1.0000
     1.0000   1.0000   1.0000   1.0000   1.0000   1.0000   1.0000   1.0000
     1.0000   1.0000   1.0000   1.0000   1.0000   1.0000   1.0000   1.0000
     1.0000   1.0000   1.0000   1.0000   1.0000   1.0000   1.0000   1.0000
     1.0000   1.0000   1.0000   1.0000   1.0000   1.0000   1.0000   1.0000
     1.0000   1.0000   1.0000   1.0000   1.0000   1.0000   1.0000   1.0000
     1.0000   1.0000   1.0000   1.0000   1.0202   1.0249   0.8300   0.7650
     0.1720   0.1505   0.0370   0.0213  -0.0071  -0.0060  -0.0012  -0.0008
    -0.0000  -0.0000  -0.0000  -0.0000  -0.0000  -0.0000

          k = 0.1250 0.2500-0.5000 (  8078 PWs)   bands (ev):

   -56.4985 -56.4985 -56.4985 -56.4985 -56.4785 -56.4785 -56.4785 -56.4785
   -28.5818 -28.5818 -28.5767 -28.5767 -28.5304 -28.5304 -28.5270 -28.5270
   -27.6266 -27.6266 -27.5758 -27.5758 -27.5592 -27.5592 -27.5322 -27.5322
   -27.5198 -27.5198 -27.4832 -27.4832 -27.4571 -27.4571 -27.4335 -27.4335
     4.7804   4.7804   4.7815   4.7815   7.4686   7.4686   7.4749   7.4749
     9.7442   9.7442   9.7466   9.7466  11.5280  11.5280  11.5356  11.5356
    11.7441  11.7441  11.7479  11.7479  12.6003  12.6003  12.6118  12.6118
    13.2930  13.2930  13.2994  13.2994  13.4709  13.4709  13.4824  13.4824
    14.0242  14.0242  14.0323  14.0323  14.6935  14.6935  14.7259  14.7259
    15.0677  15.0677  15.0841  15.0841  15.5571  15.5571  15.5807  15.5807
    16.3201  16.3201  16.3291  16.3291  17.3781  17.3814

     occupation numbers 
     1.0000   1.0000   1.0000   1.0000   1.0000   1.0000   1.0000   1.0000
     1.0000   1.0000   1.0000   1.0000   1.0000   1.0000   1.0000   1.0000
     1.0000   1.0000   1.0000   1.0000   1.0000   1.0000   1.0000   1.0000
     1.0000   1.0000   1.0000   1.0000   1.0000   1.0000   1.0000   1.0000
     1.0000   1.0000   1.0000   1.0000   1.0000   1.0000   1.0000   1.0000
     1.0000   1.0000   1.0000   1.0000   1.0000   1.0000   1.0000   1.0000
     1.0000   1.0000   1.0000   1.0000   1.0000   1.0000   1.0000   1.0000
     1.0000   1.0000   1.0000   1.0000   1.0000   1.0000   1.0000   1.0000
     1.0000   1.0000   1.0000   1.0000   1.0206   1.0206   0.9999   0.9999
     0.1804   0.1804   0.1441   0.1441  -0.0038  -0.0038  -0.0027  -0.0027
    -0.0000  -0.0000  -0.0000  -0.0000  -0.0000  -0.0000

          k = 0.1250 0.3750 0.3750 (  8090 PWs)   bands (ev):

   -56.5000 -56.5000 -56.4950 -56.4950 -56.4805 -56.4805 -56.4784 -56.4784
   -28.5815 -28.5783 -28.5731 -28.5722 -28.5401 -28.5384 -28.5254 -28.5243
   -27.6213 -27.6196 -27.5850 -27.5806 -27.5582 -27.5506 -27.5392 -27.5316
   -27.5229 -27.5140 -27.4942 -27.4889 -27.4547 -27.4462 -27.4351 -27.4320
     4.6016   4.6022   5.5958   5.5980   6.6177   6.6212   7.4189   7.4220
     9.5843   9.5868  10.2022  10.2055  10.9493  10.9513  11.5406  11.5430
    11.7640  11.7686  12.1098  12.1117  12.3542  12.3586  12.6182  12.6249
    13.1926  13.1982  13.3138  13.3190  13.5612  13.5699  13.7650  13.7810
    14.0195  14.0330  14.2998  14.3089  14.5625  14.5812  14.7917  14.8063
    14.8774  14.8824  14.9920  15.0219  15.4339  15.4346  15.5044  15.5162
    16.3026  16.3119  16.4778  16.4842  17.0653  17.0866

     occupation numbers 
     1.0000   1.0000   1.0000   1.0000   1.0000   1.0000   1.0000   1.0000
     1.0000   1.0000   1.0000   1.0000   1.0000   1.0000   1.0000   1.0000
     1.0000   1.0000   1.0000   1.0000   1.0000   1.0000   1.0000   1.0000
     1.0000   1.0000   1.0000   1.0000   1.0000   1.0000   1.0000   1.0000
     1.0000   1.0000   1.0000   1.0000   1.0000   1.0000   1.0000   1.0000
     1.0000   1.0000   1.0000   1.0000   1.0000   1.0000   1.0000   1.0000
     1.0000   1.0000   1.0000   1.0000   1.0000   1.0000   1.0000   1.0000
     1.0000   1.0000   1.0000   1.0000   1.0000   1.0000   1.0000   1.0000
     1.0000   1.0000   1.0017   1.0020   1.0301   1.0327   0.9198   0.8943
     0.7305   0.7168   0.3856   0.2984  -0.0160  -0.0159  -0.0075  -0.0065
    -0.0000  -0.0000  -0.0000  -0.0000  -0.0000  -0.0000

          k = 0.1250 0.3750-0.5000 (  8080 PWs)   bands (ev):

   -56.4971 -56.4971 -56.4971 -56.4971 -56.4799 -56.4799 -56.4799 -56.4799
   -28.5769 -28.5769 -28.5734 -28.5734 -28.5348 -28.5348 -28.5321 -28.5321
   -27.6160 -27.6160 -27.5878 -27.5878 -27.5526 -27.5526 -27.5327 -27.5327
   -27.5206 -27.5206 -27.4961 -27.4961 -27.4471 -27.4471 -27.4337 -27.4337
     5.1729   5.1729   5.1744   5.1744   6.8549   6.8549   6.8594   6.8594
     9.9261   9.9261   9.9292   9.9292  11.2682  11.2682  11.2702  11.2702
    11.8656  11.8656  11.8732  11.8732  12.4205  12.4205  12.4282  12.4282
    13.2928  13.2928  13.2966  13.2966  13.6816  13.6816  13.6957  13.6957
    14.2869  14.2869  14.2936  14.2936  14.6338  14.6338  14.6464  14.6464
    14.9021  14.9021  14.9211  14.9211  15.4315  15.4315  15.4473  15.4473
    16.4463  16.4463  16.4540  16.4540  17.0956  17.0977

     occupation numbers 
     1.0000   1.0000   1.0000   1.0000   1.0000   1.0000   1.0000   1.0000
     1.0000   1.0000   1.0000   1.0000   1.0000   1.0000   1.0000   1.0000
     1.0000   1.0000   1.0000   1.0000   1.0000   1.0000   1.0000   1.0000
     1.0000   1.0000   1.0000   1.0000   1.0000   1.0000   1.0000   1.0000
     1.0000   1.0000   1.0000   1.0000   1.0000   1.0000   1.0000   1.0000
     1.0000   1.0000   1.0000   1.0000   1.0000   1.0000   1.0000   1.0000
     1.0000   1.0000   1.0000   1.0000   1.0000   1.0000   1.0000   1.0000
     1.0000   1.0000   1.0000   1.0000   1.0000   1.0000   1.0000   1.0000
     1.0014   1.0014   1.0016   1.0016   1.0351   1.0351   1.0340   1.0340
     0.6608   0.6608   0.6042   0.6042  -0.0164  -0.0164  -0.0141  -0.0141
    -0.0000  -0.0000  -0.0000  -0.0000  -0.0000  -0.0000

          k = 0.1250-0.5000-0.5000 (  8080 PWs)   bands (ev):

   -56.4964 -56.4964 -56.4964 -56.4964 -56.4806 -56.4806 -56.4806 -56.4806
   -28.5733 -28.5733 -28.5732 -28.5732 -28.5358 -28.5358 -28.5356 -28.5356
   -27.6051 -27.6051 -27.5997 -27.5997 -27.5482 -27.5482 -27.5351 -27.5351
   -27.5174 -27.5174 -27.5038 -27.5038 -27.4409 -27.4409 -27.4363 -27.4363
     5.4485   5.4485   5.4495   5.4495   6.4885   6.4885   6.4904   6.4904
    10.0928  10.0928  10.0964  10.0964  11.0434  11.0434  11.0450  11.0450
    11.9597  11.9597  11.9621  11.9621  12.3354  12.3354  12.3379  12.3379
    13.2750  13.2750  13.2758  13.2758  13.8466  13.8466  13.8600  13.8600
    14.3462  14.3462  14.3517  14.3517  14.6310  14.6310  14.6476  14.6476
    14.8011  14.8011  14.8032  14.8032  15.3858  15.3858  15.3860  15.3860
    16.5207  16.5207  16.5223  16.5223  16.9722  16.9736

     occupation numbers 
     1.0000   1.0000   1.0000   1.0000   1.0000   1.0000   1.0000   1.0000
     1.0000   1.0000   1.0000   1.0000   1.0000   1.0000   1.0000   1.0000
     1.0000   1.0000   1.0000   1.0000   1.0000   1.0000   1.0000   1.0000
     1.0000   1.0000   1.0000   1.0000   1.0000   1.0000   1.0000   1.0000
     1.0000   1.0000   1.0000   1.0000   1.0000   1.0000   1.0000   1.0000
     1.0000   1.0000   1.0000   1.0000   1.0000   1.0000   1.0000   1.0000
     1.0000   1.0000   1.0000   1.0000   1.0000   1.0000   1.0000   1.0000
     1.0000   1.0000   1.0000   1.0000   1.0000   1.0000   1.0000   1.0000
     1.0035   1.0035   1.0037   1.0037   1.0353   1.0353   1.0339   1.0339
     0.9037   0.9037   0.9000   0.9000  -0.0238  -0.0238  -0.0238  -0.0238
    -0.0000  -0.0000  -0.0000  -0.0000  -0.0000  -0.0000

          k = 0.2500 0.2500 0.2500 (  8069 PWs)   bands (ev):

   -56.5043 -56.5043 -56.4916 -56.4916 -56.4814 -56.4814 -56.4767 -56.4767
   -28.5867 -28.5823 -28.5705 -28.5702 -28.5491 -28.5460 -28.5133 -28.5123
   -27.6282 -27.6245 -27.5826 -27.5707 -27.5585 -27.5556 -27.5461 -27.5435
   -27.5125 -27.5087 -27.4774 -27.4751 -27.4642 -27.4594 -27.4354 -27.4329
     3.9443   3.9444   6.0541   6.0608   6.7948   6.8051   8.0513   8.0522
     9.0664   9.0691  10.0626  10.0662  11.1544  11.1587  11.1986  11.1990
    11.9202  11.9216  12.3558  12.3574  12.8102  12.8168  12.8820  12.8829
    13.1334  13.1412  13.1421  13.1538  13.1854  13.1902  13.7585  13.7671
    13.7747  13.7869  14.0641  14.0716  14.4488  14.4660  14.9863  15.0024
    15.1301  15.1332  15.2664  15.2671  15.3062  15.3119  15.6148  15.6339
    16.1826  16.1907  16.4818  16.4931  17.1257  17.1555

     occupation numbers 
     1.0000   1.0000   1.0000   1.0000   1.0000   1.0000   1.0000   1.0000
     1.0000   1.0000   1.0000   1.0000   1.0000   1.0000   1.0000   1.0000
     1.0000   1.0000   1.0000   1.0000   1.0000   1.0000   1.0000   1.0000
     1.0000   1.0000   1.0000   1.0000   1.0000   1.0000   1.0000   1.0000
     1.0000   1.0000   1.0000   1.0000   1.0000   1.0000   1.0000   1.0000
     1.0000   1.0000   1.0000   1.0000   1.0000   1.0000   1.0000   1.0000
     1.0000   1.0000   1.0000   1.0000   1.0000   1.0000   1.0000   1.0000
     1.0000   1.0000   1.0000   1.0000   1.0000   1.0000   1.0000   1.0000
     1.0000   1.0000   1.0000   1.0000   1.0122   1.0146   0.4030   0.3546
     0.0613   0.0567  -0.0344  -0.0344  -0.0348  -0.0344  -0.0016  -0.0012
    -0.0000  -0.0000  -0.0000  -0.0000  -0.0000  -0.0000

          k = 0.2500 0.2500 0.3750 (  8094 PWs)   bands (ev):

   -56.5009 -56.5009 -56.4936 -56.4936 -56.4813 -56.4813 -56.4781 -56.4781
   -28.5828 -28.5791 -28.5718 -28.5705 -28.5436 -28.5414 -28.5228 -28.5216
   -27.6240 -27.6208 -27.5792 -27.5708 -27.5655 -27.5607 -27.5426 -27.5330
   -27.5232 -27.5099 -27.4813 -27.4713 -27.4664 -27.4576 -27.4352 -27.4325
     4.4225   4.4228   5.6837   5.6867   6.9123   6.9182   7.7714   7.7742
     8.9808   8.9846   9.7548   9.7587  11.0334  11.0365  11.5968  11.5997
    11.6774  11.6807  12.2580  12.2627  12.7417  12.7513  12.8773  12.8846
    13.1101  13.1221  13.2129  13.2242  13.2938  13.2978  13.6222  13.6300
    13.9383  13.9484  14.2618  14.2731  14.6149  14.6473  14.8448  14.8642
    15.0209  15.0312  15.1816  15.2079  15.3272  15.3421  15.5264  15.5432
    16.2222  16.2290  16.4124  16.4206  17.1202  17.1353

     occupation numbers 
     1.0000   1.0000   1.0000   1.0000   1.0000   1.0000   1.0000   1.0000
     1.0000   1.0000   1.0000   1.0000   1.0000   1.0000   1.0000   1.0000
     1.0000   1.0000   1.0000   1.0000   1.0000   1.0000   1.0000   1.0000
     1.0000   1.0000   1.0000   1.0000   1.0000   1.0000   1.0000   1.0000
     1.0000   1.0000   1.0000   1.0000   1.0000   1.0000   1.0000   1.0000
     1.0000   1.0000   1.0000   1.0000   1.0000   1.0000   1.0000   1.0000
     1.0000   1.0000   1.0000   1.0000   1.0000   1.0000   1.0000   1.0000
     1.0000   1.0000   1.0000   1.0000   1.0000   1.0000   1.0000   1.0000
     1.0000   1.0000   1.0009   1.0011   1.0354   1.0339   0.8132   0.7655
     0.3013   0.2728   0.0019  -0.0162  -0.0329  -0.0309  -0.0057  -0.0046
    -0.0000  -0.0000  -0.0000  -0.0000  -0.0000  -0.0000

          k = 0.2500 0.2500-0.5000 (  8068 PWs)   bands (ev):

   -56.4971 -56.4971 -56.4971 -56.4971 -56.4799 -56.4799 -56.4799 -56.4799
   -28.5781 -28.5781 -28.5733 -28.5733 -28.5348 -28.5348 -28.5311 -28.5311
   -27.6206 -27.6206 -27.5747 -27.5747 -27.5657 -27.5657 -27.5346 -27.5346
   -27.5192 -27.5192 -27.4782 -27.4782 -27.4597 -27.4597 -27.4339 -27.4339
     5.0367   5.0367   5.0379   5.0379   7.3194   7.3194   7.3255   7.3255
     9.3112   9.3112   9.3154   9.3154  11.2768  11.2768  11.2792  11.2792
    11.9766  11.9766  11.9848  11.9848  12.8037  12.8037  12.8139  12.8139
    13.1740  13.1740  13.1867  13.1867  13.4391  13.4391  13.4463  13.4463
    14.1684  14.1684  14.1780  14.1780  14.7502  14.7502  14.7776  14.7776
    15.0561  15.0561  15.0750  15.0750  15.4328  15.4328  15.4490  15.4490
    16.3115  16.3115  16.3211  16.3211  17.2569  17.2585

     occupation numbers 
     1.0000   1.0000   1.0000   1.0000   1.0000   1.0000   1.0000   1.0000
     1.0000   1.0000   1.0000   1.0000   1.0000   1.0000   1.0000   1.0000
     1.0000   1.0000   1.0000   1.0000   1.0000   1.0000   1.0000   1.0000
     1.0000   1.0000   1.0000   1.0000   1.0000   1.0000   1.0000   1.0000
     1.0000   1.0000   1.0000   1.0000   1.0000   1.0000   1.0000   1.0000
     1.0000   1.0000   1.0000   1.0000   1.0000   1.0000   1.0000   1.0000
     1.0000   1.0000   1.0000   1.0000   1.0000   1.0000   1.0000   1.0000
     1.0000   1.0000   1.0000   1.0000   1.0000   1.0000   1.0000   1.0000
     1.0002   1.0002   1.0002   1.0002   0.9768   0.9768   0.9418   0.9418
     0.2082   0.2082   0.1638   0.1638  -0.0162  -0.0162  -0.0138  -0.0138
    -0.0000  -0.0000  -0.0000  -0.0000  -0.0000  -0.0000

          k = 0.2500 0.3750 0.3750 (  8069 PWs)   bands (ev):

   -56.4982 -56.4982 -56.4937 -56.4937 -56.4822 -56.4822 -56.4799 -56.4799
   -28.5779 -28.5749 -28.5693 -28.5685 -28.5438 -28.5420 -28.5306 -28.5292
   -27.6167 -27.6139 -27.5824 -27.5773 -27.5665 -27.5620 -27.5440 -27.5327
   -27.5230 -27.5070 -27.4857 -27.4761 -27.4597 -27.4544 -27.4370 -27.4339
     4.8697   4.8703   5.7966   5.8005   6.6822   6.6891   7.3946   7.3978
     8.9590   8.9635   9.5732   9.5786  10.6887  10.6924  11.2073  11.2091
    12.0020  12.0049  12.4206  12.4247  12.6322  12.6377  12.8202  12.8260
    13.1288  13.1371  13.1825  13.1910  13.3829  13.3925  13.5842  13.5961
    14.1428  14.1514  14.4970  14.5141  14.6845  14.7081  14.8382  14.8572
    14.9339  14.9380  15.1313  15.1637  15.2755  15.2873  15.4316  15.4451
    16.2777  16.2852  16.4048  16.4093  16.9742  16.9845

     occupation numbers 
     1.0000   1.0000   1.0000   1.0000   1.0000   1.0000   1.0000   1.0000
     1.0000   1.0000   1.0000   1.0000   1.0000   1.0000   1.0000   1.0000
     1.0000   1.0000   1.0000   1.0000   1.0000   1.0000   1.0000   1.0000
     1.0000   1.0000   1.0000   1.0000   1.0000   1.0000   1.0000   1.0000
     1.0000   1.0000   1.0000   1.0000   1.0000   1.0000   1.0000   1.0000
     1.0000   1.0000   1.0000   1.0000   1.0000   1.0000   1.0000   1.0000
     1.0000   1.0000   1.0000   1.0000   1.0000   1.0000   1.0000   1.0000
     1.0000   1.0000   1.0000   1.0000   1.0000   1.0000   1.0000   1.0000
     1.0001   1.0001   1.0193   1.0221   1.0244   1.0126   0.8286   0.7832
     0.5649   0.5523   0.0594   0.0187  -0.0351  -0.0355  -0.0163  -0.0144
    -0.0000  -0.0000  -0.0000  -0.0000  -0.0000  -0.0000

          k = 0.2500 0.3750-0.5000 (  8076 PWs)   bands (ev):

   -56.4954 -56.4954 -56.4954 -56.4954 -56.4816 -56.4816 -56.4816 -56.4816
   -28.5731 -28.5731 -28.5697 -28.5697 -28.5395 -28.5395 -28.5366 -28.5366
   -27.6112 -27.6112 -27.5844 -27.5844 -27.5636 -27.5636 -27.5402 -27.5402
   -27.5125 -27.5125 -27.4838 -27.4838 -27.4536 -27.4536 -27.4368 -27.4368
     5.4121   5.4121   5.4140   5.4140   6.9218   6.9218   6.9271   6.9271
     9.2728   9.2728   9.2779   9.2779  10.7884  10.7884  10.7910  10.7910
    12.2811  12.2811  12.2897  12.2897  12.6865  12.6865  12.6938  12.6938
    13.1724  13.1724  13.1802  13.1802  13.4765  13.4765  13.4895  13.4895
    14.4069  14.4069  14.4157  14.4157  14.7927  14.7927  14.8102  14.8102
    14.9890  14.9890  15.0110  15.0110  15.3491  15.3491  15.3596  15.3596
    16.3665  16.3665  16.3736  16.3736  16.9863  16.9887

     occupation numbers 
     1.0000   1.0000   1.0000   1.0000   1.0000   1.0000   1.0000   1.0000
     1.0000   1.0000   1.0000   1.0000   1.0000   1.0000   1.0000   1.0000
     1.0000   1.0000   1.0000   1.0000   1.0000   1.0000   1.0000   1.0000
     1.0000   1.0000   1.0000   1.0000   1.0000   1.0000   1.0000   1.0000
     1.0000   1.0000   1.0000   1.0000   1.0000   1.0000   1.0000   1.0000
     1.0000   1.0000   1.0000   1.0000   1.0000   1.0000   1.0000   1.0000
     1.0000   1.0000   1.0000   1.0000   1.0000   1.0000   1.0000   1.0000
     1.0000   1.0000   1.0000   1.0000   1.0000   1.0000   1.0000   1.0000
     1.0076   1.0076   1.0085   1.0085   0.9182   0.9182   0.8870   0.8870
     0.3947   0.3947   0.3295   0.3295  -0.0299  -0.0299  -0.0282  -0.0282
    -0.0000  -0.0000  -0.0000  -0.0000  -0.0000  -0.0000

          k = 0.2500-0.5000-0.5000 (  8044 PWs)   bands (ev):

   -56.4946 -56.4946 -56.4946 -56.4946 -56.4824 -56.4824 -56.4824 -56.4824
   -28.5693 -28.5693 -28.5690 -28.5690 -28.5406 -28.5406 -28.5403 -28.5403
   -27.6025 -27.6025 -27.5939 -27.5939 -27.5614 -27.5614 -27.5427 -27.5427
   -27.5079 -27.5079 -27.4888 -27.4888 -27.4480 -27.4480 -27.4402 -27.4402
     5.6732   5.6732   5.6754   5.6754   6.6210   6.6210   6.6251   6.6251
     9.3819   9.3819   9.3873   9.3873  10.5095  10.5095  10.5127  10.5127
    12.4778  12.4778  12.4810  12.4810  12.5640  12.5640  12.5662  12.5662
    13.1159  13.1159  13.1162  13.1162  13.5551  13.5551  13.5680  13.5680
    14.5100  14.5100  14.5187  14.5187  14.8361  14.8361  14.8508  14.8508
    14.9376  14.9376  14.9387  14.9387  15.3111  15.3111  15.3140  15.3140
    16.4153  16.4153  16.4160  16.4160  16.8631  16.8654

     occupation numbers 
     1.0000   1.0000   1.0000   1.0000   1.0000   1.0000   1.0000   1.0000
     1.0000   1.0000   1.0000   1.0000   1.0000   1.0000   1.0000   1.0000
     1.0000   1.0000   1.0000   1.0000   1.0000   1.0000   1.0000   1.0000
     1.0000   1.0000   1.0000   1.0000   1.0000   1.0000   1.0000   1.0000
     1.0000   1.0000   1.0000   1.0000   1.0000   1.0000   1.0000   1.0000
     1.0000   1.0000   1.0000   1.0000   1.0000   1.0000   1.0000   1.0000
     1.0000   1.0000   1.0000   1.0000   1.0000   1.0000   1.0000   1.0000
     1.0000   1.0000   1.0000   1.0000   1.0000   1.0000   1.0000   1.0000
     1.0215   1.0215   1.0229   1.0229   0.8332   0.8332   0.7989   0.7989
     0.5536   0.5536   0.5503   0.5503  -0.0345  -0.0345  -0.0342  -0.0342
    -0.0000  -0.0000  -0.0000  -0.0000  -0.0000  -0.0000

          k = 0.3750 0.3750 0.3750 (  8069 PWs)   bands (ev):

   -56.4956 -56.4956 -56.4925 -56.4925 -56.4839 -56.4839 -56.4819 -56.4819
   -28.5727 -28.5702 -28.5651 -28.5649 -28.5470 -28.5455 -28.5378 -28.5362
   -27.6095 -27.6067 -27.5814 -27.5752 -27.5744 -27.5723 -27.5474 -27.5412
   -27.5126 -27.5009 -27.4801 -27.4658 -27.4633 -27.4610 -27.4408 -27.4383
     5.2846   5.2855   5.9999   6.0062   6.6314   6.6412   7.1890   7.1925
     8.7561   8.7619   9.2627   9.2701  10.1957  10.2008  10.6466  10.6489
    12.3233  12.3264  12.5917  12.5960  12.7694  12.7728  12.8678  12.8696
    13.1096  13.1199  13.1696  13.1748  13.2713  13.2717  13.3957  13.4004
    14.3624  14.3651  14.7233  14.7439  14.7846  14.7927  14.9234  14.9582
    15.0674  15.0739  15.0982  15.1036  15.2541  15.2846  15.3088  15.3303
    16.2855  16.2931  16.3593  16.3611  16.8111  16.8154

     occupation numbers 
     1.0000   1.0000   1.0000   1.0000   1.0000   1.0000   1.0000   1.0000
     1.0000   1.0000   1.0000   1.0000   1.0000   1.0000   1.0000   1.0000
     1.0000   1.0000   1.0000   1.0000   1.0000   1.0000   1.0000   1.0000
     1.0000   1.0000   1.0000   1.0000   1.0000   1.0000   1.0000   1.0000
[...]
   -28.5895 -28.5847 -28.5809 -28.5783 -28.5390 -28.5366 -28.5092 -28.5083
   -27.6373 -27.6320 -27.5776 -27.5747 -27.5640 -27.5471 -27.5419 -27.5299
   -27.5235 -27.4941 -27.4852 -27.4717 -27.4627 -27.4567 -27.4409 -27.4380
     3.7444   3.7445   5.2134   5.2139   7.6682   7.6706   8.4237   8.4306
     9.7495   9.7524  10.2954  10.3014  10.9491  10.9562  10.9939  10.9971
    11.9116  11.9153  12.2302  12.2350  12.8382  12.8463  13.0353  13.0382
    13.0610  13.0631  13.1351  13.1402  13.2985  13.3030  13.3909  13.3966
    13.5801  13.5802  13.9427  13.9495  14.2818  14.2982  14.8146  14.8486
    15.3091  15.3250  15.3849  15.4036  15.6839  15.7119  15.8028  15.8275
    16.1480  16.1613  16.3431  16.3578  17.3385  17.3577

     occupation numbers 
     1.0000   1.0000   1.0000   1.0000   1.0000   1.0000   1.0000   1.0000
     1.0000   1.0000   1.0000   1.0000   1.0000   1.0000   1.0000   1.0000
     1.0000   1.0000   1.0000   1.0000   1.0000   1.0000   1.0000   1.0000
     1.0000   1.0000   1.0000   1.0000   1.0000   1.0000   1.0000   1.0000
     1.0000   1.0000   1.0000   1.0000   1.0000   1.0000   1.0000   1.0000
     1.0000   1.0000   1.0000   1.0000   1.0000   1.0000   1.0000   1.0000
     1.0000   1.0000   1.0000   1.0000   1.0000   1.0000   1.0000   1.0000
     1.0000   1.0000   1.0000   1.0000   1.0000   1.0000   1.0000   1.0000
     1.0000   1.0000   1.0000   1.0000   1.0013   1.0017   0.8785   0.8042
    -0.0346  -0.0331  -0.0240  -0.0208  -0.0005  -0.0003  -0.0000  -0.0000
    -0.0000  -0.0000  -0.0000  -0.0000  -0.0000  -0.0000

          k = 0.0000-0.5000 0.1250 (  8092 PWs)   bands (ev):

   -56.5003 -56.5003 -56.5003 -56.5003 -56.4767 -56.4767 -56.4767 -56.4767
   -28.5868 -28.5868 -28.5811 -28.5811 -28.5242 -28.5242 -28.5218 -28.5218
   -27.6357 -27.6357 -27.5719 -27.5719 -27.5591 -27.5591 -27.5348 -27.5348
   -27.5091 -27.5091 -27.4777 -27.4777 -27.4609 -27.4609 -27.4392 -27.4392
     4.4216   4.4216   4.4220   4.4220   8.0596   8.0596   8.0649   8.0649
    10.0563  10.0563  10.0612  10.0612  10.8860  10.8860  10.8946  10.8946
    12.1688  12.1688  12.1738  12.1738  12.8617  12.8617  12.8690  12.8690
    13.1016  13.1016  13.1071  13.1071  13.3093  13.3093  13.3166  13.3166
    13.7932  13.7932  13.7978  13.7978  14.5906  14.5906  14.6206  14.6206
    15.3205  15.3205  15.3413  15.3413  15.7327  15.7327  15.7618  15.7618
    16.1916  16.1916  16.2039  16.2039  17.6037  17.6102

     occupation numbers 
     1.0000   1.0000   1.0000   1.0000   1.0000   1.0000   1.0000   1.0000
     1.0000   1.0000   1.0000   1.0000   1.0000   1.0000   1.0000   1.0000
     1.0000   1.0000   1.0000   1.0000   1.0000   1.0000   1.0000   1.0000
     1.0000   1.0000   1.0000   1.0000   1.0000   1.0000   1.0000   1.0000
     1.0000   1.0000   1.0000   1.0000   1.0000   1.0000   1.0000   1.0000
     1.0000   1.0000   1.0000   1.0000   1.0000   1.0000   1.0000   1.0000
     1.0000   1.0000   1.0000   1.0000   1.0000   1.0000   1.0000   1.0000
     1.0000   1.0000   1.0000   1.0000   1.0000   1.0000   1.0000   1.0000
     1.0000   1.0000   1.0000   1.0000   1.0338   1.0338   1.0355   1.0355
    -0.0336  -0.0336  -0.0310  -0.0310  -0.0002  -0.0002  -0.0001  -0.0001
    -0.0000  -0.0000  -0.0000  -0.0000  -0.0000  -0.0000

          k = 0.0000 0.3750 0.2500 (  8101 PWs)   bands (ev):

   -56.5035 -56.5035 -56.4946 -56.4946 -56.4793 -56.4793 -56.4766 -56.4766
   -28.5869 -28.5829 -28.5768 -28.5753 -28.5404 -28.5378 -28.5152 -28.5142
   -27.6309 -27.6281 -27.5788 -27.5748 -27.5601 -27.5516 -27.5414 -27.5329
   -27.5220 -27.5022 -27.4904 -27.4826 -27.4618 -27.4490 -27.4362 -27.4336
     4.0406   4.0408   5.4166   5.4173   7.0481   7.0490   8.0211   8.0257
     9.9595   9.9628  10.2696  10.2749  10.9114  10.9153  11.0725  11.0746
    11.9254  11.9299  12.2415  12.2451  12.5547  12.5588  12.7987  12.8038
    13.1007  13.1072  13.3334  13.3383  13.5325  13.5376  13.6284  13.6347
    13.7284  13.7395  13.9987  14.0099  14.4336  14.4578  14.8077  14.8389
    15.1055  15.1241  15.1496  15.1675  15.5615  15.5883  15.6546  15.6828
    16.1881  16.1978  16.4141  16.4253  17.2850  17.3160

     occupation numbers 
     1.0000   1.0000   1.0000   1.0000   1.0000   1.0000   1.0000   1.0000
     1.0000   1.0000   1.0000   1.0000   1.0000   1.0000   1.0000   1.0000
     1.0000   1.0000   1.0000   1.0000   1.0000   1.0000   1.0000   1.0000
     1.0000   1.0000   1.0000   1.0000   1.0000   1.0000   1.0000   1.0000
     1.0000   1.0000   1.0000   1.0000   1.0000   1.0000   1.0000   1.0000
     1.0000   1.0000   1.0000   1.0000   1.0000   1.0000   1.0000   1.0000
     1.0000   1.0000   1.0000   1.0000   1.0000   1.0000   1.0000   1.0000
     1.0000   1.0000   1.0000   1.0000   1.0000   1.0000   1.0000   1.0000
     1.0000   1.0000   1.0000   1.0000   1.0104   1.0134   0.8917   0.8270
     0.1019   0.0704   0.0348   0.0149  -0.0036  -0.0024  -0.0008  -0.0005
    -0.0000  -0.0000  -0.0000  -0.0000  -0.0000  -0.0000

          k = 0.0000-0.5000 0.2500 (  8098 PWs)   bands (ev):

   -56.4991 -56.4991 -56.4991 -56.4991 -56.4779 -56.4779 -56.4779 -56.4779
   -28.5831 -28.5831 -28.5779 -28.5779 -28.5288 -28.5288 -28.5254 -28.5254
   -27.6289 -27.6289 -27.5760 -27.5760 -27.5567 -27.5567 -27.5333 -27.5333
   -27.5170 -27.5170 -27.4878 -27.4878 -27.4541 -27.4541 -27.4341 -27.4341
     4.6910   4.6910   4.6917   4.6917   7.4870   7.4870   7.4905   7.4905
    10.2659  10.2659  10.2706  10.2706  10.8447  10.8447  10.8492  10.8492
    12.0954  12.0954  12.1011  12.1011  12.6610  12.6610  12.6716  12.6716
    13.1885  13.1885  13.1957  13.1957  13.6629  13.6629  13.6727  13.6727
    13.8552  13.8552  13.8624  13.8624  14.6380  14.6380  14.6712  14.6712
    15.0913  15.0913  15.1179  15.1179  15.5704  15.5704  15.5974  15.5974
    16.2852  16.2852  16.2964  16.2964  17.4773  17.4778

     occupation numbers 
     1.0000   1.0000   1.0000   1.0000   1.0000   1.0000   1.0000   1.0000
     1.0000   1.0000   1.0000   1.0000   1.0000   1.0000   1.0000   1.0000
     1.0000   1.0000   1.0000   1.0000   1.0000   1.0000   1.0000   1.0000
     1.0000   1.0000   1.0000   1.0000   1.0000   1.0000   1.0000   1.0000
     1.0000   1.0000   1.0000   1.0000   1.0000   1.0000   1.0000   1.0000
     1.0000   1.0000   1.0000   1.0000   1.0000   1.0000   1.0000   1.0000
     1.0000   1.0000   1.0000   1.0000   1.0000   1.0000   1.0000   1.0000
     1.0000   1.0000   1.0000   1.0000   1.0000   1.0000   1.0000   1.0000
     1.0000   1.0000   1.0000   1.0000   1.0349   1.0349   1.0290   1.0290
     0.1291   0.1291   0.0804   0.0804  -0.0031  -0.0031  -0.0021  -0.0021
    -0.0000  -0.0000  -0.0000  -0.0000  -0.0000  -0.0000

          k = 0.0000-0.5000 0.3750 (  8066 PWs)   bands (ev):

   -56.4977 -56.4977 -56.4977 -56.4977 -56.4793 -56.4793 -56.4793 -56.4793
   -28.5782 -28.5782 -28.5747 -28.5747 -28.5332 -28.5332 -28.5304 -28.5304
   -27.6179 -27.6179 -27.5888 -27.5888 -27.5470 -27.5470 -27.5312 -27.5312
   -27.5218 -27.5218 -27.5031 -27.5031 -27.4441 -27.4441 -27.4331 -27.4331
     5.0894   5.0894   5.0902   5.0902   6.8139   6.8139   6.8160   6.8160
    10.6242  10.6242  10.6264  10.6264  10.8529  10.8529  10.8564  10.8564
    11.8733  11.8733  11.8766  11.8766  12.3352  12.3352  12.3430  12.3430
    13.3023  13.3023  13.3078  13.3078  13.9495  13.9495  13.9561  13.9561
    14.0791  14.0791  14.0871  14.0871  14.6218  14.6218  14.6538  14.6538
    14.8225  14.8225  14.8627  14.8627  15.4473  15.4473  15.4664  15.4664
    16.4443  16.4443  16.4566  16.4566  17.1893  17.1909

     occupation numbers 
     1.0000   1.0000   1.0000   1.0000   1.0000   1.0000   1.0000   1.0000
     1.0000   1.0000   1.0000   1.0000   1.0000   1.0000   1.0000   1.0000
     1.0000   1.0000   1.0000   1.0000   1.0000   1.0000   1.0000   1.0000
     1.0000   1.0000   1.0000   1.0000   1.0000   1.0000   1.0000   1.0000
     1.0000   1.0000   1.0000   1.0000   1.0000   1.0000   1.0000   1.0000
     1.0000   1.0000   1.0000   1.0000   1.0000   1.0000   1.0000   1.0000
     1.0000   1.0000   1.0000   1.0000   1.0000   1.0000   1.0000   1.0000
     1.0000   1.0000   1.0000   1.0000   1.0000   1.0000   1.0000   1.0000
     1.0000   1.0000   1.0000   1.0000   1.0355   1.0355   1.0329   1.0329
     0.8627   0.8627   0.7693   0.7693  -0.0141  -0.0141  -0.0116  -0.0116
    -0.0000  -0.0000  -0.0000  -0.0000  -0.0000  -0.0000

          k =-0.1250 0.3750 0.2500 (  8097 PWs)   bands (ev):

   -56.5028 -56.5028 -56.4943 -56.4943 -56.4799 -56.4799 -56.4770 -56.4770
   -28.5859 -28.5819 -28.5753 -28.5738 -28.5414 -28.5389 -28.5172 -28.5161
   -27.6291 -27.6262 -27.5789 -27.5730 -27.5617 -27.5539 -27.5410 -27.5359
   -27.5187 -27.5095 -27.4843 -27.4780 -27.4646 -27.4525 -27.4352 -27.4330
     4.1378   4.1381   5.4902   5.4917   7.0411   7.0438   7.9714   7.9757
     9.4173   9.4199  10.2016  10.2030  10.9147  10.9162  11.5450  11.5486
    11.7467  11.7488  12.1893  12.1930  12.6586  12.6631  12.8607  12.8663
    13.0837  13.0884  13.2587  13.2706  13.4137  13.4169  13.6459  13.6573
    13.7958  13.8047  14.0776  14.0866  14.4879  14.5149  14.8193  14.8473
    15.0855  15.1047  15.1645  15.1822  15.4851  15.4971  15.6246  15.6430
    16.1959  16.2042  16.4167  16.4283  17.2543  17.2837

     occupation numbers 
     1.0000   1.0000   1.0000   1.0000   1.0000   1.0000   1.0000   1.0000
     1.0000   1.0000   1.0000   1.0000   1.0000   1.0000   1.0000   1.0000
     1.0000   1.0000   1.0000   1.0000   1.0000   1.0000   1.0000   1.0000
     1.0000   1.0000   1.0000   1.0000   1.0000   1.0000   1.0000   1.0000
     1.0000   1.0000   1.0000   1.0000   1.0000   1.0000   1.0000   1.0000
     1.0000   1.0000   1.0000   1.0000   1.0000   1.0000   1.0000   1.0000
     1.0000   1.0000   1.0000   1.0000   1.0000   1.0000   1.0000   1.0000
     1.0000   1.0000   1.0000   1.0000   1.0000   1.0000   1.0000   1.0000
     1.0000   1.0000   1.0000   1.0000   1.0179   1.0223   0.8690   0.8074
     0.1411   0.1034   0.0179   0.0015  -0.0094  -0.0082  -0.0014  -0.0010
    -0.0000  -0.0000  -0.0000  -0.0000  -0.0000  -0.0000

          k =-0.1250-0.5000 0.2500 (  8078 PWs)   bands (ev):

   -56.4985 -56.4985 -56.4985 -56.4985 -56.4785 -56.4785 -56.4785 -56.4785
   -28.5818 -28.5818 -28.5767 -28.5767 -28.5305 -28.5305 -28.5269 -28.5269
   -27.6267 -27.6267 -27.5749 -27.5749 -27.5600 -27.5600 -27.5320 -27.5320
   -27.5201 -27.5201 -27.4831 -27.4831 -27.4570 -27.4570 -27.4336 -27.4336
     4.7801   4.7801   4.7809   4.7809   7.4709   7.4709   7.4754   7.4754
     9.7732   9.7732   9.7742   9.7742  11.2720  11.2720  11.2771  11.2771
    11.9371  11.9371  11.9421  11.9421  12.7542  12.7542  12.7643  12.7643
    13.1586  13.1586  13.1673  13.1673  13.5598  13.5598  13.5681  13.5681
    13.9632  13.9632  13.9726  13.9726  14.6793  14.6793  14.7128  14.7128
    15.0794  15.0794  15.1044  15.1044  15.5322  15.5322  15.5541  15.5541
    16.2893  16.2893  16.2999  16.2999  17.4690  17.4697

     occupation numbers 
     1.0000   1.0000   1.0000   1.0000   1.0000   1.0000   1.0000   1.0000
     1.0000   1.0000   1.0000   1.0000   1.0000   1.0000   1.0000   1.0000
     1.0000   1.0000   1.0000   1.0000   1.0000   1.0000   1.0000   1.0000
     1.0000   1.0000   1.0000   1.0000   1.0000   1.0000   1.0000   1.0000
     1.0000   1.0000   1.0000   1.0000   1.0000   1.0000   1.0000   1.0000
     1.0000   1.0000   1.0000   1.0000   1.0000   1.0000   1.0000   1.0000
     1.0000   1.0000   1.0000   1.0000   1.0000   1.0000   1.0000   1.0000
     1.0000   1.0000   1.0000   1.0000   1.0000   1.0000   1.0000   1.0000
     1.0000   1.0000   1.0000   1.0000   1.0264   1.0264   1.0096   1.0096
     0.1540   0.1540   0.1039   0.1039  -0.0053  -0.0053  -0.0039  -0.0039
    -0.0000  -0.0000  -0.0000  -0.0000  -0.0000  -0.0000

          k =-0.1250-0.5000 0.3750 (  8080 PWs)   bands (ev):

   -56.4971 -56.4971 -56.4971 -56.4971 -56.4799 -56.4799 -56.4799 -56.4799
   -28.5769 -28.5769 -28.5734 -28.5734 -28.5349 -28.5349 -28.5320 -28.5320
   -27.6162 -27.6162 -27.5874 -27.5874 -27.5530 -27.5530 -27.5323 -27.5323
   -27.5212 -27.5212 -27.4959 -27.4959 -27.4470 -27.4470 -27.4338 -27.4338
     5.1726   5.1726   5.1737   5.1737   6.8569   6.8569   6.8597   6.8597
     9.9474   9.9474   9.9500   9.9500  11.1549  11.1549  11.1581  11.1581
    11.9550  11.9550  11.9604  11.9604  12.4573  12.4573  12.4666  12.4666
    13.2326  13.2326  13.2385  13.2385  13.7799  13.7799  13.7930  13.7930
    14.1918  14.1918  14.2003  14.2003  14.6777  14.6777  14.7045  14.7045
    14.8673  14.8673  14.9060  14.9060  15.4180  15.4180  15.4343  15.4343
    16.4130  16.4130  16.4242  16.4242  17.1500  17.1520

     occupation numbers 
     1.0000   1.0000   1.0000   1.0000   1.0000   1.0000   1.0000   1.0000
     1.0000   1.0000   1.0000   1.0000   1.0000   1.0000   1.0000   1.0000
     1.0000   1.0000   1.0000   1.0000   1.0000   1.0000   1.0000   1.0000
     1.0000   1.0000   1.0000   1.0000   1.0000   1.0000   1.0000   1.0000
     1.0000   1.0000   1.0000   1.0000   1.0000   1.0000   1.0000   1.0000
     1.0000   1.0000   1.0000   1.0000   1.0000   1.0000   1.0000   1.0000
     1.0000   1.0000   1.0000   1.0000   1.0000   1.0000   1.0000   1.0000
     1.0000   1.0000   1.0000   1.0000   1.0000   1.0000   1.0000   1.0000
     1.0003   1.0003   1.0003   1.0003   1.0270   1.0270   1.0147   1.0147
     0.7574   0.7574   0.6492   0.6492  -0.0185  -0.0185  -0.0159  -0.0159
    -0.0000  -0.0000  -0.0000  -0.0000  -0.0000  -0.0000

          k =-0.2500-0.5000 0.3750 (  8076 PWs)   bands (ev):

   -56.4954 -56.4954 -56.4954 -56.4954 -56.4816 -56.4816 -56.4816 -56.4816
   -28.5731 -28.5731 -28.5697 -28.5697 -28.5395 -28.5395 -28.5365 -28.5365
   -27.6112 -27.6112 -27.5841 -27.5841 -27.5638 -27.5638 -27.5401 -27.5401
   -27.5126 -27.5126 -27.4837 -27.4837 -27.4536 -27.4536 -27.4368 -27.4368
     5.4120   5.4120   5.4136   5.4136   6.9226   6.9226   6.9272   6.9272
     9.2752   9.2752   9.2800   9.2800  10.7786  10.7786  10.7813  10.7813
    12.2801  12.2801  12.2884  12.2884  12.7224  12.7224  12.7324  12.7324
    13.1101  13.1101  13.1191  13.1191  13.5280  13.5280  13.5397  13.5397
    14.3816  14.3816  14.3888  14.3888  14.7986  14.7986  14.8170  14.8170
    14.9953  14.9953  15.0269  15.0269  15.3349  15.3349  15.3490  15.3490
    16.3556  16.3556  16.3654  16.3654  17.0031  17.0039

     occupation numbers 
     1.0000   1.0000   1.0000   1.0000   1.0000   1.0000   1.0000   1.0000
     1.0000   1.0000   1.0000   1.0000   1.0000   1.0000   1.0000   1.0000
     1.0000   1.0000   1.0000   1.0000   1.0000   1.0000   1.0000   1.0000
     1.0000   1.0000   1.0000   1.0000   1.0000   1.0000   1.0000   1.0000
     1.0000   1.0000   1.0000   1.0000   1.0000   1.0000   1.0000   1.0000
     1.0000   1.0000   1.0000   1.0000   1.0000   1.0000   1.0000   1.0000
     1.0000   1.0000   1.0000   1.0000   1.0000   1.0000   1.0000   1.0000
     1.0000   1.0000   1.0000   1.0000   1.0000   1.0000   1.0000   1.0000
     1.0056   1.0056   1.0061   1.0061   0.9081   0.9081   0.8738   0.8738
     0.3758   0.3758   0.2845   0.2845  -0.0319  -0.0319  -0.0299  -0.0299
    -0.0000  -0.0000  -0.0000  -0.0000  -0.0000  -0.0000

     the Fermi energy is    14.9549 ev

!    total energy              =   -1180.34941740 Ry

     total all-electron energy =    -10727.810254 Ry
     estimated scf accuracy    <       0.00000021 Ry
     smearing contrib. (-TS)   =      -0.00080959 Ry
     internal energy E=F+TS    =   -1180.34860780 Ry

     The total energy is F=E-TS. E is the sum of the following terms:
     one-electron contribution =    -336.79585616 Ry
     hartree contribution      =     207.04077496 Ry
     xc contribution           =    -114.36145100 Ry
     ewald contribution        =    -496.51183961 Ry
     one-center paw contrib.   =    -439.72023599 Ry
      -> PAW hartree energy AE =     126.70410252 Ry
      -> PAW hartree energy PS =    -125.73695818 Ry
      -> PAW xc energy AE      =     -96.23850631 Ry
      -> PAW xc energy PS      =      20.93150878 Ry
      -> total E_H with PAW    =     208.00791930 Ry
      -> total E_XC with PAW   =    -189.66844853 Ry

     convergence has been achieved in   8 iterations

     Writing output data file /zfs_data/vergnior/martin/Scratch/OAL/CrSi/convergence/cutoff/8x8x8/80/tmp/CrSi.save/
 
     init_run     :      6.55s CPU      6.84s WALL (       1 calls)
     electrons    :    188.05s CPU    192.43s WALL (       1 calls)

     Called by init_run:
     wfcinit      :      5.53s CPU      5.69s WALL (       1 calls)
     wfcinit:atom :      0.05s CPU      0.05s WALL (      45 calls)
     wfcinit:wfcr :      5.28s CPU      5.43s WALL (      45 calls)
     potinit      :      0.17s CPU      0.22s WALL (       1 calls)
     hinit0       :      0.16s CPU      0.17s WALL (       1 calls)

     Called by electrons:
     c_bands      :    157.16s CPU    159.92s WALL (       9 calls)
     sum_band     :     26.09s CPU     27.19s WALL (       9 calls)
     v_of_rho     :      0.15s CPU      0.16s WALL (       9 calls)
     v_h          :      0.01s CPU      0.01s WALL (       9 calls)
     v_xc         :      0.14s CPU      0.14s WALL (       9 calls)
     newd         :      3.91s CPU      4.43s WALL (       9 calls)
     PAW_pot      :      1.11s CPU      1.14s WALL (       9 calls)
     mix_rho      :      0.10s CPU      0.10s WALL (       9 calls)

     Called by c_bands:
     init_us_2    :      0.78s CPU      0.80s WALL (     855 calls)
     cegterg      :    144.07s CPU    146.71s WALL (     405 calls)

     Called by sum_band:
     sum_band:wei :      0.06s CPU      0.06s WALL (       9 calls)
     sum_band:loo :     23.41s CPU     23.85s WALL (       9 calls)
     sum_band:buf :      0.23s CPU      0.26s WALL (     405 calls)
     sum_band:ini :      0.37s CPU      0.38s WALL (     405 calls)
     sum_band:cal :      2.11s CPU      2.13s WALL (     405 calls)
     sum_band:bec :      5.19s CPU      5.20s WALL (     405 calls)
     addusdens    :      2.55s CPU      3.20s WALL (       9 calls)
     addusd:skk   :      0.00s CPU      0.01s WALL (      18 calls)
     addusd:dgemm :      1.01s CPU      1.63s WALL (      18 calls)
     addusd:qvan2 :      1.51s CPU      1.51s WALL (      18 calls)

     Called by *egterg:
     cdiaghg      :     15.34s CPU     15.40s WALL (    2214 calls)
     cegterg:over :      6.92s CPU      6.96s WALL (    1854 calls)
     cegterg:upda :      3.77s CPU      3.80s WALL (    1854 calls)
     cegterg:last :      6.83s CPU      6.86s WALL (    1199 calls)
     h_psi        :     97.41s CPU     99.99s WALL (    2304 calls)
     s_psi        :     15.20s CPU     15.25s WALL (    2304 calls)
     g_psi        :      0.25s CPU      0.25s WALL (    1854 calls)

     Called by h_psi:
     h_psi:calbec :      7.45s CPU      7.51s WALL (    2304 calls)
     vloc_psi     :     75.47s CPU     77.89s WALL (    2304 calls)
     add_vuspsi   :     14.02s CPU     14.11s WALL (    2304 calls)

     General routines
     calbec       :      9.55s CPU      9.63s WALL (    2709 calls)
     fft          :      0.14s CPU      0.14s WALL (     188 calls)
     ffts         :      0.02s CPU      0.06s WALL (      72 calls)
     fftw         :     70.89s CPU     73.13s WALL (  558740 calls)
     interpolate  :      0.04s CPU      0.08s WALL (      36 calls)
 
     Parallel routines
     fft_scatt_xy :      6.95s CPU      7.17s WALL (  559000 calls)
     fft_scatt_yz :     26.69s CPU     27.50s WALL (  559000 calls)

     PAW routines
     PAW_pot      :      1.11s CPU      1.14s WALL (       9 calls)
     PAW_symme    :      0.02s CPU      0.02s WALL (      18 calls)
 
     PWSCF        :   3m17.90s CPU   3m24.10s WALL

 
   This run was terminated on:  19: 6:25  30Jul2021            

=------------------------------------------------------------------------------=
   JOB DONE.
=------------------------------------------------------------------------------=
