MPI startup(): Warning: I_MPI_PMI_LIBRARY will be ignored since the hydra process manager was found
MPI startup(): Warning: I_MPI_PMI_LIBRARY will be ignored since the hydra process manager was found
MPI startup(): Warning: I_MPI_PMI_LIBRARY will be ignored since the hydra process manager was found
MPI startup(): Warning: I_MPI_PMI_LIBRARY will be ignored since the hydra process manager was found
MPI startup(): Warning: I_MPI_PMI_LIBRARY will be ignored since the hydra process manager was found
MPI startup(): Warning: I_MPI_PMI_LIBRARY will be ignored since the hydra process manager was found
MPI startup(): Warning: I_MPI_PMI_LIBRARY will be ignored since the hydra process manager was found
MPI startup(): Warning: I_MPI_PMI_LIBRARY will be ignored since the hydra process manager was found
MPI startup(): Warning: I_MPI_PMI_LIBRARY will be ignored since the hydra process manager was found
MPI startup(): Warning: I_MPI_PMI_LIBRARY will be ignored since the hydra process manager was found
MPI startup(): Warning: I_MPI_PMI_LIBRARY will be ignored since the hydra process manager was found
MPI startup(): Warning: I_MPI_PMI_LIBRARY will be ignored since the hydra process manager was found
MPI startup(): Warning: I_MPI_PMI_LIBRARY will be ignored since the hydra process manager was found
MPI startup(): Warning: I_MPI_PMI_LIBRARY will be ignored since the hydra process manager was found
MPI startup(): Warning: I_MPI_PMI_LIBRARY will be ignored since the hydra process manager was found
MPI startup(): Warning: I_MPI_PMI_LIBRARY will be ignored since the hydra process manager was found
MPI startup(): Warning: I_MPI_PMI_LIBRARY will be ignored since the hydra process manager was found
MPI startup(): Warning: I_MPI_PMI_LIBRARY will be ignored since the hydra process manager was found
MPI startup(): Warning: I_MPI_PMI_LIBRARY will be ignored since the hydra process manager was found
MPI startup(): Warning: I_MPI_PMI_LIBRARY will be ignored since the hydra process manager was found
MPI startup(): Warning: I_MPI_PMI_LIBRARY will be ignored since the hydra process manager was found
MPI startup(): Warning: I_MPI_PMI_LIBRARY will be ignored since the hydra process manager was found
MPI startup(): Warning: I_MPI_PMI_LIBRARY will be ignored since the hydra process manager was found
MPI startup(): Warning: I_MPI_PMI_LIBRARY will be ignored since the hydra process manager was found

     Program PWSCF v.6.7MaX starts on 30Jul2021 at 18:37:40 

     This program is part of the open-source Quantum ESPRESSO suite
     for quantum simulation of materials; please cite
         "P. Giannozzi et al., J. Phys.:Condens. Matter 21 395502 (2009);
         "P. Giannozzi et al., J. Phys.:Condens. Matter 29 465901 (2017);
          URL http://www.quantum-espresso.org", 
     in publications or presentations arising from this work. More details at
     http://www.quantum-espresso.org/quote

     Parallel version (MPI), running on    24 processors

     MPI processes distributed on     1 nodes
     R & G space division:  proc/nbgrp/npool/nimage =      24
     Waiting for input...
     Reading input from standard input

     Current dimensions of program PWSCF are:
     Max number of different atomic species (ntypx) = 10
     Max number of k-points (npk) =  40000
     Max angular momentum in pseudopotentials (lmaxx) =  3
     file Cr.rel-pbe-spn-kjpaw_psl.1.0.0.UPF: wavefunction(s)  3S 3P 3P 3D 3D renormalized
     file Si.rel-pbe-n-kjpaw_psl.1.0.0.UPF: wavefunction(s)  3S 3P 3P renormalized

     Subspace diagonalization in iterative solution of the eigenvalue problem:
     a serial algorithm will be used

     Message from routine setup:
     using ibrav=0 with symmetry is DISCOURAGED, use correct ibrav instead
 
     Parallelization info
     --------------------
     sticks:   dense  smooth     PW     G-vecs:    dense   smooth      PW
     Min         203      80     23                10671     2688     409
     Max         204      81     24                10674     2693     414
     Sum        4873    1941    553               256119    64589    9843
 


     bravais-lattice index     =            0
     lattice parameter (alat)  =       8.7475  a.u.
     unit-cell volume          =     669.3575 (a.u.)^3
     number of atoms/cell      =            8
     number of atomic types    =            2
     number of electrons       =        72.00
     number of Kohn-Sham states=           86
     kinetic-energy cutoff     =      80.0000  Ry
     charge density cutoff     =     800.0000  Ry
     scf convergence threshold =      1.0E-06
     mixing beta               =       0.7000
     number of iterations used =            8  plain     mixing
     Exchange-correlation= SLA  PW   PBX  PBC
                           (   1   4   3   4   0   0   0)
     Non magnetic calculation with spin-orbit


     celldm(1)=   8.747542  celldm(2)=   0.000000  celldm(3)=   0.000000
     celldm(4)=   0.000000  celldm(5)=   0.000000  celldm(6)=   0.000000

     crystal axes: (cart. coord. in units of alat)
               a(1) = (   1.000000   0.000000   0.000000 )  
               a(2) = (   0.000000   1.000000   0.000000 )  
               a(3) = (   0.000000   0.000000   1.000000 )  

     reciprocal axes: (cart. coord. in units 2 pi/alat)
               b(1) = (  1.000000  0.000000  0.000000 )  
               b(2) = (  0.000000  1.000000  0.000000 )  
               b(3) = (  0.000000  0.000000  1.000000 )  


     PseudoPot. # 1 for Cr read from file:
     ../../../../pseudo/Cr.rel-pbe-spn-kjpaw_psl.1.0.0.UPF
     MD5 check sum: 1e24e2b5251376a8b945118fca0c7981
     Pseudo is Projector augmented-wave + core cor, Zval = 14.0
     Generated using &quot;atomic&quot; code by A. Dal Corso  v.6.3
     Shape of augmentation charge: PSQ
     Using radial grid of 1183 points, 10 beta functions with: 
                l(1) =   0
                l(2) =   0
                l(3) =   1
                l(4) =   1
                l(5) =   1
                l(6) =   1
                l(7) =   2
                l(8) =   2
                l(9) =   2
               l(10) =   2
     Q(r) pseudized with 0 coefficients 


     PseudoPot. # 2 for Si read from file:
     ../../../../pseudo/Si.rel-pbe-n-kjpaw_psl.1.0.0.UPF
     MD5 check sum: d74f6caf6830ea4c2076867160cab1b0
     Pseudo is Projector augmented-wave + core cor, Zval =  4.0
     Generated using &quot;atomic&quot; code by A. Dal Corso  v.6.3
     Shape of augmentation charge: PSQ
     Using radial grid of 1141 points, 10 beta functions with: 
                l(1) =   0
                l(2) =   0
                l(3) =   1
                l(4) =   1
                l(5) =   1
                l(6) =   1
                l(7) =   2
                l(8) =   2
                l(9) =   2
               l(10) =   2
     Q(r) pseudized with 0 coefficients 


     atomic species   valence    mass     pseudopotential
        Cr            14.00    51.99600     Cr( 1.00)
        Si             4.00    28.08500     Si( 1.00)

     12 Sym. Ops. (no inversion) found ( 9 have fractional translation)


                                    s                        frac. trans.

      isym =  1     identity                                     

 cryst.   s( 1) = (     1          0          0      )
                  (     0          1          0      )
                  (     0          0          1      )

 cart.    s( 1) = (  1.0000000  0.0000000  0.0000000 )
                  (  0.0000000  1.0000000  0.0000000 )
                  (  0.0000000  0.0000000  1.0000000 )


      isym =  2     180 deg rotation - cart. axis [0,0,1]        

 cryst.   s( 2) = (    -1          0          0      )    f =(  0.5000000 )
                  (     0         -1          0      )       (  0.0000000 )
                  (     0          0          1      )       ( -0.5000000 )

 cart.    s( 2) = ( -1.0000000  0.0000000  0.0000000 )    f =(  0.5000000 )
                  (  0.0000000 -1.0000000  0.0000000 )       (  0.0000000 )
                  (  0.0000000  0.0000000  1.0000000 )       ( -0.5000000 )


      isym =  3     180 deg rotation - cart. axis [0,1,0]        

 cryst.   s( 3) = (    -1          0          0      )    f =(  0.0000000 )
                  (     0          1          0      )       ( -0.5000000 )
                  (     0          0         -1      )       (  0.5000000 )

 cart.    s( 3) = ( -1.0000000  0.0000000  0.0000000 )    f =(  0.0000000 )
                  (  0.0000000  1.0000000  0.0000000 )       ( -0.5000000 )
                  (  0.0000000  0.0000000 -1.0000000 )       (  0.5000000 )


      isym =  4     180 deg rotation - cart. axis [1,0,0]        

 cryst.   s( 4) = (     1          0          0      )    f =(  0.5000000 )
                  (     0         -1          0      )       (  0.5000000 )
                  (     0          0         -1      )       (  0.0000000 )

 cart.    s( 4) = (  1.0000000  0.0000000  0.0000000 )    f =(  0.5000000 )
                  (  0.0000000 -1.0000000  0.0000000 )       (  0.5000000 )
                  (  0.0000000  0.0000000 -1.0000000 )       (  0.0000000 )


      isym =  5     120 deg rotation - cart. axis [-1,-1,-1]     

 cryst.   s( 5) = (     0          0          1      )
                  (     1          0          0      )
                  (     0          1          0      )

 cart.    s( 5) = (  0.0000000  1.0000000  0.0000000 )
                  (  0.0000000  0.0000000  1.0000000 )
                  (  1.0000000  0.0000000  0.0000000 )


      isym =  6     120 deg rotation - cart. axis [-1,1,1]       

 cryst.   s( 6) = (     0          0         -1      )    f =(  0.0000000 )
                  (    -1          0          0      )       ( -0.5000000 )
                  (     0          1          0      )       (  0.5000000 )

 cart.    s( 6) = (  0.0000000 -1.0000000  0.0000000 )    f =(  0.0000000 )
                  (  0.0000000  0.0000000  1.0000000 )       ( -0.5000000 )
                  ( -1.0000000  0.0000000  0.0000000 )       (  0.5000000 )


      isym =  7     120 deg rotation - cart. axis [1,1,-1]       

 cryst.   s( 7) = (     0          0         -1      )    f =(  0.5000000 )
                  (     1          0          0      )       (  0.5000000 )
                  (     0         -1          0      )       (  0.0000000 )

 cart.    s( 7) = (  0.0000000  1.0000000  0.0000000 )    f =(  0.5000000 )
                  (  0.0000000  0.0000000 -1.0000000 )       (  0.5000000 )
                  ( -1.0000000  0.0000000  0.0000000 )       (  0.0000000 )


      isym =  8     120 deg rotation - cart. axis [1,-1,1]       

 cryst.   s( 8) = (     0          0          1      )    f =(  0.5000000 )
                  (    -1          0          0      )       (  0.0000000 )
                  (     0         -1          0      )       ( -0.5000000 )

 cart.    s( 8) = (  0.0000000 -1.0000000  0.0000000 )    f =(  0.5000000 )
                  (  0.0000000  0.0000000 -1.0000000 )       (  0.0000000 )
                  (  1.0000000  0.0000000  0.0000000 )       ( -0.5000000 )


      isym =  9     120 deg rotation - cart. axis [1,1,1]        

 cryst.   s( 9) = (     0          1          0      )
                  (     0          0          1      )
                  (     1          0          0      )

 cart.    s( 9) = (  0.0000000  0.0000000  1.0000000 )
                  (  1.0000000  0.0000000  0.0000000 )
                  (  0.0000000  1.0000000  0.0000000 )


      isym = 10     120 deg rotation - cart. axis [-1,1,-1]      

 cryst.   s(10) = (     0         -1          0      )    f =(  0.5000000 )
                  (     0          0         -1      )       (  0.5000000 )
                  (     1          0          0      )       (  0.0000000 )

 cart.    s(10) = (  0.0000000  0.0000000  1.0000000 )    f =(  0.5000000 )
                  ( -1.0000000  0.0000000  0.0000000 )       (  0.5000000 )
                  (  0.0000000 -1.0000000  0.0000000 )       (  0.0000000 )


      isym = 11     120 deg rotation - cart. axis [1,-1,-1]      

 cryst.   s(11) = (     0         -1          0      )    f =(  0.5000000 )
                  (     0          0          1      )       (  0.0000000 )
                  (    -1          0          0      )       ( -0.5000000 )

 cart.    s(11) = (  0.0000000  0.0000000 -1.0000000 )    f =(  0.5000000 )
                  ( -1.0000000  0.0000000  0.0000000 )       (  0.0000000 )
                  (  0.0000000  1.0000000  0.0000000 )       ( -0.5000000 )


      isym = 12     120 deg rotation - cart. axis [-1,-1,1]      

 cryst.   s(12) = (     0          1          0      )    f =(  0.0000000 )
                  (     0          0         -1      )       ( -0.5000000 )
                  (    -1          0          0      )       (  0.5000000 )

 cart.    s(12) = (  0.0000000  0.0000000 -1.0000000 )    f =(  0.0000000 )
                  (  1.0000000  0.0000000  0.0000000 )       ( -0.5000000 )
                  (  0.0000000 -1.0000000  0.0000000 )       (  0.5000000 )


   Cartesian axes

     site n.     atom                  positions (alat units)
         1           Cr  tau(   1) = (   0.8640000   0.3640000   0.1360000  )
         2           Cr  tau(   2) = (   0.3640000   0.1360000   0.8640000  )
         3           Cr  tau(   3) = (   0.1360000   0.8640000   0.3640000  )
         4           Cr  tau(   4) = (   0.6360000   0.6360000   0.6360000  )
         5           Si  tau(   5) = (   0.1540000   0.6540000   0.8460000  )
         6           Si  tau(   6) = (   0.6540000   0.8460000   0.1540000  )
         7           Si  tau(   7) = (   0.8460000   0.1540000   0.6540000  )
         8           Si  tau(   8) = (   0.3460000   0.3460000   0.3460000  )

   Crystallographic axes

     site n.     atom                  positions (cryst. coord.)
         1           Cr  tau(   1) = (  0.8640000  0.3640000  0.1360000  )
         2           Cr  tau(   2) = (  0.3640000  0.1360000  0.8640000  )
         3           Cr  tau(   3) = (  0.1360000  0.8640000  0.3640000  )
         4           Cr  tau(   4) = (  0.6360000  0.6360000  0.6360000  )
         5           Si  tau(   5) = (  0.1540000  0.6540000  0.8460000  )
         6           Si  tau(   6) = (  0.6540000  0.8460000  0.1540000  )
         7           Si  tau(   7) = (  0.8460000  0.1540000  0.6540000  )
         8           Si  tau(   8) = (  0.3460000  0.3460000  0.3460000  )

     number of k points=    24  Methfessel-Paxton smearing, width (Ry)=  0.0200
                       cart. coord. in units 2pi/alat
        k(    1) = (   0.0000000   0.0000000   0.0000000), wk =   0.0046296
        k(    2) = (   0.0000000   0.0000000   0.1666667), wk =   0.0277778
        k(    3) = (   0.0000000   0.0000000   0.3333333), wk =   0.0277778
        k(    4) = (   0.0000000   0.0000000  -0.5000000), wk =   0.0138889
        k(    5) = (   0.0000000   0.1666667   0.1666667), wk =   0.0555556
        k(    6) = (   0.0000000   0.1666667   0.3333333), wk =   0.0555556
        k(    7) = (   0.0000000   0.1666667  -0.5000000), wk =   0.0277778
        k(    8) = (   0.0000000   0.3333333   0.3333333), wk =   0.0555556
        k(    9) = (   0.0000000   0.3333333  -0.5000000), wk =   0.0277778
        k(   10) = (   0.0000000  -0.5000000  -0.5000000), wk =   0.0138889
        k(   11) = (   0.1666667   0.1666667   0.1666667), wk =   0.0370370
        k(   12) = (   0.1666667   0.1666667   0.3333333), wk =   0.1111111
        k(   13) = (   0.1666667   0.1666667  -0.5000000), wk =   0.0555556
        k(   14) = (   0.1666667   0.3333333   0.3333333), wk =   0.1111111
        k(   15) = (   0.1666667   0.3333333  -0.5000000), wk =   0.0555556
        k(   16) = (   0.1666667  -0.5000000  -0.5000000), wk =   0.0277778
        k(   17) = (   0.3333333   0.3333333   0.3333333), wk =   0.0370370
        k(   18) = (   0.3333333   0.3333333  -0.5000000), wk =   0.0555556
        k(   19) = (   0.3333333  -0.5000000  -0.5000000), wk =   0.0277778
        k(   20) = (  -0.5000000  -0.5000000  -0.5000000), wk =   0.0046296
        k(   21) = (   0.0000000   0.3333333   0.1666667), wk =   0.0555556
        k(   22) = (   0.0000000  -0.5000000   0.1666667), wk =   0.0277778
        k(   23) = (   0.0000000  -0.5000000   0.3333333), wk =   0.0277778
        k(   24) = (  -0.1666667  -0.5000000   0.3333333), wk =   0.0555556

                       cryst. coord.
        k(    1) = (   0.0000000   0.0000000   0.0000000), wk =   0.0046296
        k(    2) = (   0.0000000   0.0000000   0.1666667), wk =   0.0277778
        k(    3) = (   0.0000000   0.0000000   0.3333333), wk =   0.0277778
        k(    4) = (   0.0000000   0.0000000  -0.5000000), wk =   0.0138889
        k(    5) = (   0.0000000   0.1666667   0.1666667), wk =   0.0555556
        k(    6) = (   0.0000000   0.1666667   0.3333333), wk =   0.0555556
        k(    7) = (   0.0000000   0.1666667  -0.5000000), wk =   0.0277778
        k(    8) = (   0.0000000   0.3333333   0.3333333), wk =   0.0555556
        k(    9) = (   0.0000000   0.3333333  -0.5000000), wk =   0.0277778
        k(   10) = (   0.0000000  -0.5000000  -0.5000000), wk =   0.0138889
        k(   11) = (   0.1666667   0.1666667   0.1666667), wk =   0.0370370
        k(   12) = (   0.1666667   0.1666667   0.3333333), wk =   0.1111111
        k(   13) = (   0.1666667   0.1666667  -0.5000000), wk =   0.0555556
        k(   14) = (   0.1666667   0.3333333   0.3333333), wk =   0.1111111
        k(   15) = (   0.1666667   0.3333333  -0.5000000), wk =   0.0555556
        k(   16) = (   0.1666667  -0.5000000  -0.5000000), wk =   0.0277778
        k(   17) = (   0.3333333   0.3333333   0.3333333), wk =   0.0370370
        k(   18) = (   0.3333333   0.3333333  -0.5000000), wk =   0.0555556
        k(   19) = (   0.3333333  -0.5000000  -0.5000000), wk =   0.0277778
        k(   20) = (  -0.5000000  -0.5000000  -0.5000000), wk =   0.0046296
        k(   21) = (   0.0000000   0.3333333   0.1666667), wk =   0.0555556
        k(   22) = (   0.0000000  -0.5000000   0.1666667), wk =   0.0277778
        k(   23) = (   0.0000000  -0.5000000   0.3333333), wk =   0.0277778
        k(   24) = (  -0.1666667  -0.5000000   0.3333333), wk =   0.0555556

     Dense  grid:   256119 G-vectors     FFT dimensions: (  80,  80,  80)

     Smooth grid:    64589 G-vectors     FFT dimensions: (  50,  50,  50)

     Dynamical RAM for                 wfc:       0.88 MB

     Dynamical RAM for     wfc (w. buffer):      22.11 MB

     Dynamical RAM for           str. fact:       0.33 MB

     Dynamical RAM for           local pot:       0.00 MB

     Dynamical RAM for          nlocal pot:       1.40 MB

     Dynamical RAM for                qrad:      11.88 MB

     Dynamical RAM for          rho,v,vnew:       4.30 MB

     Dynamical RAM for               rhoin:       1.43 MB

     Dynamical RAM for            rho*nmix:      10.42 MB

     Dynamical RAM for           G-vectors:       0.63 MB

     Dynamical RAM for          h,s,v(r/c):       1.35 MB

     Dynamical RAM for          <psi|beta>:       0.71 MB

     Dynamical RAM for                 psi:       1.77 MB

     Dynamical RAM for                hpsi:       1.77 MB

     Dynamical RAM for                spsi:       1.77 MB

     Dynamical RAM for      wfcinit/wfcrot:       2.02 MB

     Dynamical RAM for           addusdens:      99.99 MB

     Estimated static dynamical RAM per process >      54.56 MB

     Estimated max dynamical RAM per process >     154.55 MB

     Estimated total dynamical RAM >       3.62 GB

     Initial potential from superposition of free atoms

     starting charge   71.99469, renormalised to   72.00000
     Starting wfcs are  112 randomized atomic wfcs
     Checking if some PAW data can be deallocated... 
       PAW data deallocated on   12 nodes for type:  1
       PAW data deallocated on   12 nodes for type:  2

     total cpu time spent up to now is        6.7 secs

     Self-consistent Calculation

     iteration #  1     ecut=    80.00 Ry     beta= 0.70
     Davidson diagonalization with overlap
     ethr =  1.00E-02,  avg # of iterations =  2.0

     Threshold (ethr) on eigenvalues was too large:
     Diagonalizing with lowered threshold

     Davidson diagonalization with overlap
     ethr =  2.09E-04,  avg # of iterations =  4.4

     total cpu time spent up to now is       26.9 secs

     total energy              =   -1180.30814885 Ry
     estimated scf accuracy    <       0.18896835 Ry

     iteration #  2     ecut=    80.00 Ry     beta= 0.70
     Davidson diagonalization with overlap
     ethr =  2.62E-04,  avg # of iterations =  3.2

     total cpu time spent up to now is       37.5 secs

     total energy              =   -1180.31288471 Ry
     estimated scf accuracy    <       0.08259615 Ry

     iteration #  3     ecut=    80.00 Ry     beta= 0.70
     Davidson diagonalization with overlap
     ethr =  1.15E-04,  avg # of iterations =  5.0

     total cpu time spent up to now is       50.3 secs

     total energy              =   -1180.32473044 Ry
     estimated scf accuracy    <       0.16271954 Ry

     iteration #  4     ecut=    80.00 Ry     beta= 0.70
     Davidson diagonalization with overlap
     ethr =  1.15E-04,  avg # of iterations =  4.1

     total cpu time spent up to now is       60.7 secs

     total energy              =   -1180.34855034 Ry
     estimated scf accuracy    <       0.00027265 Ry

     iteration #  5     ecut=    80.00 Ry     beta= 0.70
     Davidson diagonalization with overlap
     ethr =  3.79E-07,  avg # of iterations =  8.3

     total cpu time spent up to now is       77.0 secs

     total energy              =   -1180.34920033 Ry
     estimated scf accuracy    <       0.00038483 Ry

     iteration #  6     ecut=    80.00 Ry     beta= 0.70
     Davidson diagonalization with overlap
     ethr =  3.79E-07,  avg # of iterations =  3.6

     total cpu time spent up to now is       86.8 secs

     total energy              =   -1180.34926045 Ry
     estimated scf accuracy    <       0.00000182 Ry

     iteration #  7     ecut=    80.00 Ry     beta= 0.70
     Davidson diagonalization with overlap
     ethr =  2.53E-09,  avg # of iterations =  7.5

     total cpu time spent up to now is      103.2 secs

     total energy              =   -1180.34926226 Ry
     estimated scf accuracy    <       0.00002222 Ry

     iteration #  8     ecut=    80.00 Ry     beta= 0.70
     Davidson diagonalization with overlap
     ethr =  2.53E-09,  avg # of iterations =  5.1

     total cpu time spent up to now is      116.8 secs

     End of self-consistent calculation

          k = 0.0000 0.0000 0.0000 (  8217 PWs)   bands (ev):

   -56.5144 -56.5144 -56.4797 -56.4797 -56.4797 -56.4797 -56.4797 -56.4797
   -28.5801 -28.5801 -28.5727 -28.5727 -28.5727 -28.5727 -28.4834 -28.4834
   -27.6143 -27.6143 -27.6143 -27.6143 -27.5378 -27.5378 -27.5378 -27.5378
   -27.5336 -27.5336 -27.4513 -27.4513 -27.4507 -27.4507 -27.4507 -27.4507
     2.6985   2.6985   7.4569   7.4569   7.4569   7.4569   7.4661   7.4661
    10.5371  10.5371  10.5451  10.5451  10.5451  10.5451  11.9112  11.9112
    11.9112  11.9112  11.9223  11.9223  12.6023  12.6023  12.7722  12.7722
    12.7722  12.7722  13.1445  13.1445  13.1445  13.1445  13.1456  13.1456
    13.6725  13.6725  13.6725  13.6725  13.6763  13.6763  15.5524  15.5524
    15.5837  15.5837  15.5837  15.5837  15.7674  15.7674  15.7674  15.7674
    16.6655  16.6655  16.6959  16.6959  16.6959  16.6959

     occupation numbers 
     1.0000   1.0000   1.0000   1.0000   1.0000   1.0000   1.0000   1.0000
     1.0000   1.0000   1.0000   1.0000   1.0000   1.0000   1.0000   1.0000
     1.0000   1.0000   1.0000   1.0000   1.0000   1.0000   1.0000   1.0000
     1.0000   1.0000   1.0000   1.0000   1.0000   1.0000   1.0000   1.0000
     1.0000   1.0000   1.0000   1.0000   1.0000   1.0000   1.0000   1.0000
     1.0000   1.0000   1.0000   1.0000   1.0000   1.0000   1.0000   1.0000
     1.0000   1.0000   1.0000   1.0000   1.0000   1.0000   1.0000   1.0000
     1.0000   1.0000   1.0000   1.0000   1.0000   1.0000   1.0000   1.0000
     1.0000   1.0000   1.0000   1.0000   1.0000   1.0000  -0.0038  -0.0038
    -0.0024  -0.0024  -0.0024  -0.0024  -0.0001  -0.0001  -0.0001  -0.0001
    -0.0000  -0.0000  -0.0000  -0.0000  -0.0000  -0.0000

          k = 0.0000 0.0000 0.1667 (  8129 PWs)   bands (ev):

   -56.5126 -56.5126 -56.4853 -56.4853 -56.4791 -56.4791 -56.4764 -56.4764
   -28.5877 -28.5808 -28.5769 -28.5762 -28.5621 -28.5588 -28.4884 -28.4883
   -27.6310 -27.6229 -27.6012 -27.5935 -27.5504 -27.5446 -27.5409 -27.5314
   -27.5288 -27.5165 -27.4615 -27.4593 -27.4563 -27.4494 -27.4483 -27.4432
     2.8906   2.8906   6.5400   6.5425   7.5631   7.5650   8.1197   8.1291
     9.9482   9.9524  10.6628  10.6653  11.0718  11.0747  11.2873  11.2880
    11.5001  11.5049  12.4492  12.4596  12.7393  12.7616  12.8027  12.8094
    13.0114  13.0147  13.1087  13.1112  13.1978  13.1999  13.2285  13.2288
    13.5322  13.5423  13.6328  13.6354  13.9641  13.9646  15.2943  15.3152
    15.4179  15.4254  15.6942  15.7037  15.7494  15.7678  15.7928  15.8184
    16.4072  16.4227  16.5954  16.6029  16.9907  17.0113

     occupation numbers 
     1.0000   1.0000   1.0000   1.0000   1.0000   1.0000   1.0000   1.0000
     1.0000   1.0000   1.0000   1.0000   1.0000   1.0000   1.0000   1.0000
     1.0000   1.0000   1.0000   1.0000   1.0000   1.0000   1.0000   1.0000
     1.0000   1.0000   1.0000   1.0000   1.0000   1.0000   1.0000   1.0000
     1.0000   1.0000   1.0000   1.0000   1.0000   1.0000   1.0000   1.0000
     1.0000   1.0000   1.0000   1.0000   1.0000   1.0000   1.0000   1.0000
     1.0000   1.0000   1.0000   1.0000   1.0000   1.0000   1.0000   1.0000
     1.0000   1.0000   1.0000   1.0000   1.0000   1.0000   1.0000   1.0000
     1.0000   1.0000   1.0000   1.0000   1.0000   1.0000  -0.0353  -0.0338
    -0.0179  -0.0167  -0.0004  -0.0003  -0.0001  -0.0001  -0.0001  -0.0000
    -0.0000  -0.0000  -0.0000  -0.0000  -0.0000  -0.0000

          k = 0.0000 0.0000 0.3333 (  8093 PWs)   bands (ev):

   -56.5077 -56.5077 -56.4926 -56.4926 -56.4777 -56.4777 -56.4754 -56.4754
   -28.5903 -28.5836 -28.5825 -28.5787 -28.5432 -28.5407 -28.5023 -28.5018
   -27.6387 -27.6308 -27.5828 -27.5783 -27.5629 -27.5431 -27.5379 -27.5291
   -27.5274 -27.4972 -27.4788 -27.4658 -27.4629 -27.4520 -27.4475 -27.4414
     3.4510   3.4511   5.4201   5.4208   7.8602   7.8642   8.5100   8.5196
     9.6515   9.6530  10.6589  10.6612  10.7714  10.7838  11.0447  11.0476
    11.8630  11.8649  12.1344  12.1502  12.8387  12.8548  12.9332  12.9426
    13.1151  13.1210  13.1707  13.1758  13.2588  13.2617  13.3945  13.3968
    13.4521  13.4542  13.9163  13.9201  14.1178  14.1245  14.8896  14.9238
    15.3589  15.3673  15.5371  15.5554  15.7453  15.7736  15.8551  15.8792
    16.1950  16.2109  16.3708  16.3844  17.3063  17.3223

     occupation numbers 
     1.0000   1.0000   1.0000   1.0000   1.0000   1.0000   1.0000   1.0000
     1.0000   1.0000   1.0000   1.0000   1.0000   1.0000   1.0000   1.0000
     1.0000   1.0000   1.0000   1.0000   1.0000   1.0000   1.0000   1.0000
     1.0000   1.0000   1.0000   1.0000   1.0000   1.0000   1.0000   1.0000
     1.0000   1.0000   1.0000   1.0000   1.0000   1.0000   1.0000   1.0000
     1.0000   1.0000   1.0000   1.0000   1.0000   1.0000   1.0000   1.0000
     1.0000   1.0000   1.0000   1.0000   1.0000   1.0000   1.0000   1.0000
     1.0000   1.0000   1.0000   1.0000   1.0000   1.0000   1.0000   1.0000
     1.0000   1.0000   1.0000   1.0000   1.0001   1.0001   0.6854   0.5841
    -0.0277  -0.0263  -0.0047  -0.0037  -0.0001  -0.0001  -0.0000  -0.0000
    -0.0000  -0.0000  -0.0000  -0.0000  -0.0000  -0.0000

          k = 0.0000 0.0000-0.5000 (  8008 PWs)   bands (ev):

   -56.5005 -56.5005 -56.5005 -56.5005 -56.4761 -56.4761 -56.4761 -56.4761
   -28.5878 -28.5878 -28.5821 -28.5821 -28.5219 -28.5219 -28.5204 -28.5204
   -27.6375 -27.6375 -27.5726 -27.5726 -27.5575 -27.5575 -27.5345 -27.5345
   -27.5038 -27.5038 -27.4795 -27.4795 -27.4577 -27.4577 -27.4442 -27.4442
     4.3285   4.3285   4.3287   4.3287   8.2827   8.2827   8.2892   8.2892
    10.0168  10.0168  10.0208  10.0208  10.8981  10.8981  10.9094  10.9094
    12.2474  12.2474  12.2540  12.2540  12.6859  12.6859  12.6983  12.6983
    13.1424  13.1424  13.1429  13.1429  13.2380  13.2380  13.2416  13.2416
    13.7830  13.7830  13.7861  13.7861  14.5653  14.5653  14.5939  14.5939
    15.4025  15.4025  15.4204  15.4204  15.8070  15.8070  15.8368  15.8368
    16.1661  16.1661  16.1799  16.1799  17.5422  17.5438

     occupation numbers 
     1.0000   1.0000   1.0000   1.0000   1.0000   1.0000   1.0000   1.0000
     1.0000   1.0000   1.0000   1.0000   1.0000   1.0000   1.0000   1.0000
     1.0000   1.0000   1.0000   1.0000   1.0000   1.0000   1.0000   1.0000
     1.0000   1.0000   1.0000   1.0000   1.0000   1.0000   1.0000   1.0000
     1.0000   1.0000   1.0000   1.0000   1.0000   1.0000   1.0000   1.0000
     1.0000   1.0000   1.0000   1.0000   1.0000   1.0000   1.0000   1.0000
     1.0000   1.0000   1.0000   1.0000   1.0000   1.0000   1.0000   1.0000
     1.0000   1.0000   1.0000   1.0000   1.0000   1.0000   1.0000   1.0000
     1.0000   1.0000   1.0000   1.0000   1.0311   1.0311   1.0344   1.0344
    -0.0203  -0.0203  -0.0175  -0.0175  -0.0000  -0.0000  -0.0000  -0.0000
    -0.0000  -0.0000  -0.0000  -0.0000  -0.0000  -0.0000

          k = 0.0000 0.1667 0.1667 (  8107 PWs)   bands (ev):

   -56.5109 -56.5109 -56.4872 -56.4872 -56.4797 -56.4797 -56.4756 -56.4756
   -28.5895 -28.5837 -28.5745 -28.5744 -28.5583 -28.5545 -28.4931 -28.4930
   -27.6318 -27.6276 -27.5919 -27.5880 -27.5516 -27.5483 -27.5442 -27.5369
   -27.5206 -27.5073 -27.4702 -27.4665 -27.4593 -27.4505 -27.4437 -27.4395
     3.0802   3.0803   6.3973   6.4017   7.2077   7.2121   8.4069   8.4123
     9.8326   9.8359  10.5100  10.5124  10.7871  10.7884  11.3572  11.3602
    11.7799  11.7803  12.4120  12.4177  12.5877  12.5954  12.9950  12.9963
    13.0909  13.0991  13.1725  13.1733  13.2440  13.2506  13.3363  13.3413
    13.4676  13.4755  13.7328  13.7469  14.0758  14.0831  15.2522  15.2740
    15.3017  15.3211  15.5365  15.5485  15.6966  15.7176  15.8148  15.8393
    16.2774  16.2944  16.6071  16.6168  17.0329  17.0674

     occupation numbers 
     1.0000   1.0000   1.0000   1.0000   1.0000   1.0000   1.0000   1.0000
     1.0000   1.0000   1.0000   1.0000   1.0000   1.0000   1.0000   1.0000
     1.0000   1.0000   1.0000   1.0000   1.0000   1.0000   1.0000   1.0000
     1.0000   1.0000   1.0000   1.0000   1.0000   1.0000   1.0000   1.0000
     1.0000   1.0000   1.0000   1.0000   1.0000   1.0000   1.0000   1.0000
     1.0000   1.0000   1.0000   1.0000   1.0000   1.0000   1.0000   1.0000
     1.0000   1.0000   1.0000   1.0000   1.0000   1.0000   1.0000   1.0000
     1.0000   1.0000   1.0000   1.0000   1.0000   1.0000   1.0000   1.0000
     1.0000   1.0000   1.0000   1.0000   1.0000   1.0000  -0.0330  -0.0352
    -0.0349  -0.0331  -0.0047  -0.0040  -0.0004  -0.0003  -0.0000  -0.0000
    -0.0000  -0.0000  -0.0000  -0.0000  -0.0000  -0.0000

          k = 0.0000 0.1667 0.3333 (  8092 PWs)   bands (ev):

   -56.5063 -56.5063 -56.4927 -56.4927 -56.4787 -56.4787 -56.4756 -56.4756
   -28.5893 -28.5843 -28.5782 -28.5761 -28.5438 -28.5413 -28.5062 -28.5059
   -27.6350 -27.6296 -27.5809 -27.5754 -27.5615 -27.5482 -27.5415 -27.5338
   -27.5219 -27.4934 -27.4876 -27.4719 -27.4650 -27.4535 -27.4401 -27.4364
     3.6327   3.6329   5.5377   5.5394   7.3630   7.3656   8.4328   8.4360
     9.7329   9.7361  10.1893  10.1936  10.9877  10.9907  11.3852  11.3949
    11.7521  11.7565  12.1891  12.1979  12.5944  12.6021  12.8764  12.8852
    13.1128  13.1222  13.2519  13.2576  13.3796  13.3809  13.5262  13.5362
    13.5893  13.6025  13.9890  13.9996  14.2436  14.2560  14.9094  14.9404
    15.2254  15.2440  15.3459  15.3559  15.6549  15.6799  15.8066  15.8369
    16.1518  16.1613  16.4395  16.4525  17.2365  17.2694

     occupation numbers 
     1.0000   1.0000   1.0000   1.0000   1.0000   1.0000   1.0000   1.0000
     1.0000   1.0000   1.0000   1.0000   1.0000   1.0000   1.0000   1.0000
     1.0000   1.0000   1.0000   1.0000   1.0000   1.0000   1.0000   1.0000
     1.0000   1.0000   1.0000   1.0000   1.0000   1.0000   1.0000   1.0000
     1.0000   1.0000   1.0000   1.0000   1.0000   1.0000   1.0000   1.0000
     1.0000   1.0000   1.0000   1.0000   1.0000   1.0000   1.0000   1.0000
     1.0000   1.0000   1.0000   1.0000   1.0000   1.0000   1.0000   1.0000
     1.0000   1.0000   1.0000   1.0000   1.0000   1.0000   1.0000   1.0000
     1.0000   1.0000   1.0000   1.0000   1.0007   1.0009   0.6276   0.5328
    -0.0260  -0.0314  -0.0298  -0.0282  -0.0008  -0.0005  -0.0000  -0.0000
    -0.0000  -0.0000  -0.0000  -0.0000  -0.0000  -0.0000

          k = 0.0000 0.1667-0.5000 (  8096 PWs)   bands (ev):

   -56.4998 -56.4998 -56.4998 -56.4998 -56.4769 -56.4769 -56.4769 -56.4769
   -28.5855 -28.5855 -28.5800 -28.5800 -28.5253 -28.5253 -28.5227 -28.5227
   -27.6333 -27.6333 -27.5728 -27.5728 -27.5582 -27.5582 -27.5340 -27.5340
   -27.5117 -27.5117 -27.4798 -27.4798 -27.4604 -27.4604 -27.4372 -27.4372
     4.4933   4.4933   4.4939   4.4939   7.8951   7.8951   7.9020   7.9020
    10.0149  10.0149  10.0188  10.0188  11.1033  11.1033  11.1174  11.1174
    12.0902  12.0902  12.0947  12.0947  12.5402  12.5402  12.5559  12.5559
    13.2763  13.2763  13.2772  13.2772  13.3914  13.3914  13.3925  13.3926
    13.8666  13.8666  13.8706  13.8706  14.6205  14.6205  14.6518  14.6518
    15.2384  15.2384  15.2531  15.2531  15.7151  15.7151  15.7448  15.7448
    16.2398  16.2398  16.2504  16.2504  17.4837  17.4885

     occupation numbers 
     1.0000   1.0000   1.0000   1.0000   1.0000   1.0000   1.0000   1.0000
     1.0000   1.0000   1.0000   1.0000   1.0000   1.0000   1.0000   1.0000
     1.0000   1.0000   1.0000   1.0000   1.0000   1.0000   1.0000   1.0000
     1.0000   1.0000   1.0000   1.0000   1.0000   1.0000   1.0000   1.0000
     1.0000   1.0000   1.0000   1.0000   1.0000   1.0000   1.0000   1.0000
     1.0000   1.0000   1.0000   1.0000   1.0000   1.0000   1.0000   1.0000
     1.0000   1.0000   1.0000   1.0000   1.0000   1.0000   1.0000   1.0000
     1.0000   1.0000   1.0000   1.0000   1.0000   1.0000   1.0000   1.0000
     1.0000   1.0000   1.0000   1.0000   1.0354   1.0354   1.0326   1.0326
    -0.0300  -0.0300  -0.0331  -0.0331  -0.0003  -0.0003  -0.0001  -0.0001
    -0.0000  -0.0000  -0.0000  -0.0000  -0.0000  -0.0000

          k = 0.0000 0.3333 0.3333 (  8090 PWs)   bands (ev):

   -56.5027 -56.5027 -56.4941 -56.4941 -56.4797 -56.4797 -56.4768 -56.4768
   -28.5854 -28.5815 -28.5745 -28.5735 -28.5415 -28.5392 -28.5170 -28.5163
   -27.6265 -27.6252 -27.5820 -27.5763 -27.5574 -27.5498 -27.5382 -27.5370
   -27.5207 -27.5014 -27.4991 -27.4877 -27.4589 -27.4451 -27.4358 -27.4326
     4.1583   4.1587   5.6399   5.6420   6.6784   6.6812   7.8198   7.8236
    10.0316  10.0343  10.3051  10.3081  10.9409  10.9426  11.2583  11.2604
    11.8947  11.9013  12.1582  12.1626  12.3095  12.3191  12.6284  12.6363
    13.1795  13.1878  13.3913  13.3963  13.5601  13.5629  13.7205  13.7259
    13.8833  13.8950  14.0944  14.1071  14.4877  14.5134  14.8483  14.8599
    14.9412  14.9615  15.0579  15.0746  15.5228  15.5460  15.6032  15.6331
    16.2325  16.2413  16.4899  16.4968  17.1472  17.1778

     occupation numbers 
     1.0000   1.0000   1.0000   1.0000   1.0000   1.0000   1.0000   1.0000
     1.0000   1.0000   1.0000   1.0000   1.0000   1.0000   1.0000   1.0000
     1.0000   1.0000   1.0000   1.0000   1.0000   1.0000   1.0000   1.0000
     1.0000   1.0000   1.0000   1.0000   1.0000   1.0000   1.0000   1.0000
     1.0000   1.0000   1.0000   1.0000   1.0000   1.0000   1.0000   1.0000
     1.0000   1.0000   1.0000   1.0000   1.0000   1.0000   1.0000   1.0000
     1.0000   1.0000   1.0000   1.0000   1.0000   1.0000   1.0000   1.0000
     1.0000   1.0000   1.0000   1.0000   1.0000   1.0000   1.0000   1.0000
     1.0000   1.0000   1.0000   1.0001   1.0184   1.0227   0.7955   0.7663
     0.5304   0.4673   0.1941   0.1561  -0.0057  -0.0042  -0.0018  -0.0011
    -0.0000  -0.0000  -0.0000  -0.0000  -0.0000  -0.0000

          k = 0.0000 0.3333-0.5000 (  8092 PWs)   bands (ev):

   -56.4980 -56.4980 -56.4980 -56.4980 -56.4787 -56.4787 -56.4787 -56.4787
   -28.5796 -28.5796 -28.5755 -28.5755 -28.5316 -28.5316 -28.5287 -28.5287
   -27.6212 -27.6212 -27.5843 -27.5843 -27.5498 -27.5498 -27.5319 -27.5319
   -27.5200 -27.5200 -27.4986 -27.4986 -27.4476 -27.4476 -27.4330 -27.4330
     4.9494   4.9494   4.9508   4.9508   7.0286   7.0286   7.0335   7.0335
    10.3306  10.3306  10.3326  10.3326  11.2379  11.2379  11.2463  11.2463
    11.7608  11.7608  11.7663  11.7663  12.3340  12.3340  12.3414  12.3414
    13.3671  13.3671  13.3742  13.3742  13.6751  13.6751  13.6838  13.6838
    14.1704  14.1704  14.1760  14.1760  14.6109  14.6109  14.6300  14.6300
    14.9437  14.9437  14.9585  14.9585  15.4986  15.4986  15.5228  15.5228
    16.4405  16.4405  16.4513  16.4513  17.1968  17.2063

     occupation numbers 
     1.0000   1.0000   1.0000   1.0000   1.0000   1.0000   1.0000   1.0000
     1.0000   1.0000   1.0000   1.0000   1.0000   1.0000   1.0000   1.0000
     1.0000   1.0000   1.0000   1.0000   1.0000   1.0000   1.0000   1.0000
     1.0000   1.0000   1.0000   1.0000   1.0000   1.0000   1.0000   1.0000
     1.0000   1.0000   1.0000   1.0000   1.0000   1.0000   1.0000   1.0000
     1.0000   1.0000   1.0000   1.0000   1.0000   1.0000   1.0000   1.0000
     1.0000   1.0000   1.0000   1.0000   1.0000   1.0000   1.0000   1.0000
     1.0000   1.0000   1.0000   1.0000   1.0000   1.0000   1.0000   1.0000
     1.0002   1.0002   1.0002   1.0002   1.0354   1.0354   1.0351   1.0351
     0.5227   0.5227   0.4764   0.4764  -0.0077  -0.0077  -0.0057  -0.0057
    -0.0000  -0.0000  -0.0000  -0.0000  -0.0000  -0.0000

          k = 0.0000-0.5000-0.5000 (  8068 PWs)   bands (ev):

   -56.4969 -56.4969 -56.4969 -56.4969 -56.4797 -56.4797 -56.4797 -56.4797
   -28.5744 -28.5744 -28.5744 -28.5744 -28.5338 -28.5338 -28.5338 -28.5338
   -27.6034 -27.6034 -27.6034 -27.6034 -27.5363 -27.5363 -27.5363 -27.5363
   -27.5165 -27.5165 -27.5165 -27.5165 -27.4368 -27.4368 -27.4368 -27.4368
     5.3713   5.3713   5.3713   5.3713   6.4277   6.4277   6.4277   6.4277
    10.7058  10.7058  10.7058  10.7058  11.2428  11.2428  11.2428  11.2428
    11.3853  11.3853  11.3853  11.3853  12.2844  12.2844  12.2844  12.2844
    13.3625  13.3625  13.3625  13.3625  14.0072  14.0072  14.0072  14.0072
    14.2945  14.2945  14.2945  14.2945  14.5252  14.5252  14.5252  14.5252
    14.7576  14.7576  14.7576  14.7576  15.4180  15.4180  15.4180  15.4180
    16.5875  16.5875  16.5875  16.5875  16.9850  16.9850

     occupation numbers 
     1.0000   1.0000   1.0000   1.0000   1.0000   1.0000   1.0000   1.0000
     1.0000   1.0000   1.0000   1.0000   1.0000   1.0000   1.0000   1.0000
     1.0000   1.0000   1.0000   1.0000   1.0000   1.0000   1.0000   1.0000
     1.0000   1.0000   1.0000   1.0000   1.0000   1.0000   1.0000   1.0000
     1.0000   1.0000   1.0000   1.0000   1.0000   1.0000   1.0000   1.0000
     1.0000   1.0000   1.0000   1.0000   1.0000   1.0000   1.0000   1.0000
     1.0000   1.0000   1.0000   1.0000   1.0000   1.0000   1.0000   1.0000
     1.0000   1.0000   1.0000   1.0000   1.0000   1.0000   1.0000   1.0000
     1.0017   1.0017   1.0017   1.0017   1.0247   1.0247   1.0247   1.0247
     0.9635   0.9635   0.9635   0.9635  -0.0178  -0.0178  -0.0178  -0.0178
    -0.0000  -0.0000  -0.0000  -0.0000  -0.0000  -0.0000

          k = 0.1667 0.1667 0.1667 (  8106 PWs)   bands (ev):

   -56.5094 -56.5094 -56.4883 -56.4883 -56.4803 -56.4803 -56.4754 -56.4754
   -28.5898 -28.5845 -28.5726 -28.5725 -28.5562 -28.5522 -28.4977 -28.4974
   -27.6311 -27.6287 -27.5894 -27.5806 -27.5520 -27.5479 -27.5470 -27.5441
   -27.5149 -27.5020 -27.4797 -27.4667 -27.4598 -27.4561 -27.4386 -27.4381
     3.2674   3.2674   6.3450   6.3517   7.0383   7.0470   8.3234   8.3256
     9.7322   9.7349  10.5174  10.5182  10.5473  10.5487  11.3854  11.3909
    11.9876  11.9881  12.3200  12.3282  12.8284  12.8338  12.8344  12.8407
    13.1023  13.1077  13.1342  13.1343  13.2099  13.2160  13.5214  13.5265
    13.6006  13.6101  13.7835  13.7889  14.1526  14.1612  15.2048  15.2194
    15.2724  15.2871  15.4711  15.4723  15.5232  15.5388  15.7926  15.8074
    16.2236  16.2405  16.6026  16.6142  17.0472  17.0874

     occupation numbers 
     1.0000   1.0000   1.0000   1.0000   1.0000   1.0000   1.0000   1.0000
     1.0000   1.0000   1.0000   1.0000   1.0000   1.0000   1.0000   1.0000
     1.0000   1.0000   1.0000   1.0000   1.0000   1.0000   1.0000   1.0000
     1.0000   1.0000   1.0000   1.0000   1.0000   1.0000   1.0000   1.0000
     1.0000   1.0000   1.0000   1.0000   1.0000   1.0000   1.0000   1.0000
     1.0000   1.0000   1.0000   1.0000   1.0000   1.0000   1.0000   1.0000
     1.0000   1.0000   1.0000   1.0000   1.0000   1.0000   1.0000   1.0000
     1.0000   1.0000   1.0000   1.0000   1.0000   1.0000   1.0000   1.0000
     1.0000   1.0000   1.0000   1.0000   1.0001   1.0002  -0.0167  -0.0237
    -0.0351  -0.0354  -0.0105  -0.0104  -0.0057  -0.0046  -0.0001  -0.0000
    -0.0000  -0.0000  -0.0000  -0.0000  -0.0000  -0.0000

          k = 0.1667 0.1667 0.3333 (  8088 PWs)   bands (ev):

   -56.5050 -56.5050 -56.4926 -56.4926 -56.4797 -56.4797 -56.4760 -56.4760
   -28.5880 -28.5834 -28.5753 -28.5737 -28.5448 -28.5421 -28.5102 -28.5095
   -27.6317 -27.6275 -27.5805 -27.5723 -27.5603 -27.5511 -27.5439 -27.5392
   -27.5165 -27.5034 -27.4809 -27.4708 -27.4685 -27.4570 -27.4363 -27.4347
     3.8117   3.8118   5.6522   5.6544   7.1827   7.1867   8.2390   8.2425
     9.3520   9.3545  10.2214  10.2238  10.9245  10.9282  11.4676  11.4709
    11.8289  11.8331  12.2174  12.2194  12.7505  12.7595  12.9440  12.9502
    13.0780  13.0867  13.1962  13.2047  13.2923  13.2959  13.5435  13.5503
    13.7618  13.7670  14.0123  14.0212  14.3516  14.3689  14.9060  14.9335
    15.1897  15.2048  15.2821  15.2920  15.5024  15.5170  15.7129  15.7337
    16.1652  16.1747  16.4524  16.4663  17.2163  17.2475

     occupation numbers 
     1.0000   1.0000   1.0000   1.0000   1.0000   1.0000   1.0000   1.0000
     1.0000   1.0000   1.0000   1.0000   1.0000   1.0000   1.0000   1.0000
     1.0000   1.0000   1.0000   1.0000   1.0000   1.0000   1.0000   1.0000
     1.0000   1.0000   1.0000   1.0000   1.0000   1.0000   1.0000   1.0000
     1.0000   1.0000   1.0000   1.0000   1.0000   1.0000   1.0000   1.0000
     1.0000   1.0000   1.0000   1.0000   1.0000   1.0000   1.0000   1.0000
     1.0000   1.0000   1.0000   1.0000   1.0000   1.0000   1.0000   1.0000
     1.0000   1.0000   1.0000   1.0000   1.0000   1.0000   1.0000   1.0000
     1.0000   1.0000   1.0000   1.0000   1.0039   1.0050   0.6376   0.5542
    -0.0073  -0.0167  -0.0354  -0.0353  -0.0073  -0.0061  -0.0003  -0.0002
    -0.0000  -0.0000  -0.0000  -0.0000  -0.0000  -0.0000

          k = 0.1667 0.1667-0.5000 (  8100 PWs)   bands (ev):

   -56.4989 -56.4989 -56.4989 -56.4989 -56.4778 -56.4778 -56.4778 -56.4778
   -28.5832 -28.5832 -28.5779 -28.5779 -28.5284 -28.5284 -28.5251 -28.5251
   -27.6294 -27.6294 -27.5710 -27.5710 -27.5620 -27.5620 -27.5326 -27.5326
   -27.5179 -27.5179 -27.4761 -27.4761 -27.4633 -27.4633 -27.4347 -27.4347
     4.6545   4.6545   4.6553   4.6553   7.7183   7.7183   7.7246   7.7246
     9.6724   9.6724   9.6737   9.6737  11.3989  11.3989  11.4071  11.4071
    11.8729  11.8729  11.8765  11.8765  12.7970  12.7970  12.8090  12.8090
    13.1812  13.1812  13.1917  13.1917  13.4172  13.4172  13.4213  13.4213
    13.9219  13.9219  13.9298  13.9298  14.6720  14.6720  14.7058  14.7058
    15.1620  15.1620  15.1821  15.1821  15.6033  15.6033  15.6259  15.6259
    16.2591  16.2591  16.2687  16.2687  17.5699  17.5732

     occupation numbers 
     1.0000   1.0000   1.0000   1.0000   1.0000   1.0000   1.0000   1.0000
     1.0000   1.0000   1.0000   1.0000   1.0000   1.0000   1.0000   1.0000
     1.0000   1.0000   1.0000   1.0000   1.0000   1.0000   1.0000   1.0000
     1.0000   1.0000   1.0000   1.0000   1.0000   1.0000   1.0000   1.0000
     1.0000   1.0000   1.0000   1.0000   1.0000   1.0000   1.0000   1.0000
     1.0000   1.0000   1.0000   1.0000   1.0000   1.0000   1.0000   1.0000
     1.0000   1.0000   1.0000   1.0000   1.0000   1.0000   1.0000   1.0000
     1.0000   1.0000   1.0000   1.0000   1.0000   1.0000   1.0000   1.0000
     1.0000   1.0000   1.0000   1.0000   1.0276   1.0276   1.0115   1.0115
     0.0164   0.0164  -0.0016  -0.0016  -0.0018  -0.0018  -0.0013  -0.0013
    -0.0000  -0.0000  -0.0000  -0.0000  -0.0000  -0.0000

          k = 0.1667 0.3333 0.3333 (  8086 PWs)   bands (ev):

   -56.5015 -56.5015 -56.4935 -56.4935 -56.4808 -56.4808 -56.4776 -56.4776
   -28.5835 -28.5797 -28.5719 -28.5710 -28.5435 -28.5412 -28.5206 -28.5196
   -27.6242 -27.6213 -27.5811 -27.5739 -27.5622 -27.5536 -27.5426 -27.5355
   -27.5198 -27.5107 -27.4871 -27.4789 -27.4628 -27.4513 -27.4355 -27.4323
     4.3282   4.3286   5.7581   5.7615   6.7214   6.7269   7.7768   7.7804
     9.2003   9.2037  10.0626  10.0662  10.9681  10.9703  11.5784  11.5826
    11.7445  11.7466  12.2588  12.2623  12.4929  12.4993  12.8108  12.8173
    13.1507  13.1549  13.2523  13.2645  13.3992  13.4066  13.6915  13.7067
    13.9164  13.9326  14.2277  14.2384  14.5635  14.5917  14.8630  14.8771
    14.9470  14.9581  15.1225  15.1493  15.4057  15.4084  15.5519  15.5674
    16.2276  16.2351  16.4568  16.4648  17.0963  17.1212

     occupation numbers 
     1.0000   1.0000   1.0000   1.0000   1.0000   1.0000   1.0000   1.0000
     1.0000   1.0000   1.0000   1.0000   1.0000   1.0000   1.0000   1.0000
     1.0000   1.0000   1.0000   1.0000   1.0000   1.0000   1.0000   1.0000
     1.0000   1.0000   1.0000   1.0000   1.0000   1.0000   1.0000   1.0000
     1.0000   1.0000   1.0000   1.0000   1.0000   1.0000   1.0000   1.0000
     1.0000   1.0000   1.0000   1.0000   1.0000   1.0000   1.0000   1.0000
     1.0000   1.0000   1.0000   1.0000   1.0000   1.0000   1.0000   1.0000
     1.0000   1.0000   1.0000   1.0000   1.0000   1.0000   1.0000   1.0000
     1.0000   1.0000   1.0006   1.0007   1.0309   1.0342   0.7584   0.7207
     0.5123   0.4778   0.0668   0.0305  -0.0198  -0.0194  -0.0039  -0.0031
    -0.0000  -0.0000  -0.0000  -0.0000  -0.0000  -0.0000

          k = 0.1667 0.3333-0.5000 (  8076 PWs)   bands (ev):

   -56.4969 -56.4969 -56.4969 -56.4969 -56.4797 -56.4797 -56.4797 -56.4797
   -28.5773 -28.5773 -28.5732 -28.5732 -28.5346 -28.5346 -28.5314 -28.5314
   -27.6180 -27.6180 -27.5820 -27.5820 -27.5577 -27.5577 -27.5338 -27.5338
   -27.5197 -27.5197 -27.4885 -27.4885 -27.4523 -27.4523 -27.4339 -27.4339
     5.1001   5.1001   5.1015   5.1015   7.0732   7.0732   7.0786   7.0786
     9.6225   9.6225   9.6262   9.6262  11.2867  11.2867  11.2885  11.2885
    11.9342  11.9342  11.9431  11.9431  12.5630  12.5630  12.5723  12.5723
    13.2647  13.2647  13.2708  13.2708  13.5480  13.5480  13.5630  13.5630
    14.2337  14.2337  14.2426  14.2426  14.7085  14.7085  14.7298  14.7298
    14.9614  14.9614  14.9792  14.9792  15.4426  15.4426  15.4595  15.4595
    16.3832  16.3832  16.3908  16.3908  17.1586  17.1617

     occupation numbers 
     1.0000   1.0000   1.0000   1.0000   1.0000   1.0000   1.0000   1.0000
     1.0000   1.0000   1.0000   1.0000   1.0000   1.0000   1.0000   1.0000
     1.0000   1.0000   1.0000   1.0000   1.0000   1.0000   1.0000   1.0000
     1.0000   1.0000   1.0000   1.0000   1.0000   1.0000   1.0000   1.0000
     1.0000   1.0000   1.0000   1.0000   1.0000   1.0000   1.0000   1.0000
     1.0000   1.0000   1.0000   1.0000   1.0000   1.0000   1.0000   1.0000
     1.0000   1.0000   1.0000   1.0000   1.0000   1.0000   1.0000   1.0000
     1.0000   1.0000   1.0000   1.0000   1.0000   1.0000   1.0000   1.0000
     1.0006   1.0006   1.0007   1.0007   1.0098   1.0098   0.9933   0.9933
     0.4677   0.4677   0.4127   0.4127  -0.0142  -0.0142  -0.0119  -0.0119
    -0.0000  -0.0000  -0.0000  -0.0000  -0.0000  -0.0000

          k = 0.1667-0.5000-0.5000 (  8080 PWs)   bands (ev):

   -56.4958 -56.4958 -56.4958 -56.4958 -56.4809 -56.4809 -56.4809 -56.4809
   -28.5720 -28.5720 -28.5719 -28.5719 -28.5369 -28.5369 -28.5367 -28.5367
   -27.6042 -27.6042 -27.5974 -27.5974 -27.5521 -27.5521 -27.5378 -27.5378
   -27.5141 -27.5141 -27.4992 -27.4992 -27.4432 -27.4432 -27.4373 -27.4373
     5.5078   5.5078   5.5093   5.5093   6.5306   6.5306   6.5332   6.5332
     9.8342   9.8342   9.8383   9.8383  10.8957  10.8957  10.8979  10.8979
    12.1890  12.1890  12.1916  12.1916  12.3739  12.3739  12.3770  12.3770
    13.2212  13.2212  13.2219  13.2219  13.7552  13.7552  13.7691  13.7691
    14.3904  14.3904  14.3974  14.3974  14.6950  14.6950  14.7124  14.7124
    14.8364  14.8364  14.8382  14.8382  15.3647  15.3647  15.3649  15.3649
    16.4841  16.4841  16.4857  16.4857  16.9512  16.9539

     occupation numbers 
     1.0000   1.0000   1.0000   1.0000   1.0000   1.0000   1.0000   1.0000
     1.0000   1.0000   1.0000   1.0000   1.0000   1.0000   1.0000   1.0000
     1.0000   1.0000   1.0000   1.0000   1.0000   1.0000   1.0000   1.0000
     1.0000   1.0000   1.0000   1.0000   1.0000   1.0000   1.0000   1.0000
     1.0000   1.0000   1.0000   1.0000   1.0000   1.0000   1.0000   1.0000
     1.0000   1.0000   1.0000   1.0000   1.0000   1.0000   1.0000   1.0000
     1.0000   1.0000   1.0000   1.0000   1.0000   1.0000   1.0000   1.0000
     1.0000   1.0000   1.0000   1.0000   1.0000   1.0000   1.0000   1.0000
     1.0066   1.0066   1.0071   1.0071   1.0178   1.0178   1.0072   1.0072
     0.8236   0.8236   0.8194   0.8194  -0.0267  -0.0267  -0.0267  -0.0267
    -0.0000  -0.0000  -0.0000  -0.0000  -0.0000  -0.0000

          k = 0.3333 0.3333 0.3333 (  8084 PWs)   bands (ev):

   -56.4983 -56.4983 -56.4926 -56.4926 -56.4827 -56.4827 -56.4797 -56.4797
   -28.5779 -28.5748 -28.5670 -28.5669 -28.5462 -28.5443 -28.5298 -28.5284
   -27.6165 -27.6129 -27.5797 -27.5698 -27.5697 -27.5682 -27.5465 -27.5334
   -27.5231 -27.5031 -27.4828 -27.4645 -27.4642 -27.4636 -27.4378 -27.4344
     4.8144   4.8148   5.9666   5.9731   6.6627   6.6731   7.5019   7.5045
     8.7480   8.7531   9.4976   9.5040  10.5488  10.5533  11.1926  11.1944
    12.0051  12.0068  12.4955  12.4986  12.7669  12.7710  12.8470  12.8487
    13.1364  13.1482  13.1942  13.2009  13.2637  13.2660  13.5426  13.5458
    14.1376  14.1423  14.4893  14.4976  14.7897  14.8265  14.8478  14.8596
    14.9932  15.0041  15.1345  15.1404  15.2605  15.2875  15.4107  15.4299
    16.2518  16.2587  16.3860  16.3887  16.9523  16.9606

     occupation numbers 
     1.0000   1.0000   1.0000   1.0000   1.0000   1.0000   1.0000   1.0000
     1.0000   1.0000   1.0000   1.0000   1.0000   1.0000   1.0000   1.0000
     1.0000   1.0000   1.0000   1.0000   1.0000   1.0000   1.0000   1.0000
     1.0000   1.0000   1.0000   1.0000   1.0000   1.0000   1.0000   1.0000
     1.0000   1.0000   1.0000   1.0000   1.0000   1.0000   1.0000   1.0000
     1.0000   1.0000   1.0000   1.0000   1.0000   1.0000   1.0000   1.0000
     1.0000   1.0000   1.0000   1.0000   1.0000   1.0000   1.0000   1.0000
     1.0000   1.0000   1.0000   1.0000   1.0000   1.0000   1.0000   1.0000
     1.0001   1.0001   1.0187   1.0201   0.9166   0.8458   0.7966   0.7673
     0.3704   0.3383   0.0493   0.0415  -0.0341  -0.0354  -0.0190  -0.0160
    -0.0000  -0.0000  -0.0000  -0.0000  -0.0000  -0.0000

          k = 0.3333 0.3333-0.5000 (  8070 PWs)   bands (ev):

   -56.4944 -56.4944 -56.4944 -56.4944 -56.4822 -56.4822 -56.4822 -56.4822
   -28.5711 -28.5711 -28.5675 -28.5675 -28.5416 -28.5416 -28.5384 -28.5384
   -27.6088 -27.6088 -27.5800 -27.5800 -27.5696 -27.5696 -27.5432 -27.5432
   -27.5087 -27.5087 -27.4770 -27.4770 -27.4586 -27.4586 -27.4387 -27.4387
     5.5136   5.5136   5.5155   5.5155   6.9761   6.9761   6.9820   6.9820
     9.0500   9.0500   9.0559   9.0559  10.5628  10.5628  10.5658  10.5658
    12.3834  12.3834  12.3918  12.3918  12.8168  12.8168  12.8245  12.8245
    13.1308  13.1308  13.1418  13.1418  13.3756  13.3756  13.3839  13.3839
    14.4634  14.4634  14.4718  14.4718  14.8585  14.8585  14.8742  14.8742
    15.0781  15.0781  15.0974  15.0974  15.2940  15.2940  15.3103  15.3103
    16.3280  16.3280  16.3374  16.3374  16.9263  16.9281

     occupation numbers 
     1.0000   1.0000   1.0000   1.0000   1.0000   1.0000   1.0000   1.0000
     1.0000   1.0000   1.0000   1.0000   1.0000   1.0000   1.0000   1.0000
     1.0000   1.0000   1.0000   1.0000   1.0000   1.0000   1.0000   1.0000
     1.0000   1.0000   1.0000   1.0000   1.0000   1.0000   1.0000   1.0000
     1.0000   1.0000   1.0000   1.0000   1.0000   1.0000   1.0000   1.0000
     1.0000   1.0000   1.0000   1.0000   1.0000   1.0000   1.0000   1.0000
     1.0000   1.0000   1.0000   1.0000   1.0000   1.0000   1.0000   1.0000
     1.0000   1.0000   1.0000   1.0000   1.0000   1.0000   1.0000   1.0000
     1.0148   1.0148   1.0160   1.0160   0.7700   0.7700   0.7286   0.7286
     0.1484   0.1484   0.1097   0.1097  -0.0353  -0.0353  -0.0342  -0.0342
    -0.0000  -0.0000  -0.0000  -0.0000  -0.0000  -0.0000

          k = 0.3333-0.5000-0.5000 (  8080 PWs)   bands (ev):

   -56.4926 -56.4926 -56.4926 -56.4926 -56.4840 -56.4840 -56.4840 -56.4840
   -28.5652 -28.5652 -28.5649 -28.5649 -28.5450 -28.5450 -28.5446 -28.5446
   -27.5981 -27.5981 -27.5897 -27.5897 -27.5698 -27.5698 -27.5475 -27.5475
   -27.5010 -27.5010 -27.4790 -27.4790 -27.4536 -27.4536 -27.4454 -27.4454
     5.8920   5.8920   5.8950   5.8950   6.6647   6.6647   6.6702   6.6702
     9.0934   9.0934   9.1000   9.1000  10.0568  10.0568  10.0610  10.0610
    12.6124  12.6124  12.6164  12.6164  12.7979  12.7979  12.8000  12.8000
    13.0407  13.0407  13.0408  13.0408  13.3502  13.3502  13.3608  13.3608
    14.6539  14.6539  14.6615  14.6615  14.9702  14.9702  14.9777  14.9777
    15.0622  15.0622  15.0678  15.0678  15.2527  15.2527  15.2645  15.2645
    16.3651  16.3651  16.3664  16.3664  16.7176  16.7183

     occupation numbers 
     1.0000   1.0000   1.0000   1.0000   1.0000   1.0000   1.0000   1.0000
     1.0000   1.0000   1.0000   1.0000   1.0000   1.0000   1.0000   1.0000
     1.0000   1.0000   1.0000   1.0000   1.0000   1.0000   1.0000   1.0000
     1.0000   1.0000   1.0000   1.0000   1.0000   1.0000   1.0000   1.0000
     1.0000   1.0000   1.0000   1.0000   1.0000   1.0000   1.0000   1.0000
     1.0000   1.0000   1.0000   1.0000   1.0000   1.0000   1.0000   1.0000
     1.0000   1.0000   1.0000   1.0000   1.0000   1.0000   1.0000   1.0000
     1.0000   1.0000   1.0000   1.0000   1.0000   1.0000   1.0000   1.0000
     1.0322   1.0322   1.0305   1.0305   0.4403   0.4403   0.4173   0.4173
     0.1840   0.1840   0.1712   0.1712  -0.0330  -0.0330  -0.0346  -0.0346
    -0.0000  -0.0000  -0.0000  -0.0000  -0.0000  -0.0000

          k =-0.5000-0.5000-0.5000 (  8144 PWs)   bands (ev):

   -56.4883 -56.4883 -56.4883 -56.4883 -56.4883 -56.4883 -56.4883 -56.4883
   -28.5559 -28.5559 -28.5551 -28.5551 -28.5551 -28.5551 -28.5551 -28.5551
   -27.5861 -27.5861 -27.5861 -27.5861 -27.5861 -27.5861 -27.5516 -27.5516
   -27.4939 -27.4939 -27.4601 -27.4601 -27.4601 -27.4601 -27.4601 -27.4601
     6.3989   6.3989   6.3989   6.3989   6.3989   6.3989   6.4093   6.4093
     9.2380   9.2380   9.2504   9.2504   9.2504   9.2504   9.2504   9.2504
    12.9156  12.9156  12.9221  12.9221  12.9221  12.9221  12.9221  12.9221
    12.9987  12.9987  13.0034  13.0034  13.0034  13.0034  13.0034  13.0034
    14.9317  14.9317  14.9336  14.9336  14.9336  14.9336  14.9336  14.9336
    15.2343  15.2343  15.2343  15.2343  15.2343  15.2343  15.2774  15.2774
    16.4076  16.4088  16.4198  16.4198  16.4198  16.4198

     occupation numbers 
     1.0000   1.0000   1.0000   1.0000   1.0000   1.0000   1.0000   1.0000
     1.0000   1.0000   1.0000   1.0000   1.0000   1.0000   1.0000   1.0000
     1.0000   1.0000   1.0000   1.0000   1.0000   1.0000   1.0000   1.0000
     1.0000   1.0000   1.0000   1.0000   1.0000   1.0000   1.0000   1.0000
     1.0000   1.0000   1.0000   1.0000   1.0000   1.0000   1.0000   1.0000
     1.0000   1.0000   1.0000   1.0000   1.0000   1.0000   1.0000   1.0000
     1.0000   1.0000   1.0000   1.0000   1.0000   1.0000   1.0000   1.0000
     1.0000   1.0000   1.0000   1.0000   1.0000   1.0000   1.0000   1.0000
     0.5598   0.5598   0.5539   0.5539   0.5539   0.5539   0.5539   0.5539
    -0.0289  -0.0289  -0.0289  -0.0289  -0.0289  -0.0289  -0.0354  -0.0354
    -0.0000  -0.0000  -0.0000  -0.0000  -0.0000  -0.0000

          k = 0.0000 0.3333 0.1667 (  8092 PWs)   bands (ev):

   -56.5063 -56.5063 -56.4927 -56.4927 -56.4787 -56.4787 -56.4756 -56.4756
   -28.5893 -28.5844 -28.5780 -28.5762 -28.5439 -28.5411 -28.5064 -28.5057
   -27.6350 -27.6297 -27.5788 -27.5777 -27.5604 -27.5482 -27.5426 -27.5340
   -27.5213 -27.4953 -27.4849 -27.4736 -27.4645 -27.4532 -27.4399 -27.4366
     3.6327   3.6328   5.5374   5.5384   7.3650   7.3662   8.4325   8.4391
     9.7431   9.7455  10.2564  10.2626  10.9711  10.9742  11.0972  11.0998
    11.8627  11.8651  12.2417  12.2457  12.7968  12.8019  12.9748  12.9800
    13.0654  13.0716  13.2437  13.2500  13.3398  13.3445  13.4878  13.4925
    13.5377  13.5401  13.9654  13.9754  14.2287  14.2408  14.8889  14.9209
    15.2767  15.2950  15.3368  15.3538  15.6445  15.6722  15.7837  15.8095
    16.1538  16.1662  16.4211  16.4353  17.2704  17.3002

     occupation numbers 
     1.0000   1.0000   1.0000   1.0000   1.0000   1.0000   1.0000   1.0000
     1.0000   1.0000   1.0000   1.0000   1.0000   1.0000   1.0000   1.0000
     1.0000   1.0000   1.0000   1.0000   1.0000   1.0000   1.0000   1.0000
     1.0000   1.0000   1.0000   1.0000   1.0000   1.0000   1.0000   1.0000
     1.0000   1.0000   1.0000   1.0000   1.0000   1.0000   1.0000   1.0000
     1.0000   1.0000   1.0000   1.0000   1.0000   1.0000   1.0000   1.0000
     1.0000   1.0000   1.0000   1.0000   1.0000   1.0000   1.0000   1.0000
     1.0000   1.0000   1.0000   1.0000   1.0000   1.0000   1.0000   1.0000
     1.0000   1.0000   1.0000   1.0000   1.0006   1.0007   0.6874   0.5929
    -0.0353  -0.0352  -0.0311  -0.0285  -0.0009  -0.0006  -0.0001  -0.0000
    -0.0000  -0.0000  -0.0000  -0.0000  -0.0000  -0.0000

          k = 0.0000-0.5000 0.1667 (  8096 PWs)   bands (ev):

   -56.4998 -56.4998 -56.4998 -56.4998 -56.4769 -56.4769 -56.4769 -56.4769
   -28.5855 -28.5855 -28.5800 -28.5800 -28.5254 -28.5254 -28.5226 -28.5226
   -27.6334 -27.6334 -27.5718 -27.5718 -27.5589 -27.5589 -27.5341 -27.5341
   -27.5118 -27.5118 -27.4798 -27.4798 -27.4601 -27.4601 -27.4374 -27.4374
     4.4930   4.4930   4.4935   4.4935   7.8970   7.8970   7.9017   7.9017
    10.1026  10.1026  10.1076  10.1076  10.8748  10.8748  10.8820  10.8820
    12.1412  12.1412  12.1462  12.1462  12.8618  12.8618  12.8709  12.8709
    13.1079  13.1079  13.1159  13.1159  13.3966  13.3966  13.4058  13.4058
    13.8070  13.8070  13.8124  13.8124  14.6067  14.6067  14.6377  14.6377
    15.2585  15.2585  15.2808  15.2808  15.6824  15.6824  15.7109  15.7109
    16.2147  16.2147  16.2264  16.2264  17.5912  17.5956

     occupation numbers 
     1.0000   1.0000   1.0000   1.0000   1.0000   1.0000   1.0000   1.0000
     1.0000   1.0000   1.0000   1.0000   1.0000   1.0000   1.0000   1.0000
     1.0000   1.0000   1.0000   1.0000   1.0000   1.0000   1.0000   1.0000
     1.0000   1.0000   1.0000   1.0000   1.0000   1.0000   1.0000   1.0000
     1.0000   1.0000   1.0000   1.0000   1.0000   1.0000   1.0000   1.0000
     1.0000   1.0000   1.0000   1.0000   1.0000   1.0000   1.0000   1.0000
     1.0000   1.0000   1.0000   1.0000   1.0000   1.0000   1.0000   1.0000
     1.0000   1.0000   1.0000   1.0000   1.0000   1.0000   1.0000   1.0000
     1.0000   1.0000   1.0000   1.0000   1.0352   1.0352   1.0345   1.0345
    -0.0339  -0.0339  -0.0354  -0.0354  -0.0005  -0.0005  -0.0003  -0.0003
    -0.0000  -0.0000  -0.0000  -0.0000  -0.0000  -0.0000

          k = 0.0000-0.5000 0.3333 (  8092 PWs)   bands (ev):

   -56.4980 -56.4980 -56.4980 -56.4980 -56.4787 -56.4787 -56.4787 -56.4787
   -28.5797 -28.5797 -28.5755 -28.5755 -28.5318 -28.5318 -28.5286 -28.5286
   -27.6215 -27.6215 -27.5835 -27.5835 -27.5504 -27.5504 -27.5312 -27.5312
   -27.5210 -27.5210 -27.4982 -27.4982 -27.4475 -27.4475 -27.4332 -27.4332
     4.9490   4.9490   4.9498   4.9498   7.0317   7.0317   7.0342   7.0342
    10.5070  10.5070  10.5105  10.5105  10.8271  10.8271  10.8293  10.8293
    11.9938  11.9938  11.9992  11.9992  12.4095  12.4095  12.4200  12.4200
    13.2669  13.2669  13.2733  13.2733  13.9136  13.9136  13.9200  13.9200
    13.9553  13.9553  13.9685  13.9685  14.6422  14.6422  14.6757  14.6757
    14.9016  14.9016  14.9375  14.9375  15.4785  15.4785  15.5016  15.5016
    16.3852  16.3852  16.3971  16.3971  17.2936  17.2942

     occupation numbers 
     1.0000   1.0000   1.0000   1.0000   1.0000   1.0000   1.0000   1.0000
     1.0000   1.0000   1.0000   1.0000   1.0000   1.0000   1.0000   1.0000
     1.0000   1.0000   1.0000   1.0000   1.0000   1.0000   1.0000   1.0000
     1.0000   1.0000   1.0000   1.0000   1.0000   1.0000   1.0000   1.0000
     1.0000   1.0000   1.0000   1.0000   1.0000   1.0000   1.0000   1.0000
     1.0000   1.0000   1.0000   1.0000   1.0000   1.0000   1.0000   1.0000
     1.0000   1.0000   1.0000   1.0000   1.0000   1.0000   1.0000   1.0000
     1.0000   1.0000   1.0000   1.0000   1.0000   1.0000   1.0000   1.0000
     1.0000   1.0000   1.0000   1.0000   1.0340   1.0340   1.0263   1.0263
     0.6507   0.6507   0.5418   0.5418  -0.0097  -0.0097  -0.0074  -0.0074
    -0.0000  -0.0000  -0.0000  -0.0000  -0.0000  -0.0000

          k =-0.1667-0.5000 0.3333 (  8076 PWs)   bands (ev):

   -56.4969 -56.4969 -56.4969 -56.4969 -56.4797 -56.4797 -56.4797 -56.4797
   -28.5773 -28.5773 -28.5731 -28.5731 -28.5347 -28.5347 -28.5313 -28.5313
   -27.6182 -27.6182 -27.5815 -27.5815 -27.5582 -27.5582 -27.5335 -27.5335
   -27.5201 -27.5201 -27.4883 -27.4883 -27.4522 -27.4522 -27.4339 -27.4339
     5.0998   5.0998   5.1009   5.1009   7.0752   7.0752   7.0791   7.0791
     9.6360   9.6360   9.6388   9.6388  11.1974  11.1974  11.2005  11.2005
    11.9964  11.9964  12.0030  12.0030  12.6305  12.6305  12.6408  12.6408
    13.1714  13.1714  13.1793  13.1793  13.6490  13.6490  13.6607  13.6607
    14.1690  14.1690  14.1783  14.1783  14.7151  14.7151  14.7403  14.7403
    14.9606  14.9606  14.9919  14.9919  15.4231  15.4231  15.4402  15.4402
    16.3547  16.3547  16.3655  16.3655  17.2141  17.2178

     occupation numbers 
     1.0000   1.0000   1.0000   1.0000   1.0000   1.0000   1.0000   1.0000
     1.0000   1.0000   1.0000   1.0000   1.0000   1.0000   1.0000   1.0000
     1.0000   1.0000   1.0000   1.0000   1.0000   1.0000   1.0000   1.0000
     1.0000   1.0000   1.0000   1.0000   1.0000   1.0000   1.0000   1.0000
     1.0000   1.0000   1.0000   1.0000   1.0000   1.0000   1.0000   1.0000
     1.0000   1.0000   1.0000   1.0000   1.0000   1.0000   1.0000   1.0000
     1.0000   1.0000   1.0000   1.0000   1.0000   1.0000   1.0000   1.0000
     1.0000   1.0000   1.0000   1.0000   1.0000   1.0000   1.0000   1.0000
     1.0002   1.0002   1.0002   1.0002   1.0052   1.0052   0.9831   0.9831
     0.4701   0.4701   0.3743   0.3743  -0.0171  -0.0171  -0.0145  -0.0145
    -0.0000  -0.0000  -0.0000  -0.0000  -0.0000  -0.0000

     the Fermi energy is    14.9510 ev

!    total energy              =   -1180.34926564 Ry

     total all-electron energy =    -10727.810102 Ry
     estimated scf accuracy    <       0.00000068 Ry
     smearing contrib. (-TS)   =      -0.00131181 Ry
     internal energy E=F+TS    =   -1180.34795383 Ry

     The total energy is F=E-TS. E is the sum of the following terms:
     one-electron contribution =    -336.80473345 Ry
     hartree contribution      =     207.05151661 Ry
     xc contribution           =    -114.36269715 Ry
     ewald contribution        =    -496.51183961 Ry
     one-center paw contrib.   =    -439.72020024 Ry
      -> PAW hartree energy AE =     126.70942185 Ry
      -> PAW hartree energy PS =    -125.74225141 Ry
      -> PAW xc energy AE      =     -96.23905465 Ry
      -> PAW xc energy PS      =      20.93202647 Ry
      -> total E_H with PAW    =     208.01868705 Ry
      -> total E_XC with PAW   =    -189.66972532 Ry

     convergence has been achieved in   8 iterations

     Writing output data file /zfs_data/vergnior/martin/Scratch/OAL/CrSi/convergence/cutoff/6x6x6/80/tmp/CrSi.save/
 
     init_run     :      3.96s CPU      4.17s WALL (       1 calls)
     electrons    :    107.27s CPU    110.16s WALL (       1 calls)

     Called by init_run:
     wfcinit      :      2.94s CPU      3.02s WALL (       1 calls)
     wfcinit:atom :      0.03s CPU      0.03s WALL (      24 calls)
     wfcinit:wfcr :      2.81s CPU      2.88s WALL (      24 calls)
     potinit      :      0.17s CPU      0.22s WALL (       1 calls)
     hinit0       :      0.16s CPU      0.17s WALL (       1 calls)

     Called by electrons:
     c_bands      :     87.06s CPU     88.53s WALL (       9 calls)
     sum_band     :     15.43s CPU     16.31s WALL (       9 calls)
     v_of_rho     :      0.15s CPU      0.16s WALL (       9 calls)
     v_h          :      0.01s CPU      0.01s WALL (       9 calls)
     v_xc         :      0.14s CPU      0.14s WALL (       9 calls)
     newd         :      3.90s CPU      4.43s WALL (       9 calls)
     PAW_pot      :      1.12s CPU      1.14s WALL (       9 calls)
     mix_rho      :      0.09s CPU      0.10s WALL (       9 calls)

     Called by c_bands:
     init_us_2    :      0.43s CPU      0.45s WALL (     456 calls)
     cegterg      :     80.09s CPU     81.52s WALL (     216 calls)

     Called by sum_band:
     sum_band:wei :      0.03s CPU      0.03s WALL (       9 calls)
     sum_band:loo :     12.79s CPU     13.01s WALL (       9 calls)
     sum_band:buf :      0.12s CPU      0.14s WALL (     216 calls)
     sum_band:ini :      0.21s CPU      0.21s WALL (     216 calls)
     sum_band:cal :      1.12s CPU      1.13s WALL (     216 calls)
     sum_band:bec :      2.76s CPU      2.77s WALL (     216 calls)
     addusdens    :      2.52s CPU      3.18s WALL (       9 calls)
     addusd:skk   :      0.00s CPU      0.01s WALL (      18 calls)
     addusd:dgemm :      1.00s CPU      1.63s WALL (      18 calls)
     addusd:qvan2 :      1.49s CPU      1.49s WALL (      18 calls)

     Called by *egterg:
     cdiaghg      :      8.58s CPU      8.62s WALL (    1231 calls)
     cegterg:over :      3.93s CPU      3.96s WALL (    1039 calls)
     cegterg:upda :      2.08s CPU      2.10s WALL (    1039 calls)
     cegterg:last :      3.83s CPU      3.85s WALL (     660 calls)
     h_psi        :     53.90s CPU     55.26s WALL (    1279 calls)
     s_psi        :      8.39s CPU      8.42s WALL (    1279 calls)
     g_psi        :      0.14s CPU      0.14s WALL (    1039 calls)

     Called by h_psi:
     h_psi:calbec :      4.12s CPU      4.15s WALL (    1279 calls)
     vloc_psi     :     41.82s CPU     43.11s WALL (    1279 calls)
     add_vuspsi   :      7.71s CPU      7.75s WALL (    1279 calls)

     General routines
     calbec       :      5.23s CPU      5.27s WALL (    1495 calls)
     fft          :      0.14s CPU      0.14s WALL (     188 calls)
     ffts         :      0.02s CPU      0.06s WALL (      72 calls)
     fftw         :     38.95s CPU     40.12s WALL (  306944 calls)
     interpolate  :      0.04s CPU      0.08s WALL (      36 calls)
 
     Parallel routines
     fft_scatt_xy :      3.84s CPU      3.96s WALL (  307204 calls)
     fft_scatt_yz :     14.67s CPU     15.12s WALL (  307204 calls)

     PAW routines
     PAW_pot      :      1.12s CPU      1.14s WALL (       9 calls)
     PAW_symme    :      0.02s CPU      0.02s WALL (      18 calls)
 
     PWSCF        :   1m54.13s CPU   1m58.17s WALL

 
   This run was terminated on:  18:39:39  30Jul2021            

=------------------------------------------------------------------------------=
   JOB DONE.
=------------------------------------------------------------------------------=
