MPI startup(): Warning: I_MPI_PMI_LIBRARY will be ignored since the hydra process manager was found
MPI startup(): Warning: I_MPI_PMI_LIBRARY will be ignored since the hydra process manager was found
MPI startup(): Warning: I_MPI_PMI_LIBRARY will be ignored since the hydra process manager was found
MPI startup(): Warning: I_MPI_PMI_LIBRARY will be ignored since the hydra process manager was found
MPI startup(): Warning: I_MPI_PMI_LIBRARY will be ignored since the hydra process manager was found
MPI startup(): Warning: I_MPI_PMI_LIBRARY will be ignored since the hydra process manager was found
MPI startup(): Warning: I_MPI_PMI_LIBRARY will be ignored since the hydra process manager was found
MPI startup(): Warning: I_MPI_PMI_LIBRARY will be ignored since the hydra process manager was found
MPI startup(): Warning: I_MPI_PMI_LIBRARY will be ignored since the hydra process manager was found
MPI startup(): Warning: I_MPI_PMI_LIBRARY will be ignored since the hydra process manager was found
MPI startup(): Warning: I_MPI_PMI_LIBRARY will be ignored since the hydra process manager was found
MPI startup(): Warning: I_MPI_PMI_LIBRARY will be ignored since the hydra process manager was found
MPI startup(): Warning: I_MPI_PMI_LIBRARY will be ignored since the hydra process manager was found
MPI startup(): Warning: I_MPI_PMI_LIBRARY will be ignored since the hydra process manager was found
MPI startup(): Warning: I_MPI_PMI_LIBRARY will be ignored since the hydra process manager was found
MPI startup(): Warning: I_MPI_PMI_LIBRARY will be ignored since the hydra process manager was found
MPI startup(): Warning: I_MPI_PMI_LIBRARY will be ignored since the hydra process manager was found
MPI startup(): Warning: I_MPI_PMI_LIBRARY will be ignored since the hydra process manager was found
MPI startup(): Warning: I_MPI_PMI_LIBRARY will be ignored since the hydra process manager was found
MPI startup(): Warning: I_MPI_PMI_LIBRARY will be ignored since the hydra process manager was found
MPI startup(): Warning: I_MPI_PMI_LIBRARY will be ignored since the hydra process manager was found
MPI startup(): Warning: I_MPI_PMI_LIBRARY will be ignored since the hydra process manager was found
MPI startup(): Warning: I_MPI_PMI_LIBRARY will be ignored since the hydra process manager was found
MPI startup(): Warning: I_MPI_PMI_LIBRARY will be ignored since the hydra process manager was found

     Program PWSCF v.6.7MaX starts on  1Aug2021 at 12:33:22 

     This program is part of the open-source Quantum ESPRESSO suite
     for quantum simulation of materials; please cite
         "P. Giannozzi et al., J. Phys.:Condens. Matter 21 395502 (2009);
         "P. Giannozzi et al., J. Phys.:Condens. Matter 29 465901 (2017);
          URL http://www.quantum-espresso.org", 
     in publications or presentations arising from this work. More details at
     http://www.quantum-espresso.org/quote

     Parallel version (MPI), running on    24 processors

     MPI processes distributed on     1 nodes
     R & G space division:  proc/nbgrp/npool/nimage =      24
     Waiting for input...
     Reading input from standard input

     Current dimensions of program PWSCF are:
     Max number of different atomic species (ntypx) = 10
     Max number of k-points (npk) =  40000
     Max angular momentum in pseudopotentials (lmaxx) =  3
     file Cr.rel-pbe-spn-kjpaw_psl.1.0.0.UPF: wavefunction(s)  3S 3P 3P 3D 3D renormalized
     file Si.rel-pbe-n-kjpaw_psl.1.0.0.UPF: wavefunction(s)  3S 3P 3P renormalized

     Subspace diagonalization in iterative solution of the eigenvalue problem:
     a serial algorithm will be used

     Message from routine setup:
     using ibrav=0 with symmetry is DISCOURAGED, use correct ibrav instead
 
     Parallelization info
     --------------------
     sticks:   dense  smooth     PW     G-vecs:    dense   smooth      PW
     Min         228      91     25                12702     3210     487
     Max         229      93     26                12704     3214     492
     Sum        5473    2201    621               304867    77053   11753
 


     bravais-lattice index     =            0
     lattice parameter (alat)  =       8.7475  a.u.
     unit-cell volume          =     669.3575 (a.u.)^3
     number of atoms/cell      =            8
     number of atomic types    =            2
     number of electrons       =        72.00
     number of Kohn-Sham states=           86
     kinetic-energy cutoff     =      90.0000  Ry
     charge density cutoff     =     900.0000  Ry
     scf convergence threshold =      1.0E-06
     mixing beta               =       0.7000
     number of iterations used =            8  plain     mixing
     Exchange-correlation= SLA  PW   PBX  PBC
                           (   1   4   3   4   0   0   0)
     Non magnetic calculation with spin-orbit


     celldm(1)=   8.747542  celldm(2)=   0.000000  celldm(3)=   0.000000
     celldm(4)=   0.000000  celldm(5)=   0.000000  celldm(6)=   0.000000

     crystal axes: (cart. coord. in units of alat)
               a(1) = (   1.000000   0.000000   0.000000 )  
               a(2) = (   0.000000   1.000000   0.000000 )  
               a(3) = (   0.000000   0.000000   1.000000 )  

     reciprocal axes: (cart. coord. in units 2 pi/alat)
               b(1) = (  1.000000  0.000000  0.000000 )  
               b(2) = (  0.000000  1.000000  0.000000 )  
               b(3) = (  0.000000  0.000000  1.000000 )  


     PseudoPot. # 1 for Cr read from file:
     ../../../../pseudo/Cr.rel-pbe-spn-kjpaw_psl.1.0.0.UPF
     MD5 check sum: 1e24e2b5251376a8b945118fca0c7981
     Pseudo is Projector augmented-wave + core cor, Zval = 14.0
     Generated using &quot;atomic&quot; code by A. Dal Corso  v.6.3
     Shape of augmentation charge: PSQ
     Using radial grid of 1183 points, 10 beta functions with: 
                l(1) =   0
                l(2) =   0
                l(3) =   1
                l(4) =   1
                l(5) =   1
                l(6) =   1
                l(7) =   2
                l(8) =   2
                l(9) =   2
               l(10) =   2
     Q(r) pseudized with 0 coefficients 


     PseudoPot. # 2 for Si read from file:
     ../../../../pseudo/Si.rel-pbe-n-kjpaw_psl.1.0.0.UPF
     MD5 check sum: d74f6caf6830ea4c2076867160cab1b0
     Pseudo is Projector augmented-wave + core cor, Zval =  4.0
     Generated using &quot;atomic&quot; code by A. Dal Corso  v.6.3
     Shape of augmentation charge: PSQ
     Using radial grid of 1141 points, 10 beta functions with: 
                l(1) =   0
                l(2) =   0
                l(3) =   1
                l(4) =   1
                l(5) =   1
                l(6) =   1
                l(7) =   2
                l(8) =   2
                l(9) =   2
               l(10) =   2
     Q(r) pseudized with 0 coefficients 


     atomic species   valence    mass     pseudopotential
        Cr            14.00    51.99600     Cr( 1.00)
        Si             4.00    28.08500     Si( 1.00)

     12 Sym. Ops. (no inversion) found ( 9 have fractional translation)


                                    s                        frac. trans.

      isym =  1     identity                                     

 cryst.   s( 1) = (     1          0          0      )
                  (     0          1          0      )
                  (     0          0          1      )

 cart.    s( 1) = (  1.0000000  0.0000000  0.0000000 )
                  (  0.0000000  1.0000000  0.0000000 )
                  (  0.0000000  0.0000000  1.0000000 )


      isym =  2     180 deg rotation - cart. axis [0,0,1]        

 cryst.   s( 2) = (    -1          0          0      )    f =(  0.5000000 )
                  (     0         -1          0      )       (  0.0000000 )
                  (     0          0          1      )       ( -0.5000000 )

 cart.    s( 2) = ( -1.0000000  0.0000000  0.0000000 )    f =(  0.5000000 )
                  (  0.0000000 -1.0000000  0.0000000 )       (  0.0000000 )
                  (  0.0000000  0.0000000  1.0000000 )       ( -0.5000000 )


      isym =  3     180 deg rotation - cart. axis [0,1,0]        

 cryst.   s( 3) = (    -1          0          0      )    f =(  0.0000000 )
                  (     0          1          0      )       ( -0.5000000 )
                  (     0          0         -1      )       (  0.5000000 )

 cart.    s( 3) = ( -1.0000000  0.0000000  0.0000000 )    f =(  0.0000000 )
                  (  0.0000000  1.0000000  0.0000000 )       ( -0.5000000 )
                  (  0.0000000  0.0000000 -1.0000000 )       (  0.5000000 )


      isym =  4     180 deg rotation - cart. axis [1,0,0]        

 cryst.   s( 4) = (     1          0          0      )    f =(  0.5000000 )
                  (     0         -1          0      )       (  0.5000000 )
                  (     0          0         -1      )       (  0.0000000 )

 cart.    s( 4) = (  1.0000000  0.0000000  0.0000000 )    f =(  0.5000000 )
                  (  0.0000000 -1.0000000  0.0000000 )       (  0.5000000 )
                  (  0.0000000  0.0000000 -1.0000000 )       (  0.0000000 )


      isym =  5     120 deg rotation - cart. axis [-1,-1,-1]     

 cryst.   s( 5) = (     0          0          1      )
                  (     1          0          0      )
                  (     0          1          0      )

 cart.    s( 5) = (  0.0000000  1.0000000  0.0000000 )
                  (  0.0000000  0.0000000  1.0000000 )
                  (  1.0000000  0.0000000  0.0000000 )


      isym =  6     120 deg rotation - cart. axis [-1,1,1]       

 cryst.   s( 6) = (     0          0         -1      )    f =(  0.0000000 )
                  (    -1          0          0      )       ( -0.5000000 )
                  (     0          1          0      )       (  0.5000000 )

 cart.    s( 6) = (  0.0000000 -1.0000000  0.0000000 )    f =(  0.0000000 )
                  (  0.0000000  0.0000000  1.0000000 )       ( -0.5000000 )
                  ( -1.0000000  0.0000000  0.0000000 )       (  0.5000000 )


      isym =  7     120 deg rotation - cart. axis [1,1,-1]       

 cryst.   s( 7) = (     0          0         -1      )    f =(  0.5000000 )
                  (     1          0          0      )       (  0.5000000 )
                  (     0         -1          0      )       (  0.0000000 )

 cart.    s( 7) = (  0.0000000  1.0000000  0.0000000 )    f =(  0.5000000 )
                  (  0.0000000  0.0000000 -1.0000000 )       (  0.5000000 )
                  ( -1.0000000  0.0000000  0.0000000 )       (  0.0000000 )


      isym =  8     120 deg rotation - cart. axis [1,-1,1]       

 cryst.   s( 8) = (     0          0          1      )    f =(  0.5000000 )
                  (    -1          0          0      )       (  0.0000000 )
                  (     0         -1          0      )       ( -0.5000000 )

 cart.    s( 8) = (  0.0000000 -1.0000000  0.0000000 )    f =(  0.5000000 )
                  (  0.0000000  0.0000000 -1.0000000 )       (  0.0000000 )
                  (  1.0000000  0.0000000  0.0000000 )       ( -0.5000000 )


      isym =  9     120 deg rotation - cart. axis [1,1,1]        

 cryst.   s( 9) = (     0          1          0      )
                  (     0          0          1      )
                  (     1          0          0      )

 cart.    s( 9) = (  0.0000000  0.0000000  1.0000000 )
                  (  1.0000000  0.0000000  0.0000000 )
                  (  0.0000000  1.0000000  0.0000000 )


      isym = 10     120 deg rotation - cart. axis [-1,1,-1]      

 cryst.   s(10) = (     0         -1          0      )    f =(  0.5000000 )
                  (     0          0         -1      )       (  0.5000000 )
                  (     1          0          0      )       (  0.0000000 )

 cart.    s(10) = (  0.0000000  0.0000000  1.0000000 )    f =(  0.5000000 )
                  ( -1.0000000  0.0000000  0.0000000 )       (  0.5000000 )
                  (  0.0000000 -1.0000000  0.0000000 )       (  0.0000000 )


      isym = 11     120 deg rotation - cart. axis [1,-1,-1]      

 cryst.   s(11) = (     0         -1          0      )    f =(  0.5000000 )
                  (     0          0          1      )       (  0.0000000 )
                  (    -1          0          0      )       ( -0.5000000 )

 cart.    s(11) = (  0.0000000  0.0000000 -1.0000000 )    f =(  0.5000000 )
                  ( -1.0000000  0.0000000  0.0000000 )       (  0.0000000 )
                  (  0.0000000  1.0000000  0.0000000 )       ( -0.5000000 )


      isym = 12     120 deg rotation - cart. axis [-1,-1,1]      

 cryst.   s(12) = (     0          1          0      )    f =(  0.0000000 )
                  (     0          0         -1      )       ( -0.5000000 )
                  (    -1          0          0      )       (  0.5000000 )

 cart.    s(12) = (  0.0000000  0.0000000 -1.0000000 )    f =(  0.0000000 )
                  (  1.0000000  0.0000000  0.0000000 )       ( -0.5000000 )
                  (  0.0000000 -1.0000000  0.0000000 )       (  0.5000000 )


   Cartesian axes

     site n.     atom                  positions (alat units)
         1           Cr  tau(   1) = (   0.8640000   0.3640000   0.1360000  )
         2           Cr  tau(   2) = (   0.3640000   0.1360000   0.8640000  )
         3           Cr  tau(   3) = (   0.1360000   0.8640000   0.3640000  )
         4           Cr  tau(   4) = (   0.6360000   0.6360000   0.6360000  )
         5           Si  tau(   5) = (   0.1540000   0.6540000   0.8460000  )
         6           Si  tau(   6) = (   0.6540000   0.8460000   0.1540000  )
         7           Si  tau(   7) = (   0.8460000   0.1540000   0.6540000  )
         8           Si  tau(   8) = (   0.3460000   0.3460000   0.3460000  )

   Crystallographic axes

     site n.     atom                  positions (cryst. coord.)
         1           Cr  tau(   1) = (  0.8640000  0.3640000  0.1360000  )
         2           Cr  tau(   2) = (  0.3640000  0.1360000  0.8640000  )
         3           Cr  tau(   3) = (  0.1360000  0.8640000  0.3640000  )
         4           Cr  tau(   4) = (  0.6360000  0.6360000  0.6360000  )
         5           Si  tau(   5) = (  0.1540000  0.6540000  0.8460000  )
         6           Si  tau(   6) = (  0.6540000  0.8460000  0.1540000  )
         7           Si  tau(   7) = (  0.8460000  0.1540000  0.6540000  )
         8           Si  tau(   8) = (  0.3460000  0.3460000  0.3460000  )

     number of k points=    76  Methfessel-Paxton smearing, width (Ry)=  0.0140
                       cart. coord. in units 2pi/alat
        k(    1) = (   0.0000000   0.0000000   0.0000000), wk =   0.0010000
        k(    2) = (   0.0000000   0.0000000   0.1000000), wk =   0.0060000
        k(    3) = (   0.0000000   0.0000000   0.2000000), wk =   0.0060000
        k(    4) = (   0.0000000   0.0000000   0.3000000), wk =   0.0060000
        k(    5) = (   0.0000000   0.0000000   0.4000000), wk =   0.0060000
        k(    6) = (   0.0000000   0.0000000  -0.5000000), wk =   0.0030000
        k(    7) = (   0.0000000   0.1000000   0.1000000), wk =   0.0120000
        k(    8) = (   0.0000000   0.1000000   0.2000000), wk =   0.0120000
        k(    9) = (   0.0000000   0.1000000   0.3000000), wk =   0.0120000
        k(   10) = (   0.0000000   0.1000000   0.4000000), wk =   0.0120000
        k(   11) = (   0.0000000   0.1000000  -0.5000000), wk =   0.0060000
        k(   12) = (   0.0000000   0.2000000   0.2000000), wk =   0.0120000
        k(   13) = (   0.0000000   0.2000000   0.3000000), wk =   0.0120000
        k(   14) = (   0.0000000   0.2000000   0.4000000), wk =   0.0120000
        k(   15) = (   0.0000000   0.2000000  -0.5000000), wk =   0.0060000
        k(   16) = (   0.0000000   0.3000000   0.3000000), wk =   0.0120000
        k(   17) = (   0.0000000   0.3000000   0.4000000), wk =   0.0120000
        k(   18) = (   0.0000000   0.3000000  -0.5000000), wk =   0.0060000
        k(   19) = (   0.0000000   0.4000000   0.4000000), wk =   0.0120000
        k(   20) = (   0.0000000   0.4000000  -0.5000000), wk =   0.0060000
        k(   21) = (   0.0000000  -0.5000000  -0.5000000), wk =   0.0030000
        k(   22) = (   0.1000000   0.1000000   0.1000000), wk =   0.0080000
        k(   23) = (   0.1000000   0.1000000   0.2000000), wk =   0.0240000
        k(   24) = (   0.1000000   0.1000000   0.3000000), wk =   0.0240000
        k(   25) = (   0.1000000   0.1000000   0.4000000), wk =   0.0240000
        k(   26) = (   0.1000000   0.1000000  -0.5000000), wk =   0.0120000
        k(   27) = (   0.1000000   0.2000000   0.2000000), wk =   0.0240000
        k(   28) = (   0.1000000   0.2000000   0.3000000), wk =   0.0240000
        k(   29) = (   0.1000000   0.2000000   0.4000000), wk =   0.0240000
        k(   30) = (   0.1000000   0.2000000  -0.5000000), wk =   0.0120000
        k(   31) = (   0.1000000   0.3000000   0.3000000), wk =   0.0240000
        k(   32) = (   0.1000000   0.3000000   0.4000000), wk =   0.0240000
        k(   33) = (   0.1000000   0.3000000  -0.5000000), wk =   0.0120000
        k(   34) = (   0.1000000   0.4000000   0.4000000), wk =   0.0240000
        k(   35) = (   0.1000000   0.4000000  -0.5000000), wk =   0.0120000
        k(   36) = (   0.1000000  -0.5000000  -0.5000000), wk =   0.0060000
        k(   37) = (   0.2000000   0.2000000   0.2000000), wk =   0.0080000
        k(   38) = (   0.2000000   0.2000000   0.3000000), wk =   0.0240000
        k(   39) = (   0.2000000   0.2000000   0.4000000), wk =   0.0240000
        k(   40) = (   0.2000000   0.2000000  -0.5000000), wk =   0.0120000
        k(   41) = (   0.2000000   0.3000000   0.3000000), wk =   0.0240000
        k(   42) = (   0.2000000   0.3000000   0.4000000), wk =   0.0240000
        k(   43) = (   0.2000000   0.3000000  -0.5000000), wk =   0.0120000
        k(   44) = (   0.2000000   0.4000000   0.4000000), wk =   0.0240000
        k(   45) = (   0.2000000   0.4000000  -0.5000000), wk =   0.0120000
        k(   46) = (   0.2000000  -0.5000000  -0.5000000), wk =   0.0060000
        k(   47) = (   0.3000000   0.3000000   0.3000000), wk =   0.0080000
        k(   48) = (   0.3000000   0.3000000   0.4000000), wk =   0.0240000
        k(   49) = (   0.3000000   0.3000000  -0.5000000), wk =   0.0120000
        k(   50) = (   0.3000000   0.4000000   0.4000000), wk =   0.0240000
        k(   51) = (   0.3000000   0.4000000  -0.5000000), wk =   0.0120000
        k(   52) = (   0.3000000  -0.5000000  -0.5000000), wk =   0.0060000
        k(   53) = (   0.4000000   0.4000000   0.4000000), wk =   0.0080000
        k(   54) = (   0.4000000   0.4000000  -0.5000000), wk =   0.0120000
        k(   55) = (   0.4000000  -0.5000000  -0.5000000), wk =   0.0060000
        k(   56) = (  -0.5000000  -0.5000000  -0.5000000), wk =   0.0010000
        k(   57) = (   0.0000000   0.2000000   0.1000000), wk =   0.0120000
        k(   58) = (   0.0000000   0.3000000   0.1000000), wk =   0.0120000
        k(   59) = (   0.0000000   0.4000000   0.1000000), wk =   0.0120000
        k(   60) = (   0.0000000  -0.5000000   0.1000000), wk =   0.0060000
        k(   61) = (   0.0000000   0.3000000   0.2000000), wk =   0.0120000
        k(   62) = (   0.0000000   0.4000000   0.2000000), wk =   0.0120000
        k(   63) = (   0.0000000  -0.5000000   0.2000000), wk =   0.0060000
        k(   64) = (   0.0000000   0.4000000   0.3000000), wk =   0.0120000
        k(   65) = (   0.0000000  -0.5000000   0.3000000), wk =   0.0060000
        k(   66) = (   0.0000000  -0.5000000   0.4000000), wk =   0.0060000
        k(   67) = (  -0.1000000   0.3000000   0.2000000), wk =   0.0240000
        k(   68) = (  -0.1000000   0.4000000   0.2000000), wk =   0.0240000
        k(   69) = (  -0.1000000  -0.5000000   0.2000000), wk =   0.0120000
        k(   70) = (  -0.1000000   0.4000000   0.3000000), wk =   0.0240000
        k(   71) = (  -0.1000000  -0.5000000   0.3000000), wk =   0.0120000
        k(   72) = (  -0.1000000  -0.5000000   0.4000000), wk =   0.0120000
        k(   73) = (  -0.2000000   0.4000000   0.3000000), wk =   0.0240000
        k(   74) = (  -0.2000000  -0.5000000   0.3000000), wk =   0.0120000
        k(   75) = (  -0.2000000  -0.5000000   0.4000000), wk =   0.0120000
        k(   76) = (  -0.3000000  -0.5000000   0.4000000), wk =   0.0120000

                       cryst. coord.
        k(    1) = (   0.0000000   0.0000000   0.0000000), wk =   0.0010000
        k(    2) = (   0.0000000   0.0000000   0.1000000), wk =   0.0060000
        k(    3) = (   0.0000000   0.0000000   0.2000000), wk =   0.0060000
        k(    4) = (   0.0000000   0.0000000   0.3000000), wk =   0.0060000
        k(    5) = (   0.0000000   0.0000000   0.4000000), wk =   0.0060000
        k(    6) = (   0.0000000   0.0000000  -0.5000000), wk =   0.0030000
        k(    7) = (   0.0000000   0.1000000   0.1000000), wk =   0.0120000
        k(    8) = (   0.0000000   0.1000000   0.2000000), wk =   0.0120000
        k(    9) = (   0.0000000   0.1000000   0.3000000), wk =   0.0120000
        k(   10) = (   0.0000000   0.1000000   0.4000000), wk =   0.0120000
        k(   11) = (   0.0000000   0.1000000  -0.5000000), wk =   0.0060000
        k(   12) = (   0.0000000   0.2000000   0.2000000), wk =   0.0120000
        k(   13) = (   0.0000000   0.2000000   0.3000000), wk =   0.0120000
        k(   14) = (   0.0000000   0.2000000   0.4000000), wk =   0.0120000
        k(   15) = (   0.0000000   0.2000000  -0.5000000), wk =   0.0060000
        k(   16) = (   0.0000000   0.3000000   0.3000000), wk =   0.0120000
        k(   17) = (   0.0000000   0.3000000   0.4000000), wk =   0.0120000
        k(   18) = (   0.0000000   0.3000000  -0.5000000), wk =   0.0060000
        k(   19) = (   0.0000000   0.4000000   0.4000000), wk =   0.0120000
        k(   20) = (   0.0000000   0.4000000  -0.5000000), wk =   0.0060000
        k(   21) = (   0.0000000  -0.5000000  -0.5000000), wk =   0.0030000
        k(   22) = (   0.1000000   0.1000000   0.1000000), wk =   0.0080000
        k(   23) = (   0.1000000   0.1000000   0.2000000), wk =   0.0240000
        k(   24) = (   0.1000000   0.1000000   0.3000000), wk =   0.0240000
        k(   25) = (   0.1000000   0.1000000   0.4000000), wk =   0.0240000
        k(   26) = (   0.1000000   0.1000000  -0.5000000), wk =   0.0120000
        k(   27) = (   0.1000000   0.2000000   0.2000000), wk =   0.0240000
        k(   28) = (   0.1000000   0.2000000   0.3000000), wk =   0.0240000
        k(   29) = (   0.1000000   0.2000000   0.4000000), wk =   0.0240000
        k(   30) = (   0.1000000   0.2000000  -0.5000000), wk =   0.0120000
        k(   31) = (   0.1000000   0.3000000   0.3000000), wk =   0.0240000
        k(   32) = (   0.1000000   0.3000000   0.4000000), wk =   0.0240000
        k(   33) = (   0.1000000   0.3000000  -0.5000000), wk =   0.0120000
        k(   34) = (   0.1000000   0.4000000   0.4000000), wk =   0.0240000
        k(   35) = (   0.1000000   0.4000000  -0.5000000), wk =   0.0120000
        k(   36) = (   0.1000000  -0.5000000  -0.5000000), wk =   0.0060000
        k(   37) = (   0.2000000   0.2000000   0.2000000), wk =   0.0080000
        k(   38) = (   0.2000000   0.2000000   0.3000000), wk =   0.0240000
        k(   39) = (   0.2000000   0.2000000   0.4000000), wk =   0.0240000
        k(   40) = (   0.2000000   0.2000000  -0.5000000), wk =   0.0120000
        k(   41) = (   0.2000000   0.3000000   0.3000000), wk =   0.0240000
        k(   42) = (   0.2000000   0.3000000   0.4000000), wk =   0.0240000
        k(   43) = (   0.2000000   0.3000000  -0.5000000), wk =   0.0120000
        k(   44) = (   0.2000000   0.4000000   0.4000000), wk =   0.0240000
        k(   45) = (   0.2000000   0.4000000  -0.5000000), wk =   0.0120000
        k(   46) = (   0.2000000  -0.5000000  -0.5000000), wk =   0.0060000
        k(   47) = (   0.3000000   0.3000000   0.3000000), wk =   0.0080000
        k(   48) = (   0.3000000   0.3000000   0.4000000), wk =   0.0240000
        k(   49) = (   0.3000000   0.3000000  -0.5000000), wk =   0.0120000
        k(   50) = (   0.3000000   0.4000000   0.4000000), wk =   0.0240000
        k(   51) = (   0.3000000   0.4000000  -0.5000000), wk =   0.0120000
        k(   52) = (   0.3000000  -0.5000000  -0.5000000), wk =   0.0060000
        k(   53) = (   0.4000000   0.4000000   0.4000000), wk =   0.0080000
        k(   54) = (   0.4000000   0.4000000  -0.5000000), wk =   0.0120000
        k(   55) = (   0.4000000  -0.5000000  -0.5000000), wk =   0.0060000
        k(   56) = (  -0.5000000  -0.5000000  -0.5000000), wk =   0.0010000
        k(   57) = (   0.0000000   0.2000000   0.1000000), wk =   0.0120000
        k(   58) = (   0.0000000   0.3000000   0.1000000), wk =   0.0120000
        k(   59) = (   0.0000000   0.4000000   0.1000000), wk =   0.0120000
        k(   60) = (   0.0000000  -0.5000000   0.1000000), wk =   0.0060000
        k(   61) = (   0.0000000   0.3000000   0.2000000), wk =   0.0120000
        k(   62) = (   0.0000000   0.4000000   0.2000000), wk =   0.0120000
        k(   63) = (   0.0000000  -0.5000000   0.2000000), wk =   0.0060000
        k(   64) = (   0.0000000   0.4000000   0.3000000), wk =   0.0120000
        k(   65) = (   0.0000000  -0.5000000   0.3000000), wk =   0.0060000
        k(   66) = (   0.0000000  -0.5000000   0.4000000), wk =   0.0060000
        k(   67) = (  -0.1000000   0.3000000   0.2000000), wk =   0.0240000
        k(   68) = (  -0.1000000   0.4000000   0.2000000), wk =   0.0240000
        k(   69) = (  -0.1000000  -0.5000000   0.2000000), wk =   0.0120000
        k(   70) = (  -0.1000000   0.4000000   0.3000000), wk =   0.0240000
        k(   71) = (  -0.1000000  -0.5000000   0.3000000), wk =   0.0120000
        k(   72) = (  -0.1000000  -0.5000000   0.4000000), wk =   0.0120000
        k(   73) = (  -0.2000000   0.4000000   0.3000000), wk =   0.0240000
        k(   74) = (  -0.2000000  -0.5000000   0.3000000), wk =   0.0120000
        k(   75) = (  -0.2000000  -0.5000000   0.4000000), wk =   0.0120000
        k(   76) = (  -0.3000000  -0.5000000   0.4000000), wk =   0.0120000

     Dense  grid:   304867 G-vectors     FFT dimensions: (  90,  90,  90)

     Smooth grid:    77053 G-vectors     FFT dimensions: (  54,  54,  54)

     Dynamical RAM for                 wfc:       1.06 MB

     Dynamical RAM for     wfc (w. buffer):      81.24 MB

     Dynamical RAM for           str. fact:       0.39 MB

     Dynamical RAM for           local pot:       0.00 MB

     Dynamical RAM for          nlocal pot:       1.67 MB

     Dynamical RAM for                qrad:      12.61 MB

     Dynamical RAM for          rho,v,vnew:       5.29 MB

     Dynamical RAM for               rhoin:       1.76 MB

     Dynamical RAM for            rho*nmix:      12.41 MB

     Dynamical RAM for           G-vectors:       0.75 MB

     Dynamical RAM for          h,s,v(r/c):       1.35 MB

     Dynamical RAM for          <psi|beta>:       0.71 MB

     Dynamical RAM for                 psi:       2.11 MB

     Dynamical RAM for                hpsi:       2.11 MB

     Dynamical RAM for                spsi:       2.11 MB

     Dynamical RAM for      wfcinit/wfcrot:       2.35 MB

     Dynamical RAM for           addusdens:     119.02 MB

     Dynamical RAM for          addusforce:     120.34 MB

     Dynamical RAM for         addusstress:     121.74 MB

     Estimated static dynamical RAM per process >     118.67 MB

     Estimated max dynamical RAM per process >     240.41 MB

     Estimated total dynamical RAM >       5.63 GB

     Initial potential from superposition of free atoms

     starting charge   71.99469, renormalised to   72.00000
     Starting wfcs are  112 randomized atomic wfcs
     Checking if some PAW data can be deallocated... 
       PAW data deallocated on   12 nodes for type:  1
       PAW data deallocated on   12 nodes for type:  2

     total cpu time spent up to now is       21.0 secs

     Self-consistent Calculation

     iteration #  1     ecut=    90.00 Ry     beta= 0.70
     Davidson diagonalization with overlap
     ethr =  1.00E-02,  avg # of iterations =  2.0

     Threshold (ethr) on eigenvalues was too large:
     Diagonalizing with lowered threshold

     Davidson diagonalization with overlap
     ethr =  2.09E-04,  avg # of iterations =  4.3

     total cpu time spent up to now is      128.8 secs

     total energy              =   -1180.30976432 Ry
     estimated scf accuracy    <       0.18916970 Ry

     iteration #  2     ecut=    90.00 Ry     beta= 0.70
     Davidson diagonalization with overlap
     ethr =  2.63E-04,  avg # of iterations =  3.2

     total cpu time spent up to now is      183.4 secs

     total energy              =   -1180.31441100 Ry
     estimated scf accuracy    <       0.08155570 Ry

     iteration #  3     ecut=    90.00 Ry     beta= 0.70
     Davidson diagonalization with overlap
     ethr =  1.13E-04,  avg # of iterations =  5.1

     total cpu time spent up to now is      249.7 secs

     total energy              =   -1180.32581894 Ry
     estimated scf accuracy    <       0.16387535 Ry

     iteration #  4     ecut=    90.00 Ry     beta= 0.70
     Davidson diagonalization with overlap
     ethr =  1.13E-04,  avg # of iterations =  4.0

     total cpu time spent up to now is      303.0 secs

     total energy              =   -1180.34976630 Ry
     estimated scf accuracy    <       0.00028941 Ry

     iteration #  5     ecut=    90.00 Ry     beta= 0.70
     Davidson diagonalization with overlap
     ethr =  4.02E-07,  avg # of iterations =  8.5

     total cpu time spent up to now is      386.9 secs

     total energy              =   -1180.35039962 Ry
     estimated scf accuracy    <       0.00034496 Ry

     iteration #  6     ecut=    90.00 Ry     beta= 0.70
     Davidson diagonalization with overlap
     ethr =  4.02E-07,  avg # of iterations =  3.1

     total cpu time spent up to now is      434.6 secs

     total energy              =   -1180.35045248 Ry
     estimated scf accuracy    <       0.00000437 Ry

     iteration #  7     ecut=    90.00 Ry     beta= 0.70
     Davidson diagonalization with overlap
     ethr =  6.08E-09,  avg # of iterations =  6.0

     total cpu time spent up to now is      505.5 secs

     total energy              =   -1180.35045574 Ry
     estimated scf accuracy    <       0.00003254 Ry

     iteration #  8     ecut=    90.00 Ry     beta= 0.70
     Davidson diagonalization with overlap
     ethr =  6.08E-09,  avg # of iterations =  5.1

     total cpu time spent up to now is      574.0 secs

     End of self-consistent calculation

          k = 0.0000 0.0000 0.0000 (  9771 PWs)   bands (ev):

   -56.5155 -56.5155 -56.4808 -56.4808 -56.4808 -56.4808 -56.4808 -56.4808
   -28.5811 -28.5811 -28.5734 -28.5734 -28.5734 -28.5734 -28.4841 -28.4841
   -27.6161 -27.6161 -27.6161 -27.6161 -27.5392 -27.5392 -27.5392 -27.5392
   -27.5325 -27.5325 -27.4506 -27.4506 -27.4506 -27.4506 -27.4498 -27.4498
     2.6987   2.6987   7.4569   7.4569   7.4569   7.4569   7.4661   7.4661
    10.5369  10.5369  10.5448  10.5448  10.5448  10.5448  11.9117  11.9117
    11.9117  11.9117  11.9228  11.9228  12.6029  12.6029  12.7721  12.7721
    12.7721  12.7721  13.1432  13.1432  13.1432  13.1432  13.1444  13.1444
    13.6713  13.6713  13.6713  13.6713  13.6751  13.6751  15.5516  15.5516
    15.5829  15.5829  15.5829  15.5829  15.7651  15.7651  15.7651  15.7651
    16.6657  16.6657  16.6960  16.6960  16.6960  16.6960

     occupation numbers 
     1.0000   1.0000   1.0000   1.0000   1.0000   1.0000   1.0000   1.0000
     1.0000   1.0000   1.0000   1.0000   1.0000   1.0000   1.0000   1.0000
     1.0000   1.0000   1.0000   1.0000   1.0000   1.0000   1.0000   1.0000
     1.0000   1.0000   1.0000   1.0000   1.0000   1.0000   1.0000   1.0000
     1.0000   1.0000   1.0000   1.0000   1.0000   1.0000   1.0000   1.0000
     1.0000   1.0000   1.0000   1.0000   1.0000   1.0000   1.0000   1.0000
     1.0000   1.0000   1.0000   1.0000   1.0000   1.0000   1.0000   1.0000
     1.0000   1.0000   1.0000   1.0000   1.0000   1.0000   1.0000   1.0000
     1.0000   1.0000   1.0000   1.0000   1.0000   1.0000  -0.0000  -0.0000
    -0.0000  -0.0000  -0.0000  -0.0000  -0.0000  -0.0000  -0.0000  -0.0000
    -0.0000  -0.0000  -0.0000  -0.0000  -0.0000  -0.0000

          k = 0.0000 0.0000 0.1000 (  9695 PWs)   bands (ev):

   -56.5149 -56.5149 -56.4839 -56.4839 -56.4806 -56.4806 -56.4785 -56.4785
   -28.5862 -28.5790 -28.5774 -28.5759 -28.5687 -28.5658 -28.4859 -28.4859
   -27.6271 -27.6218 -27.6089 -27.6035 -27.5462 -27.5439 -27.5390 -27.5346
   -27.5334 -27.5228 -27.4564 -27.4551 -27.4531 -27.4490 -27.4484 -27.4448
     2.7681   2.7681   6.9406   6.9444   7.4971   7.4982   7.8790   7.8873
    10.1585  10.1640  10.5885  10.5898  10.9493  10.9523  11.4180  11.4191
    11.7327  11.7360  12.4393  12.4548  12.5672  12.5714  12.7701  12.7778
    12.8726  12.8732  13.1175  13.1192  13.1678  13.1681  13.1952  13.1956
    13.5352  13.5414  13.6610  13.6620  13.8558  13.8564  15.4468  15.4687
    15.4703  15.4754  15.7035  15.7190  15.7374  15.7516  15.7557  15.7688
    16.5147  16.5329  16.6527  16.6557  16.8460  16.8663

     occupation numbers 
     1.0000   1.0000   1.0000   1.0000   1.0000   1.0000   1.0000   1.0000
     1.0000   1.0000   1.0000   1.0000   1.0000   1.0000   1.0000   1.0000
     1.0000   1.0000   1.0000   1.0000   1.0000   1.0000   1.0000   1.0000
     1.0000   1.0000   1.0000   1.0000   1.0000   1.0000   1.0000   1.0000
     1.0000   1.0000   1.0000   1.0000   1.0000   1.0000   1.0000   1.0000
     1.0000   1.0000   1.0000   1.0000   1.0000   1.0000   1.0000   1.0000
     1.0000   1.0000   1.0000   1.0000   1.0000   1.0000   1.0000   1.0000
     1.0000   1.0000   1.0000   1.0000   1.0000   1.0000   1.0000   1.0000
     1.0000   1.0000   1.0000   1.0000   1.0000   1.0000  -0.0008  -0.0004
    -0.0004  -0.0004  -0.0000  -0.0000  -0.0000  -0.0000  -0.0000  -0.0000
    -0.0000  -0.0000  -0.0000  -0.0000  -0.0000  -0.0000

          k = 0.0000 0.0000 0.2000 (  9663 PWs)   bands (ev):

   -56.5130 -56.5130 -56.4878 -56.4878 -56.4800 -56.4800 -56.4771 -56.4771
   -28.5898 -28.5826 -28.5788 -28.5773 -28.5596 -28.5563 -28.4913 -28.4911
   -27.6352 -27.6266 -27.5993 -27.5914 -27.5539 -27.5465 -27.5397 -27.5330
   -27.5296 -27.5117 -27.4639 -27.4605 -27.4572 -27.4492 -27.4476 -27.4415
     2.9744   2.9744   6.3258   6.3278   7.6080   7.6103   8.2281   8.2378
     9.8575   9.8606  10.7051  10.7085  10.9854  10.9910  11.3747  11.3806
    11.3908  11.3910  12.3761  12.3887  12.8260  12.8324  12.8458  12.8704
    13.0741  13.0796  13.1049  13.1078  13.2174  13.2210  13.2379  13.2380
    13.5733  13.5845  13.6068  13.6105  14.0038  14.0046  15.2040  15.2280
    15.3999  15.4044  15.6635  15.6757  15.7430  15.7639  15.8241  15.8488
    16.3559  16.3707  16.5584  16.5677  17.0730  17.0936

     occupation numbers 
     1.0000   1.0000   1.0000   1.0000   1.0000   1.0000   1.0000   1.0000
     1.0000   1.0000   1.0000   1.0000   1.0000   1.0000   1.0000   1.0000
     1.0000   1.0000   1.0000   1.0000   1.0000   1.0000   1.0000   1.0000
     1.0000   1.0000   1.0000   1.0000   1.0000   1.0000   1.0000   1.0000
     1.0000   1.0000   1.0000   1.0000   1.0000   1.0000   1.0000   1.0000
     1.0000   1.0000   1.0000   1.0000   1.0000   1.0000   1.0000   1.0000
     1.0000   1.0000   1.0000   1.0000   1.0000   1.0000   1.0000   1.0000
     1.0000   1.0000   1.0000   1.0000   1.0000   1.0000   1.0000   1.0000
     1.0000   1.0000   1.0000   1.0000   1.0000   1.0000  -0.0343  -0.0301
    -0.0022  -0.0020  -0.0000  -0.0000  -0.0000  -0.0000  -0.0000  -0.0000
    -0.0000  -0.0000  -0.0000  -0.0000  -0.0000  -0.0000

          k = 0.0000 0.0000 0.3000 (  9638 PWs)   bands (ev):

   -56.5100 -56.5100 -56.4922 -56.4922 -56.4791 -56.4791 -56.4766 -56.4766
   -28.5913 -28.5843 -28.5823 -28.5789 -28.5482 -28.5454 -28.4997 -28.4993
   -27.6399 -27.6314 -27.5879 -27.5822 -27.5613 -27.5457 -27.5369 -27.5330
   -27.5290 -27.5000 -27.4749 -27.4628 -27.4623 -27.4509 -27.4470 -27.4405
     3.3115   3.3115   5.6496   5.6506   7.7871   7.7907   8.4735   8.4835
     9.6691   9.6695  10.7383  10.7434  10.7931  10.8044  11.0722  11.0788
    11.7458  11.7474  12.1735  12.1894  12.8832  12.9006  12.9087  12.9165
    13.1310  13.1365  13.1519  13.1579  13.2598  13.2620  13.3808  13.3814
    13.4577  13.4627  13.8462  13.8502  14.0773  14.0794  14.9572  14.9897
    15.3635  15.3690  15.5673  15.5846  15.7392  15.7662  15.8576  15.8813
    16.2265  16.2420  16.4212  16.4343  17.2684  17.2872

     occupation numbers 
     1.0000   1.0000   1.0000   1.0000   1.0000   1.0000   1.0000   1.0000
     1.0000   1.0000   1.0000   1.0000   1.0000   1.0000   1.0000   1.0000
     1.0000   1.0000   1.0000   1.0000   1.0000   1.0000   1.0000   1.0000
     1.0000   1.0000   1.0000   1.0000   1.0000   1.0000   1.0000   1.0000
     1.0000   1.0000   1.0000   1.0000   1.0000   1.0000   1.0000   1.0000
     1.0000   1.0000   1.0000   1.0000   1.0000   1.0000   1.0000   1.0000
     1.0000   1.0000   1.0000   1.0000   1.0000   1.0000   1.0000   1.0000
     1.0000   1.0000   1.0000   1.0000   1.0000   1.0000   1.0000   1.0000
     1.0000   1.0000   1.0000   1.0000   1.0000   1.0000   0.4811   0.3403
    -0.0047  -0.0042  -0.0000  -0.0000  -0.0000  -0.0000  -0.0000  -0.0000
    -0.0000  -0.0000  -0.0000  -0.0000  -0.0000  -0.0000

          k = 0.0000 0.0000 0.4000 (  9654 PWs)   bands (ev):

   -56.5061 -56.5061 -56.4969 -56.4969 -56.4782 -56.4782 -56.4767 -56.4767
   -28.5909 -28.5859 -28.5843 -28.5810 -28.5356 -28.5335 -28.5105 -28.5096
   -27.6412 -27.6360 -27.5786 -27.5725 -27.5677 -27.5462 -27.5419 -27.5316
   -27.5201 -27.4888 -27.4887 -27.4699 -27.4607 -27.4537 -27.4456 -27.4414
     3.7685   3.7685   4.9676   4.9680   8.0220   8.0269   8.4870   8.4954
     9.7177   9.7211  10.4133  10.4150  10.7855  10.7988  11.0146  11.0190
    12.0858  12.0880  12.1326  12.1463  12.7240  12.7393  12.9197  12.9324
    13.0712  13.0774  13.1916  13.1947  13.2342  13.2377  13.2953  13.2988
    13.5918  13.5930  13.9165  13.9208  14.2940  14.3109  14.7677  14.8024
    15.3602  15.3735  15.4743  15.4935  15.7617  15.7916  15.8401  15.8663
    16.1533  16.1688  16.2726  16.2865  17.3792  17.3869

     occupation numbers 
     1.0000   1.0000   1.0000   1.0000   1.0000   1.0000   1.0000   1.0000
     1.0000   1.0000   1.0000   1.0000   1.0000   1.0000   1.0000   1.0000
     1.0000   1.0000   1.0000   1.0000   1.0000   1.0000   1.0000   1.0000
     1.0000   1.0000   1.0000   1.0000   1.0000   1.0000   1.0000   1.0000
     1.0000   1.0000   1.0000   1.0000   1.0000   1.0000   1.0000   1.0000
     1.0000   1.0000   1.0000   1.0000   1.0000   1.0000   1.0000   1.0000
     1.0000   1.0000   1.0000   1.0000   1.0000   1.0000   1.0000   1.0000
     1.0000   1.0000   1.0000   1.0000   1.0000   1.0000   1.0000   1.0000
     1.0000   1.0000   1.0000   1.0000   1.0000   1.0000   1.0220   0.9876
    -0.0050  -0.0039  -0.0004  -0.0002  -0.0000  -0.0000  -0.0000  -0.0000
    -0.0000  -0.0000  -0.0000  -0.0000  -0.0000  -0.0000

          k = 0.0000 0.0000-0.5000 (  9658 PWs)   bands (ev):

   -56.5017 -56.5017 -56.5017 -56.5017 -56.4773 -56.4773 -56.4773 -56.4773
   -28.5889 -28.5889 -28.5830 -28.5830 -28.5228 -28.5228 -28.5213 -28.5213
   -27.6396 -27.6396 -27.5734 -27.5734 -27.5589 -27.5589 -27.5365 -27.5365
   -27.5044 -27.5044 -27.4786 -27.4786 -27.4573 -27.4573 -27.4434 -27.4434
     4.3287   4.3287   4.3289   4.3289   8.2826   8.2826   8.2890   8.2890
    10.0171  10.0171  10.0211  10.0211  10.8981  10.8981  10.9093  10.9093
    12.2473  12.2473  12.2539  12.2539  12.6850  12.6850  12.6975  12.6975
    13.1419  13.1419  13.1423  13.1423  13.2368  13.2368  13.2405  13.2405
    13.7827  13.7827  13.7858  13.7858  14.5656  14.5656  14.5941  14.5941
    15.4008  15.4008  15.4186  15.4186  15.8056  15.8056  15.8354  15.8354
    16.1659  16.1659  16.1796  16.1796  17.5418  17.5468

     occupation numbers 
     1.0000   1.0000   1.0000   1.0000   1.0000   1.0000   1.0000   1.0000
     1.0000   1.0000   1.0000   1.0000   1.0000   1.0000   1.0000   1.0000
     1.0000   1.0000   1.0000   1.0000   1.0000   1.0000   1.0000   1.0000
     1.0000   1.0000   1.0000   1.0000   1.0000   1.0000   1.0000   1.0000
     1.0000   1.0000   1.0000   1.0000   1.0000   1.0000   1.0000   1.0000
     1.0000   1.0000   1.0000   1.0000   1.0000   1.0000   1.0000   1.0000
     1.0000   1.0000   1.0000   1.0000   1.0000   1.0000   1.0000   1.0000
     1.0000   1.0000   1.0000   1.0000   1.0000   1.0000   1.0000   1.0000
     1.0000   1.0000   1.0000   1.0000   1.0072   1.0072   1.0114   1.0114
    -0.0022  -0.0022  -0.0015  -0.0015  -0.0000  -0.0000  -0.0000  -0.0000
    -0.0000  -0.0000  -0.0000  -0.0000  -0.0000  -0.0000

          k = 0.0000 0.1000 0.1000 (  9675 PWs)   bands (ev):

   -56.5142 -56.5142 -56.4851 -56.4851 -56.4808 -56.4808 -56.4777 -56.4777
   -28.5881 -28.5815 -28.5763 -28.5750 -28.5666 -28.5627 -28.4877 -28.4877
   -27.6291 -27.6258 -27.6032 -27.5997 -27.5489 -27.5444 -27.5411 -27.5379
   -27.5281 -27.5179 -27.4596 -27.4590 -27.4542 -27.4494 -27.4463 -27.4428
     2.8372   2.8372   6.8018   6.8070   7.3667   7.3702   8.0832   8.0893
    10.0375  10.0429  10.6307  10.6345  11.0121  11.0164  11.1729  11.1747
    11.8330  11.8343  12.4246  12.4393  12.5995  12.6059  12.8434  12.8517
    12.9295  12.9361  13.1410  13.1434  13.1609  13.1645  13.2339  13.2363
    13.4838  13.4890  13.6677  13.6767  13.9353  13.9392  15.3911  15.4000
    15.4509  15.4548  15.6578  15.6669  15.7372  15.7492  15.7745  15.7909
    16.4354  16.4540  16.6622  16.6678  16.8852  16.9119

     occupation numbers 
     1.0000   1.0000   1.0000   1.0000   1.0000   1.0000   1.0000   1.0000
     1.0000   1.0000   1.0000   1.0000   1.0000   1.0000   1.0000   1.0000
     1.0000   1.0000   1.0000   1.0000   1.0000   1.0000   1.0000   1.0000
     1.0000   1.0000   1.0000   1.0000   1.0000   1.0000   1.0000   1.0000
     1.0000   1.0000   1.0000   1.0000   1.0000   1.0000   1.0000   1.0000
     1.0000   1.0000   1.0000   1.0000   1.0000   1.0000   1.0000   1.0000
     1.0000   1.0000   1.0000   1.0000   1.0000   1.0000   1.0000   1.0000
     1.0000   1.0000   1.0000   1.0000   1.0000   1.0000   1.0000   1.0000
     1.0000   1.0000   1.0000   1.0000   1.0000   1.0000  -0.0027  -0.0022
    -0.0007  -0.0006  -0.0000  -0.0000  -0.0000  -0.0000  -0.0000  -0.0000
    -0.0000  -0.0000  -0.0000  -0.0000  -0.0000  -0.0000

          k = 0.0000 0.1000 0.2000 (  9636 PWs)   bands (ev):

   -56.5124 -56.5124 -56.4882 -56.4882 -56.4805 -56.4805 -56.4768 -56.4768
   -28.5904 -28.5840 -28.5769 -28.5762 -28.5589 -28.5553 -28.4930 -28.4929
   -27.6348 -27.6284 -27.5958 -27.5899 -27.5540 -27.5476 -27.5417 -27.5372
   -27.5247 -27.5081 -27.4682 -27.4635 -27.4571 -27.4512 -27.4444 -27.4397
     3.0426   3.0426   6.3256   6.3287   7.3968   7.3994   8.3524   8.3586
     9.8332   9.8364  10.6453  10.6482  10.7648  10.7687  11.4219  11.4235
    11.6072  11.6120  12.3952  12.4034  12.6323  12.6358  13.0050  13.0160
    13.0982  13.1048  13.1355  13.1369  13.2143  13.2170  13.3007  13.3030
    13.4897  13.4952  13.7057  13.7191  14.0456  14.0520  15.2132  15.2366
    15.3449  15.3585  15.5950  15.6100  15.7107  15.7287  15.8275  15.8512
    16.3029  16.3201  16.5830  16.5940  17.0595  17.0891

     occupation numbers 
     1.0000   1.0000   1.0000   1.0000   1.0000   1.0000   1.0000   1.0000
     1.0000   1.0000   1.0000   1.0000   1.0000   1.0000   1.0000   1.0000
     1.0000   1.0000   1.0000   1.0000   1.0000   1.0000   1.0000   1.0000
     1.0000   1.0000   1.0000   1.0000   1.0000   1.0000   1.0000   1.0000
     1.0000   1.0000   1.0000   1.0000   1.0000   1.0000   1.0000   1.0000
     1.0000   1.0000   1.0000   1.0000   1.0000   1.0000   1.0000   1.0000
     1.0000   1.0000   1.0000   1.0000   1.0000   1.0000   1.0000   1.0000
     1.0000   1.0000   1.0000   1.0000   1.0000   1.0000   1.0000   1.0000
     1.0000   1.0000   1.0000   1.0000   1.0000   1.0000  -0.0329  -0.0281
    -0.0066  -0.0052  -0.0000  -0.0000  -0.0000  -0.0000  -0.0000  -0.0000
    -0.0000  -0.0000  -0.0000  -0.0000  -0.0000  -0.0000

          k = 0.0000 0.1000 0.3000 (  9642 PWs)   bands (ev):

   -56.5095 -56.5095 -56.4923 -56.4923 -56.4796 -56.4796 -56.4765 -56.4765
   -28.5912 -28.5851 -28.5802 -28.5778 -28.5483 -28.5454 -28.5012 -28.5009
   -27.6387 -27.6314 -27.5864 -27.5811 -27.5608 -27.5471 -27.5404 -27.5349
   -27.5253 -27.4974 -27.4792 -27.4663 -27.4609 -27.4541 -27.4429 -27.4382
     3.3780   3.3781   5.6881   5.6896   7.5762   7.5780   8.5076   8.5134
     9.6888   9.6902  10.3943  10.3986  10.9285  10.9300  11.2915  11.3021
    11.7040  11.7071  12.2164  12.2295  12.7190  12.7226  13.0167  13.0268
    13.0326  13.0355  13.2273  13.2334  13.2985  13.3001  13.4131  13.4171
    13.5153  13.5241  13.8858  13.8980  14.1186  14.1242  14.9668  14.9982
    15.3133  15.3260  15.4906  15.5055  15.7000  15.7243  15.8519  15.8777
    16.1923  16.2058  16.4503  16.4637  17.2315  17.2598

     occupation numbers 
     1.0000   1.0000   1.0000   1.0000   1.0000   1.0000   1.0000   1.0000
     1.0000   1.0000   1.0000   1.0000   1.0000   1.0000   1.0000   1.0000
     1.0000   1.0000   1.0000   1.0000   1.0000   1.0000   1.0000   1.0000
     1.0000   1.0000   1.0000   1.0000   1.0000   1.0000   1.0000   1.0000
     1.0000   1.0000   1.0000   1.0000   1.0000   1.0000   1.0000   1.0000
     1.0000   1.0000   1.0000   1.0000   1.0000   1.0000   1.0000   1.0000
     1.0000   1.0000   1.0000   1.0000   1.0000   1.0000   1.0000   1.0000
     1.0000   1.0000   1.0000   1.0000   1.0000   1.0000   1.0000   1.0000
     1.0000   1.0000   1.0000   1.0000   1.0000   1.0000   0.4385   0.3052
    -0.0112  -0.0091  -0.0002  -0.0002  -0.0000  -0.0000  -0.0000  -0.0000
    -0.0000  -0.0000  -0.0000  -0.0000  -0.0000  -0.0000

          k = 0.0000 0.1000 0.4000 (  9650 PWs)   bands (ev):

   -56.5057 -56.5057 -56.4968 -56.4968 -56.4786 -56.4786 -56.4768 -56.4768
   -28.5903 -28.5856 -28.5829 -28.5801 -28.5363 -28.5342 -28.5118 -28.5110
   -27.6396 -27.6350 -27.5785 -27.5717 -27.5674 -27.5487 -27.5418 -27.5307
   -27.5221 -27.4933 -27.4860 -27.4698 -27.4625 -27.4573 -27.4415 -27.4385
     3.8323   3.8325   5.0205   5.0212   7.8362   7.8386   8.4142   8.4187
     9.7547   9.7582  10.2268  10.2308  11.0030  11.0076  11.0664  11.0793
    11.9589  11.9647  12.1920  12.2006  12.6471  12.6520  12.8519  12.8610
    13.0641  13.0688  13.2683  13.2722  13.3069  13.3094  13.3726  13.3743
    13.6273  13.6315  13.9417  13.9469  14.3355  14.3549  14.7770  14.8111
    15.3084  15.3235  15.3973  15.4118  15.7211  15.7480  15.8306  15.8589
    16.1460  16.1550  16.3079  16.3209  17.3509  17.3687

     occupation numbers 
     1.0000   1.0000   1.0000   1.0000   1.0000   1.0000   1.0000   1.0000
     1.0000   1.0000   1.0000   1.0000   1.0000   1.0000   1.0000   1.0000
     1.0000   1.0000   1.0000   1.0000   1.0000   1.0000   1.0000   1.0000
     1.0000   1.0000   1.0000   1.0000   1.0000   1.0000   1.0000   1.0000
     1.0000   1.0000   1.0000   1.0000   1.0000   1.0000   1.0000   1.0000
     1.0000   1.0000   1.0000   1.0000   1.0000   1.0000   1.0000   1.0000
     1.0000   1.0000   1.0000   1.0000   1.0000   1.0000   1.0000   1.0000
     1.0000   1.0000   1.0000   1.0000   1.0000   1.0000   1.0000   1.0000
     1.0000   1.0000   1.0000   1.0000   1.0000   1.0000   1.0153   0.9745
    -0.0120  -0.0095  -0.0024  -0.0017  -0.0000  -0.0000  -0.0000  -0.0000
    -0.0000  -0.0000  -0.0000  -0.0000  -0.0000  -0.0000

          k = 0.0000 0.1000-0.5000 (  9676 PWs)   bands (ev):

   -56.5014 -56.5014 -56.5014 -56.5014 -56.4776 -56.4776 -56.4776 -56.4776
   -28.5881 -28.5881 -28.5822 -28.5822 -28.5241 -28.5241 -28.5221 -28.5221
   -27.6381 -27.6381 -27.5731 -27.5731 -27.5595 -27.5595 -27.5362 -27.5362
   -27.5077 -27.5077 -27.4771 -27.4771 -27.4604 -27.4604 -27.4399 -27.4399
     4.3885   4.3885   4.3889   4.3889   8.1377   8.1377   8.1445   8.1445
     9.9955   9.9955   9.9999   9.9999  10.9954  10.9954  11.0091  11.0091
    12.1786  12.1786  12.1844  12.1844  12.6274  12.6274  12.6436  12.6436
    13.1990  13.1990  13.2027  13.2027  13.3011  13.3011  13.3028  13.3028
    13.8129  13.8129  13.8164  13.8164  14.5875  14.5875  14.6173  14.6173
    15.3354  15.3354  15.3519  15.3519  15.7761  15.7761  15.8058  15.8058
    16.1899  16.1899  16.2015  16.2015  17.5342  17.5377

     occupation numbers 
     1.0000   1.0000   1.0000   1.0000   1.0000   1.0000   1.0000   1.0000
     1.0000   1.0000   1.0000   1.0000   1.0000   1.0000   1.0000   1.0000
     1.0000   1.0000   1.0000   1.0000   1.0000   1.0000   1.0000   1.0000
     1.0000   1.0000   1.0000   1.0000   1.0000   1.0000   1.0000   1.0000
     1.0000   1.0000   1.0000   1.0000   1.0000   1.0000   1.0000   1.0000
     1.0000   1.0000   1.0000   1.0000   1.0000   1.0000   1.0000   1.0000
     1.0000   1.0000   1.0000   1.0000   1.0000   1.0000   1.0000   1.0000
     1.0000   1.0000   1.0000   1.0000   1.0000   1.0000   1.0000   1.0000
     1.0000   1.0000   1.0000   1.0000   1.0103   1.0103   1.0159   1.0159
    -0.0078  -0.0078  -0.0058  -0.0058  -0.0000  -0.0000  -0.0000  -0.0000
    -0.0000  -0.0000  -0.0000  -0.0000  -0.0000  -0.0000

          k = 0.0000 0.2000 0.2000 (  9629 PWs)   bands (ev):

   -56.5107 -56.5107 -56.4899 -56.4899 -56.4808 -56.4808 -56.4765 -56.4765
   -28.5910 -28.5853 -28.5755 -28.5750 -28.5555 -28.5517 -28.4980 -28.4977
   -27.6346 -27.6307 -27.5886 -27.5857 -27.5536 -27.5523 -27.5438 -27.5393
   -27.5209 -27.5009 -27.4758 -27.4697 -27.4616 -27.4499 -27.4412 -27.4369
     3.2450   3.2451   6.2132   6.2172   7.1064   7.1108   8.4946   8.4998
     9.7694   9.7714  10.3193  10.3232  10.8495  10.8515  11.3879  11.3900
    11.7952  11.7967  12.3655  12.3692  12.5708  12.5788  12.9919  12.9993
    13.1298  13.1410  13.1924  13.1958  13.3266  13.3288  13.4086  13.4210
    13.4898  13.4961  13.8248  13.8388  14.1259  14.1332  15.1681  15.1893
    15.2395  15.2609  15.4443  15.4570  15.6656  15.6891  15.8097  15.8357
    16.2125  16.2275  16.5667  16.5775  17.1085  17.1476

     occupation numbers 
     1.0000   1.0000   1.0000   1.0000   1.0000   1.0000   1.0000   1.0000
     1.0000   1.0000   1.0000   1.0000   1.0000   1.0000   1.0000   1.0000
     1.0000   1.0000   1.0000   1.0000   1.0000   1.0000   1.0000   1.0000
     1.0000   1.0000   1.0000   1.0000   1.0000   1.0000   1.0000   1.0000
     1.0000   1.0000   1.0000   1.0000   1.0000   1.0000   1.0000   1.0000
     1.0000   1.0000   1.0000   1.0000   1.0000   1.0000   1.0000   1.0000
     1.0000   1.0000   1.0000   1.0000   1.0000   1.0000   1.0000   1.0000
     1.0000   1.0000   1.0000   1.0000   1.0000   1.0000   1.0000   1.0000
     1.0000   1.0000   1.0000   1.0000   1.0000   1.0000  -0.0339  -0.0354
    -0.0274  -0.0223  -0.0008  -0.0006  -0.0000  -0.0000  -0.0000  -0.0000
    -0.0000  -0.0000  -0.0000  -0.0000  -0.0000  -0.0000

          k = 0.0000 0.2000 0.3000 (  9653 PWs)   bands (ev):

   -56.5080 -56.5080 -56.4928 -56.4928 -56.4804 -56.4804 -56.4767 -56.4767
   -28.5904 -28.5852 -28.5771 -28.5756 -28.5479 -28.5449 -28.5056 -28.5054
   -27.6354 -27.6310 -27.5834 -27.5786 -27.5600 -27.5513 -27.5426 -27.5376
   -27.5216 -27.4941 -27.4864 -27.4734 -27.4647 -27.4504 -27.4388 -27.4349
     3.5752   3.5754   5.7762   5.7787   7.1291   7.1327   8.4352   8.4390
     9.7418   9.7452  10.1779  10.1825  10.9538  10.9556  11.4460  11.4494
    11.7627  11.7643  12.2214  12.2265  12.5370  12.5450  12.8822  12.8901
    13.1665  13.1788  13.2257  13.2297  13.4075  13.4080  13.5505  13.5612
    13.5860  13.5977  13.9903  14.0028  14.2291  14.2379  14.9838  15.0111
    15.1731  15.1948  15.3174  15.3273  15.6303  15.6548  15.7844  15.8145
    16.1557  16.1660  16.4876  16.4993  17.1990  17.2381

     occupation numbers 
     1.0000   1.0000   1.0000   1.0000   1.0000   1.0000   1.0000   1.0000
     1.0000   1.0000   1.0000   1.0000   1.0000   1.0000   1.0000   1.0000
     1.0000   1.0000   1.0000   1.0000   1.0000   1.0000   1.0000   1.0000
     1.0000   1.0000   1.0000   1.0000   1.0000   1.0000   1.0000   1.0000
     1.0000   1.0000   1.0000   1.0000   1.0000   1.0000   1.0000   1.0000
     1.0000   1.0000   1.0000   1.0000   1.0000   1.0000   1.0000   1.0000
     1.0000   1.0000   1.0000   1.0000   1.0000   1.0000   1.0000   1.0000
     1.0000   1.0000   1.0000   1.0000   1.0000   1.0000   1.0000   1.0000
     1.0000   1.0000   1.0000   1.0000   1.0000   1.0000   0.3650   0.2547
    -0.0347  -0.0352  -0.0105  -0.0089  -0.0000  -0.0000  -0.0000  -0.0000
    -0.0000  -0.0000  -0.0000  -0.0000  -0.0000  -0.0000

          k = 0.0000 0.2000 0.4000 (  9651 PWs)   bands (ev):

   -56.5045 -56.5045 -56.4965 -56.4965 -56.4795 -56.4795 -56.4774 -56.4774
   -28.5885 -28.5843 -28.5800 -28.5777 -28.5378 -28.5358 -28.5154 -28.5148
   -27.6351 -27.6318 -27.5796 -27.5722 -27.5645 -27.5521 -27.5415 -27.5299
   -27.5248 -27.5003 -27.4871 -27.4775 -27.4626 -27.4532 -27.4367 -27.4344
     4.0214   4.0218   5.1712   5.1725   7.3846   7.3871   8.1322   8.1350
     9.8718   9.8753  10.1408  10.1442  11.0537  11.0605  11.3120  11.3242
    11.8755  11.8799  12.0990  12.1051  12.4985  12.5092  12.6807  12.6914
    13.2248  13.2303  13.2765  13.2817  13.4062  13.4085  13.5613  13.5636
    13.7419  13.7461  14.0116  14.0191  14.4427  14.4679  14.7925  14.8240
    15.1668  15.1847  15.2252  15.2301  15.6293  15.6553  15.7343  15.7664
    16.1806  16.1867  16.3889  16.4014  17.2689  17.2937

     occupation numbers 
     1.0000   1.0000   1.0000   1.0000   1.0000   1.0000   1.0000   1.0000
     1.0000   1.0000   1.0000   1.0000   1.0000   1.0000   1.0000   1.0000
     1.0000   1.0000   1.0000   1.0000   1.0000   1.0000   1.0000   1.0000
     1.0000   1.0000   1.0000   1.0000   1.0000   1.0000   1.0000   1.0000
     1.0000   1.0000   1.0000   1.0000   1.0000   1.0000   1.0000   1.0000
     1.0000   1.0000   1.0000   1.0000   1.0000   1.0000   1.0000   1.0000
     1.0000   1.0000   1.0000   1.0000   1.0000   1.0000   1.0000   1.0000
     1.0000   1.0000   1.0000   1.0000   1.0000   1.0000   1.0000   1.0000
     1.0000   1.0000   1.0000   1.0000   1.0005   1.0009   1.0001   0.9516
    -0.0336  -0.0354  -0.0307  -0.0296  -0.0000  -0.0000  -0.0000  -0.0000
    -0.0000  -0.0000  -0.0000  -0.0000  -0.0000  -0.0000

          k = 0.0000 0.2000-0.5000 (  9650 PWs)   bands (ev):

   -56.5006 -56.5006 -56.5006 -56.5006 -56.4784 -56.4784 -56.4784 -56.4784
   -28.5856 -28.5856 -28.5800 -28.5800 -28.5274 -28.5274 -28.5245 -28.5245
   -27.6335 -27.6335 -27.5752 -27.5752 -27.5587 -27.5587 -27.5353 -27.5353
   -27.5138 -27.5138 -27.4822 -27.4822 -27.4578 -27.4578 -27.4351 -27.4351
     4.5642   4.5642   4.5651   4.5651   7.7410   7.7410   7.7477   7.7477
    10.0485  10.0485  10.0521  10.0521  11.1494  11.1494  11.1628  11.1628
    12.0403  12.0403  12.0439  12.0439  12.4897  12.4897  12.5045  12.5045
    13.3095  13.3095  13.3125  13.3125  13.4388  13.4388  13.4415  13.4415
    13.9065  13.9065  13.9110  13.9110  14.6379  14.6379  14.6696  14.6696
    15.1779  15.1779  15.1915  15.1915  15.6717  15.6717  15.7014  15.7014
    16.2737  16.2737  16.2844  16.2844  17.4435  17.4478

     occupation numbers 
     1.0000   1.0000   1.0000   1.0000   1.0000   1.0000   1.0000   1.0000
     1.0000   1.0000   1.0000   1.0000   1.0000   1.0000   1.0000   1.0000
     1.0000   1.0000   1.0000   1.0000   1.0000   1.0000   1.0000   1.0000
     1.0000   1.0000   1.0000   1.0000   1.0000   1.0000   1.0000   1.0000
     1.0000   1.0000   1.0000   1.0000   1.0000   1.0000   1.0000   1.0000
     1.0000   1.0000   1.0000   1.0000   1.0000   1.0000   1.0000   1.0000
     1.0000   1.0000   1.0000   1.0000   1.0000   1.0000   1.0000   1.0000
     1.0000   1.0000   1.0000   1.0000   1.0000   1.0000   1.0000   1.0000
     1.0000   1.0000   1.0000   1.0000   1.0206   1.0206   1.0282   1.0282
    -0.0351  -0.0351  -0.0353  -0.0353  -0.0000  -0.0000  -0.0000  -0.0000
    -0.0000  -0.0000  -0.0000  -0.0000  -0.0000  -0.0000

          k = 0.0000 0.3000 0.3000 (  9641 PWs)   bands (ev):

   -56.5056 -56.5056 -56.4941 -56.4941 -56.4809 -56.4809 -56.4773 -56.4773
   -28.5885 -28.5839 -28.5755 -28.5746 -28.5452 -28.5424 -28.5126 -28.5120
   -27.6314 -27.6294 -27.5822 -27.5769 -27.5600 -27.5522 -27.5402 -27.5396
   -27.5210 -27.4968 -27.4937 -27.4818 -27.4627 -27.4464 -27.4362 -27.4328
     3.8960   3.8963   5.7560   5.7586   6.7777   6.7810   8.1199   8.1243
     9.8828   9.8862  10.2220  10.2262  10.9527  10.9549  11.2879  11.2892
    11.9117  11.9183  12.2055  12.2109  12.3903  12.4010  12.7567  12.7639
    13.1523  13.1611  13.3636  13.3726  13.4944  13.4995  13.6397  13.6460
    13.7467  13.7584  14.0594  14.0724  14.3831  14.4034  14.9281  14.9452
    15.0234  15.0464  15.1470  15.1588  15.5589  15.5835  15.6729  15.7034
    16.1812  16.1899  16.4871  16.4957  17.1816  17.2186

     occupation numbers 
     1.0000   1.0000   1.0000   1.0000   1.0000   1.0000   1.0000   1.0000
     1.0000   1.0000   1.0000   1.0000   1.0000   1.0000   1.0000   1.0000
     1.0000   1.0000   1.0000   1.0000   1.0000   1.0000   1.0000   1.0000
     1.0000   1.0000   1.0000   1.0000   1.0000   1.0000   1.0000   1.0000
     1.0000   1.0000   1.0000   1.0000   1.0000   1.0000   1.0000   1.0000
     1.0000   1.0000   1.0000   1.0000   1.0000   1.0000   1.0000   1.0000
     1.0000   1.0000   1.0000   1.0000   1.0000   1.0000   1.0000   1.0000
     1.0000   1.0000   1.0000   1.0000   1.0000   1.0000   1.0000   1.0000
     1.0000   1.0000   1.0000   1.0000   1.0001   1.0002   0.6096   0.5346
     0.2096   0.1351  -0.0270  -0.0316  -0.0000  -0.0000  -0.0000  -0.0000
    -0.0000  -0.0000  -0.0000  -0.0000  -0.0000  -0.0000

          k = 0.0000 0.3000 0.4000 (  9635 PWs)   bands (ev):

   -56.5027 -56.5027 -56.4964 -56.4964 -56.4805 -56.4805 -56.4783 -56.4783
   -28.5854 -28.5817 -28.5769 -28.5752 -28.5389 -28.5371 -28.5210 -28.5204
   -27.6283 -27.6267 -27.5840 -27.5786 -27.5580 -27.5505 -27.5396 -27.5313
   -27.5255 -27.5059 -27.4967 -27.4887 -27.4561 -27.4461 -27.4342 -27.4320
     4.3266   4.3272   5.3792   5.3811   6.8558   6.8589   7.6667   7.6699
    10.0826  10.0851  10.2804  10.2830  11.0335  11.0369  11.3611  11.3685
    11.8662  11.8699  11.9501  11.9527  12.3436  12.3531  12.5149  12.5250
    13.2537  13.2624  13.4281  13.4292  13.4870  13.4873  13.7139  13.7180
    13.9459  13.9517  14.1241  14.1329  14.5478  14.5758  14.7620  14.7837
    14.9730  14.9925  15.0377  15.0507  15.5259  15.5485  15.5905  15.6211
    16.2735  16.2819  16.4807  16.4888  17.1361  17.1595

     occupation numbers 
     1.0000   1.0000   1.0000   1.0000   1.0000   1.0000   1.0000   1.0000
     1.0000   1.0000   1.0000   1.0000   1.0000   1.0000   1.0000   1.0000
     1.0000   1.0000   1.0000   1.0000   1.0000   1.0000   1.0000   1.0000
     1.0000   1.0000   1.0000   1.0000   1.0000   1.0000   1.0000   1.0000
     1.0000   1.0000   1.0000   1.0000   1.0000   1.0000   1.0000   1.0000
     1.0000   1.0000   1.0000   1.0000   1.0000   1.0000   1.0000   1.0000
     1.0000   1.0000   1.0000   1.0000   1.0000   1.0000   1.0000   1.0000
     1.0000   1.0000   1.0000   1.0000   1.0000   1.0000   1.0000   1.0000
     1.0000   1.0000   1.0000   1.0000   1.0052   1.0085   1.0254   1.0093
     0.4115   0.3282   0.1615   0.1229  -0.0001  -0.0000  -0.0000  -0.0000
    -0.0000  -0.0000  -0.0000  -0.0000  -0.0000  -0.0000

          k = 0.0000 0.3000-0.5000 (  9642 PWs)   bands (ev):

   -56.4995 -56.4995 -56.4995 -56.4995 -56.4795 -56.4795 -56.4795 -56.4795
   -28.5820 -28.5820 -28.5772 -28.5772 -28.5313 -28.5313 -28.5282 -28.5282
   -27.6262 -27.6262 -27.5827 -27.5827 -27.5532 -27.5532 -27.5338 -27.5338
   -27.5187 -27.5187 -27.4939 -27.4939 -27.4498 -27.4498 -27.4326 -27.4326
     4.8410   4.8410   4.8422   4.8422   7.2106   7.2106   7.2161   7.2161
    10.2420  10.2420  10.2444  10.2444  11.2286  11.2286  11.2381  11.2381
    11.8471  11.8471  11.8505  11.8505  12.3615  12.3615  12.3710  12.3710
    13.3633  13.3633  13.3709  13.3709  13.6058  13.6058  13.6139  13.6139
    14.0917  14.0917  14.0978  14.0978  14.6426  14.6426  14.6677  14.6677
    14.9956  14.9956  15.0075  15.0075  15.5361  15.5361  15.5629  15.5629
    16.3969  16.3969  16.4079  16.4079  17.2626  17.2659

     occupation numbers 
     1.0000   1.0000   1.0000   1.0000   1.0000   1.0000   1.0000   1.0000
     1.0000   1.0000   1.0000   1.0000   1.0000   1.0000   1.0000   1.0000
     1.0000   1.0000   1.0000   1.0000   1.0000   1.0000   1.0000   1.0000
     1.0000   1.0000   1.0000   1.0000   1.0000   1.0000   1.0000   1.0000
     1.0000   1.0000   1.0000   1.0000   1.0000   1.0000   1.0000   1.0000
     1.0000   1.0000   1.0000   1.0000   1.0000   1.0000   1.0000   1.0000
     1.0000   1.0000   1.0000   1.0000   1.0000   1.0000   1.0000   1.0000
     1.0000   1.0000   1.0000   1.0000   1.0000   1.0000   1.0000   1.0000
     1.0000   1.0000   1.0000   1.0000   1.0217   1.0217   1.0278   1.0278
     0.3155   0.3155   0.2683   0.2683  -0.0001  -0.0001  -0.0000  -0.0000
    -0.0000  -0.0000  -0.0000  -0.0000  -0.0000  -0.0000

          k = 0.0000 0.4000 0.4000 (  9636 PWs)   bands (ev):

   -56.5005 -56.5005 -56.4970 -56.4970 -56.4809 -56.4809 -56.4795 -56.4795
   -28.5816 -28.5788 -28.5752 -28.5744 -28.5380 -28.5365 -28.5275 -28.5267
   -27.6207 -27.6206 -27.5905 -27.5875 -27.5503 -27.5465 -27.5363 -27.5302
   -27.5276 -27.5095 -27.5076 -27.4991 -27.4481 -27.4410 -27.4342 -27.4316
     4.7277   4.7284   5.4688   5.4701   6.5217   6.5234   7.1468   7.1494
    10.3761  10.3765  10.5507  10.5516  10.9050  10.9054  11.2351  11.2385
    11.6917  11.6926  11.9446  11.9499  12.2653  12.2658  12.3944  12.4007
    13.2708  13.2776  13.3821  13.3827  13.7478  13.7496  13.8778  13.8826
    14.1460  14.1547  14.2000  14.2057  14.5513  14.5598  14.6738  14.6921
    14.8202  14.8365  14.9030  14.9273  15.4547  15.4707  15.4761  15.4996
    16.3835  16.3951  16.5292  16.5344  17.0561  17.0738

     occupation numbers 
     1.0000   1.0000   1.0000   1.0000   1.0000   1.0000   1.0000   1.0000
     1.0000   1.0000   1.0000   1.0000   1.0000   1.0000   1.0000   1.0000
     1.0000   1.0000   1.0000   1.0000   1.0000   1.0000   1.0000   1.0000
     1.0000   1.0000   1.0000   1.0000   1.0000   1.0000   1.0000   1.0000
     1.0000   1.0000   1.0000   1.0000   1.0000   1.0000   1.0000   1.0000
     1.0000   1.0000   1.0000   1.0000   1.0000   1.0000   1.0000   1.0000
     1.0000   1.0000   1.0000   1.0000   1.0000   1.0000   1.0000   1.0000
     1.0000   1.0000   1.0000   1.0000   1.0000   1.0000   1.0000   1.0000
     1.0000   1.0000   1.0000   1.0000   1.0055   1.0065   1.0292   1.0328
     0.9588   0.9251   0.7138   0.6128  -0.0006  -0.0004  -0.0004  -0.0002
    -0.0000  -0.0000  -0.0000  -0.0000  -0.0000  -0.0000

          k = 0.0000 0.4000-0.5000 (  9646 PWs)   bands (ev):

   -56.4985 -56.4985 -56.4985 -56.4985 -56.4805 -56.4805 -56.4805 -56.4805
   -28.5781 -28.5781 -28.5751 -28.5751 -28.5343 -28.5343 -28.5321 -28.5321
   -27.6166 -27.6166 -27.5936 -27.5936 -27.5451 -27.5451 -27.5336 -27.5336
   -27.5203 -27.5203 -27.5062 -27.5062 -27.4421 -27.4421 -27.4330 -27.4330
     5.1721   5.1721   5.1736   5.1736   6.6925   6.6925   6.6961   6.6961
    10.5221  10.5221  10.5231  10.5231  11.2415  11.2415  11.2500  11.2500
    11.5669  11.5669  11.5759  11.5759  12.2997  12.2997  12.3036  12.3036
    13.3635  13.3635  13.3681  13.3681  13.8275  13.8275  13.8367  13.8367
    14.3263  14.3263  14.3298  14.3298  14.4971  14.4971  14.5052  14.5052
    14.8518  14.8518  14.8716  14.8716  15.4405  15.4405  15.4568  15.4568
    16.5207  16.5207  16.5299  16.5299  17.0711  17.0722

     occupation numbers 
     1.0000   1.0000   1.0000   1.0000   1.0000   1.0000   1.0000   1.0000
     1.0000   1.0000   1.0000   1.0000   1.0000   1.0000   1.0000   1.0000
     1.0000   1.0000   1.0000   1.0000   1.0000   1.0000   1.0000   1.0000
     1.0000   1.0000   1.0000   1.0000   1.0000   1.0000   1.0000   1.0000
     1.0000   1.0000   1.0000   1.0000   1.0000   1.0000   1.0000   1.0000
     1.0000   1.0000   1.0000   1.0000   1.0000   1.0000   1.0000   1.0000
     1.0000   1.0000   1.0000   1.0000   1.0000   1.0000   1.0000   1.0000
     1.0000   1.0000   1.0000   1.0000   1.0000   1.0000   1.0000   1.0000
     1.0000   1.0000   1.0000   1.0000   1.0018   1.0018   1.0022   1.0022
     0.8868   0.8868   0.8274   0.8274  -0.0009  -0.0009  -0.0006  -0.0006
    -0.0000  -0.0000  -0.0000  -0.0000  -0.0000  -0.0000

          k = 0.0000-0.5000-0.5000 (  9580 PWs)   bands (ev):

   -56.4981 -56.4981 -56.4981 -56.4981 -56.4809 -56.4809 -56.4809 -56.4809
   -28.5754 -28.5754 -28.5754 -28.5754 -28.5346 -28.5346 -28.5346 -28.5346
   -27.6054 -27.6054 -27.6054 -27.6054 -27.5375 -27.5375 -27.5375 -27.5375
   -27.5160 -27.5160 -27.5160 -27.5160 -27.4362 -27.4362 -27.4362 -27.4362
     5.3715   5.3715   5.3715   5.3715   6.4278   6.4278   6.4278   6.4278
    10.7057  10.7057  10.7057  10.7057  11.2424  11.2424  11.2424  11.2424
    11.3851  11.3851  11.3851  11.3851  12.2844  12.2844  12.2844  12.2844
    13.3615  13.3615  13.3615  13.3615  14.0069  14.0069  14.0069  14.0069
    14.2929  14.2929  14.2929  14.2929  14.5253  14.5253  14.5253  14.5253
    14.7578  14.7578  14.7578  14.7578  15.4163  15.4163  15.4163  15.4163
    16.5873  16.5873  16.5873  16.5873  16.9836  16.9836

     occupation numbers 
     1.0000   1.0000   1.0000   1.0000   1.0000   1.0000   1.0000   1.0000
     1.0000   1.0000   1.0000   1.0000   1.0000   1.0000   1.0000   1.0000
     1.0000   1.0000   1.0000   1.0000   1.0000   1.0000   1.0000   1.0000
     1.0000   1.0000   1.0000   1.0000   1.0000   1.0000   1.0000   1.0000
     1.0000   1.0000   1.0000   1.0000   1.0000   1.0000   1.0000   1.0000
     1.0000   1.0000   1.0000   1.0000   1.0000   1.0000   1.0000   1.0000
     1.0000   1.0000   1.0000   1.0000   1.0000   1.0000   1.0000   1.0000
     1.0000   1.0000   1.0000   1.0000   1.0000   1.0000   1.0000   1.0000
     1.0000   1.0000   1.0000   1.0000   1.0033   1.0033   1.0033   1.0033
     1.0275   1.0275   1.0275   1.0275  -0.0016  -0.0016  -0.0016  -0.0016
    -0.0000  -0.0000  -0.0000  -0.0000  -0.0000  -0.0000

          k = 0.1000 0.1000 0.1000 (  9669 PWs)   bands (ev):

   -56.5136 -56.5136 -56.4860 -56.4860 -56.4810 -56.4810 -56.4773 -56.4773
   -28.5892 -28.5830 -28.5754 -28.5742 -28.5649 -28.5606 -28.4895 -28.4894
   -27.6297 -27.6285 -27.5998 -27.5963 -27.5506 -27.5434 -27.5431 -27.5410
   -27.5248 -27.5139 -27.4651 -27.4591 -27.4543 -27.4522 -27.4439 -27.4414
     2.9061   2.9061   6.7164   6.7229   7.2685   7.2747   8.1856   8.1906
     9.9891   9.9946  10.6191  10.6198  10.8709  10.8711  11.1921  11.1974
    11.9276  11.9287  12.3620  12.3755  12.6866  12.6878  12.8055  12.8138
    13.0088  13.0095  13.1669  13.1673  13.2138  13.2189  13.2405  13.2437
    13.4575  13.4613  13.6795  13.6832  13.9967  14.0018  15.3608  15.3649
    15.4273  15.4286  15.6216  15.6273  15.6879  15.7006  15.8013  15.8105
    16.3815  16.4013  16.6656  16.6718  16.9085  16.9399

     occupation numbers 
     1.0000   1.0000   1.0000   1.0000   1.0000   1.0000   1.0000   1.0000
     1.0000   1.0000   1.0000   1.0000   1.0000   1.0000   1.0000   1.0000
     1.0000   1.0000   1.0000   1.0000   1.0000   1.0000   1.0000   1.0000
     1.0000   1.0000   1.0000   1.0000   1.0000   1.0000   1.0000   1.0000
     1.0000   1.0000   1.0000   1.0000   1.0000   1.0000   1.0000   1.0000
     1.0000   1.0000   1.0000   1.0000   1.0000   1.0000   1.0000   1.0000
     1.0000   1.0000   1.0000   1.0000   1.0000   1.0000   1.0000   1.0000
     1.0000   1.0000   1.0000   1.0000   1.0000   1.0000   1.0000   1.0000
     1.0000   1.0000   1.0000   1.0000   1.0000   1.0000  -0.0049  -0.0046
    -0.0012  -0.0012  -0.0000  -0.0000  -0.0000  -0.0000  -0.0000  -0.0000
    -0.0000  -0.0000  -0.0000  -0.0000  -0.0000  -0.0000

          k = 0.1000 0.1000 0.2000 (  9653 PWs)   bands (ev):

   -56.5118 -56.5118 -56.4886 -56.4886 -56.4808 -56.4808 -56.4767 -56.4767
   -28.5907 -28.5847 -28.5756 -28.5752 -28.5584 -28.5545 -28.4947 -28.4945
   -27.6344 -27.6296 -27.5937 -27.5876 -27.5539 -27.5481 -27.5433 -27.5406
   -27.5216 -27.5053 -27.4730 -27.4632 -27.4576 -27.4539 -27.4416 -27.4388
     3.1105   3.1105   6.3282   6.3321   7.2719   7.2763   8.3626   8.3675
     9.8303   9.8335  10.5505  10.5527  10.6973  10.7003  11.3544  11.3593
    11.8168  11.8214  12.3554  12.3582  12.7043  12.7080  12.9590  12.9602
    13.0698  13.0777  13.1341  13.1374  13.2690  13.2735  13.3456  13.3581
    13.5131  13.5281  13.7245  13.7337  14.0855  14.0927  15.2033  15.2266
    15.3338  15.3484  15.5468  15.5603  15.6479  15.6640  15.8249  15.8424
    16.2723  16.2905  16.5959  16.6077  17.0410  17.0742

     occupation numbers 
     1.0000   1.0000   1.0000   1.0000   1.0000   1.0000   1.0000   1.0000
     1.0000   1.0000   1.0000   1.0000   1.0000   1.0000   1.0000   1.0000
     1.0000   1.0000   1.0000   1.0000   1.0000   1.0000   1.0000   1.0000
     1.0000   1.0000   1.0000   1.0000   1.0000   1.0000   1.0000   1.0000
     1.0000   1.0000   1.0000   1.0000   1.0000   1.0000   1.0000   1.0000
     1.0000   1.0000   1.0000   1.0000   1.0000   1.0000   1.0000   1.0000
     1.0000   1.0000   1.0000   1.0000   1.0000   1.0000   1.0000   1.0000
     1.0000   1.0000   1.0000   1.0000   1.0000   1.0000   1.0000   1.0000
     1.0000   1.0000   1.0000   1.0000   1.0000   1.0000  -0.0344  -0.0304
    -0.0080  -0.0062  -0.0000  -0.0000  -0.0000  -0.0000  -0.0000  -0.0000
    -0.0000  -0.0000  -0.0000  -0.0000  -0.0000  -0.0000

          k = 0.1000 0.1000 0.3000 (  9634 PWs)   bands (ev):

   -56.5090 -56.5090 -56.4924 -56.4924 -56.4800 -56.4800 -56.4766 -56.4766
   -28.5910 -28.5853 -28.5787 -28.5768 -28.5485 -28.5455 -28.5028 -28.5023
   -27.6375 -27.6312 -27.5854 -27.5798 -27.5601 -27.5479 -27.5432 -27.5374
   -27.5223 -27.4964 -27.4817 -27.4667 -27.4616 -27.4564 -27.4400 -27.4372
     3.4441   3.4442   5.7262   5.7278   7.4470   7.4493   8.4625   8.4680
     9.6442   9.6453  10.3741  10.3786  10.8191  10.8227  11.3610  11.3656
    11.7649  11.7660  12.2468  12.2547  12.7656  12.7689  13.0170  13.0252
    13.0591  13.0657  13.1624  13.1677  13.3271  13.3307  13.3866  13.3930
    13.5966  13.5995  13.9089  13.9182  14.1568  14.1618  14.9663  14.9966
    15.2976  15.3118  15.4389  15.4539  15.6394  15.6603  15.8291  15.8510
    16.1782  16.1925  16.4654  16.4804  17.1981  17.2273

     occupation numbers 
     1.0000   1.0000   1.0000   1.0000   1.0000   1.0000   1.0000   1.0000
     1.0000   1.0000   1.0000   1.0000   1.0000   1.0000   1.0000   1.0000
     1.0000   1.0000   1.0000   1.0000   1.0000   1.0000   1.0000   1.0000
     1.0000   1.0000   1.0000   1.0000   1.0000   1.0000   1.0000   1.0000
     1.0000   1.0000   1.0000   1.0000   1.0000   1.0000   1.0000   1.0000
     1.0000   1.0000   1.0000   1.0000   1.0000   1.0000   1.0000   1.0000
     1.0000   1.0000   1.0000   1.0000   1.0000   1.0000   1.0000   1.0000
     1.0000   1.0000   1.0000   1.0000   1.0000   1.0000   1.0000   1.0000
     1.0000   1.0000   1.0000   1.0000   1.0000   1.0000   0.4407   0.3118
    -0.0141  -0.0114  -0.0009  -0.0006  -0.0000  -0.0000  -0.0000  -0.0000
    -0.0000  -0.0000  -0.0000  -0.0000  -0.0000  -0.0000

          k = 0.1000 0.1000 0.4000 (  9660 PWs)   bands (ev):

   -56.5053 -56.5053 -56.4967 -56.4967 -56.4790 -56.4790 -56.4770 -56.4770
   -28.5897 -28.5853 -28.5817 -28.5791 -28.5370 -28.5348 -28.5131 -28.5122
   -27.6382 -27.6339 -27.5777 -27.5717 -27.5666 -27.5510 -27.5420 -27.5308
   -27.5227 -27.4981 -27.4825 -27.4696 -27.4638 -27.4597 -27.4388 -27.4369
     3.8959   3.8961   5.0729   5.0736   7.7153   7.7176   8.3339   8.3387
     9.6761   9.6775  10.1905  10.1943  10.9270  10.9310  11.2409  11.2473
    11.8798  11.8842  12.2198  12.2236  12.7274  12.7306  12.9300  12.9377
    13.0628  13.0697  13.2319  13.2377  13.3077  13.3095  13.3799  13.3860
    13.6677  13.6709  13.9457  13.9515  14.3706  14.3918  14.7823  14.8162
    15.2811  15.2973  15.3482  15.3639  15.6668  15.6895  15.7922  15.8166
    16.1491  16.1585  16.3233  16.3372  17.3631  17.3809

     occupation numbers 
     1.0000   1.0000   1.0000   1.0000   1.0000   1.0000   1.0000   1.0000
     1.0000   1.0000   1.0000   1.0000   1.0000   1.0000   1.0000   1.0000
     1.0000   1.0000   1.0000   1.0000   1.0000   1.0000   1.0000   1.0000
     1.0000   1.0000   1.0000   1.0000   1.0000   1.0000   1.0000   1.0000
     1.0000   1.0000   1.0000   1.0000   1.0000   1.0000   1.0000   1.0000
     1.0000   1.0000   1.0000   1.0000   1.0000   1.0000   1.0000   1.0000
     1.0000   1.0000   1.0000   1.0000   1.0000   1.0000   1.0000   1.0000
     1.0000   1.0000   1.0000   1.0000   1.0000   1.0000   1.0000   1.0000
     1.0000   1.0000   1.0000   1.0000   1.0001   1.0001   1.0107   0.9660
    -0.0176  -0.0141  -0.0062  -0.0047  -0.0000  -0.0000  -0.0000  -0.0000
    -0.0000  -0.0000  -0.0000  -0.0000  -0.0000  -0.0000

          k = 0.1000 0.1000-0.5000 (  9662 PWs)   bands (ev):

   -56.5011 -56.5011 -56.5011 -56.5011 -56.4779 -56.4779 -56.4779 -56.4779
   -28.5872 -28.5872 -28.5814 -28.5814 -28.5254 -28.5254 -28.5228 -28.5228
   -27.6366 -27.6366 -27.5723 -27.5723 -27.5608 -27.5608 -27.5358 -27.5358
   -27.5108 -27.5108 -27.4752 -27.4752 -27.4626 -27.4626 -27.4377 -27.4377
     4.4479   4.4479   4.4484   4.4484   8.0329   8.0329   8.0393   8.0393
     9.9191   9.9191   9.9218   9.9218  11.0690  11.0690  11.0796  11.0796
    12.1014  12.1014  12.1056  12.1056  12.7600  12.7600  12.7732  12.7732
    13.1693  13.1693  13.1761  13.1761  13.3257  13.3257  13.3285  13.3285
    13.8211  13.8211  13.8261  13.8261  14.6061  14.6061  14.6370  14.6370
    15.2945  15.2945  15.3132  15.3132  15.7265  15.7265  15.7542  15.7542
    16.2037  16.2037  16.2146  16.2146  17.6020  17.6048

     occupation numbers 
     1.0000   1.0000   1.0000   1.0000   1.0000   1.0000   1.0000   1.0000
     1.0000   1.0000   1.0000   1.0000   1.0000   1.0000   1.0000   1.0000
     1.0000   1.0000   1.0000   1.0000   1.0000   1.0000   1.0000   1.0000
     1.0000   1.0000   1.0000   1.0000   1.0000   1.0000   1.0000   1.0000
     1.0000   1.0000   1.0000   1.0000   1.0000   1.0000   1.0000   1.0000
     1.0000   1.0000   1.0000   1.0000   1.0000   1.0000   1.0000   1.0000
     1.0000   1.0000   1.0000   1.0000   1.0000   1.0000   1.0000   1.0000
     1.0000   1.0000   1.0000   1.0000   1.0000   1.0000   1.0000   1.0000
     1.0000   1.0000   1.0000   1.0000   1.0136   1.0136   1.0204   1.0204
    -0.0147  -0.0147  -0.0112  -0.0112  -0.0000  -0.0000  -0.0000  -0.0000
    -0.0000  -0.0000  -0.0000  -0.0000  -0.0000  -0.0000

          k = 0.1000 0.2000 0.2000 (  9644 PWs)   bands (ev):

   -56.5101 -56.5101 -56.4901 -56.4901 -56.4812 -56.4812 -56.4765 -56.4765
   -28.5909 -28.5854 -28.5744 -28.5741 -28.5554 -28.5515 -28.4996 -28.4992
   -27.6340 -27.6307 -27.5892 -27.5822 -27.5534 -27.5520 -27.5452 -27.5429
   -27.5180 -27.4999 -27.4799 -27.4665 -27.4629 -27.4531 -27.4388 -27.4365
     3.3119   3.3120   6.2296   6.2346   7.0570   7.0634   8.3960   8.3996
     9.6896   9.6920  10.4530  10.4557  10.6341  10.6368  11.4238  11.4289
    11.8990  11.9024  12.3330  12.3373  12.6658  12.6723  13.0040  13.0063
    13.0643  13.0717  13.1663  13.1710  13.2562  13.2614  13.4820  13.4929
    13.5998  13.6089  13.8297  13.8389  14.1573  14.1647  15.1590  15.1768
    15.2422  15.2607  15.4248  15.4367  15.5785  15.5940  15.7952  15.8139
    16.2055  16.2212  16.5740  16.5862  17.0892  17.1294

     occupation numbers 
     1.0000   1.0000   1.0000   1.0000   1.0000   1.0000   1.0000   1.0000
     1.0000   1.0000   1.0000   1.0000   1.0000   1.0000   1.0000   1.0000
     1.0000   1.0000   1.0000   1.0000   1.0000   1.0000   1.0000   1.0000
     1.0000   1.0000   1.0000   1.0000   1.0000   1.0000   1.0000   1.0000
     1.0000   1.0000   1.0000   1.0000   1.0000   1.0000   1.0000   1.0000
     1.0000   1.0000   1.0000   1.0000   1.0000   1.0000   1.0000   1.0000
     1.0000   1.0000   1.0000   1.0000   1.0000   1.0000   1.0000   1.0000
     1.0000   1.0000   1.0000   1.0000   1.0000   1.0000   1.0000   1.0000
     1.0000   1.0000   1.0000   1.0000   1.0000   1.0000  -0.0317  -0.0350
    -0.0268  -0.0223  -0.0013  -0.0010  -0.0000  -0.0000  -0.0000  -0.0000
    -0.0000  -0.0000  -0.0000  -0.0000  -0.0000  -0.0000

          k = 0.1000 0.2000 0.3000 (  9631 PWs)   bands (ev):

   -56.5075 -56.5075 -56.4927 -56.4927 -56.4808 -56.4808 -56.4768 -56.4768
   -28.5900 -28.5849 -28.5760 -28.5746 -28.5483 -28.5452 -28.5072 -28.5067
   -27.6344 -27.6303 -27.5838 -27.5765 -27.5597 -27.5513 -27.5447 -27.5403
   -27.5187 -27.4984 -27.4839 -27.4706 -27.4670 -27.4531 -27.4370 -27.4345
     3.6403   3.6405   5.8139   5.8168   7.0977   7.1022   8.3492   8.3526
     9.5027   9.5050  10.3404  10.3432  10.7928  10.7974  11.5156  11.5206
    11.8102  11.8162  12.2471  12.2498  12.5914  12.5996  12.9287  12.9362
    13.1507  13.1613  13.2104  13.2151  13.3134  13.3196  13.5197  13.5243
    13.7294  13.7345  13.9820  13.9911  14.2717  14.2813  14.9770  15.0021
    15.1793  15.1978  15.3016  15.3122  15.5595  15.5759  15.7527  15.7766
    16.1615  16.1725  16.4928  16.5060  17.1716  17.2091

     occupation numbers 
     1.0000   1.0000   1.0000   1.0000   1.0000   1.0000   1.0000   1.0000
     1.0000   1.0000   1.0000   1.0000   1.0000   1.0000   1.0000   1.0000
     1.0000   1.0000   1.0000   1.0000   1.0000   1.0000   1.0000   1.0000
     1.0000   1.0000   1.0000   1.0000   1.0000   1.0000   1.0000   1.0000
     1.0000   1.0000   1.0000   1.0000   1.0000   1.0000   1.0000   1.0000
     1.0000   1.0000   1.0000   1.0000   1.0000   1.0000   1.0000   1.0000
     1.0000   1.0000   1.0000   1.0000   1.0000   1.0000   1.0000   1.0000
     1.0000   1.0000   1.0000   1.0000   1.0000   1.0000   1.0000   1.0000
     1.0000   1.0000   1.0000   1.0000   1.0000   1.0000   0.3939   0.2896
    -0.0352  -0.0349  -0.0133  -0.0114  -0.0000  -0.0000  -0.0000  -0.0000
    -0.0000  -0.0000  -0.0000  -0.0000  -0.0000  -0.0000

          k = 0.1000 0.2000 0.4000 (  9656 PWs)   bands (ev):

   -56.5041 -56.5041 -56.4963 -56.4963 -56.4799 -56.4799 -56.4776 -56.4776
   -28.5878 -28.5837 -28.5790 -28.5768 -28.5386 -28.5365 -28.5167 -28.5160
   -27.6338 -27.6306 -27.5790 -27.5713 -27.5654 -27.5539 -27.5413 -27.5320
   -27.5229 -27.5054 -27.4826 -27.4753 -27.4646 -27.4555 -27.4354 -27.4338
     4.0838   4.0842   5.2221   5.2235   7.3546   7.3574   8.0848   8.0876
     9.5719   9.5733  10.1180  10.1203  11.0717  11.0770  11.5566  11.5628
    11.7333  11.7355  12.0999  12.1026  12.5620  12.5712  12.7861  12.7941
    13.1896  13.1975  13.2810  13.2860  13.3632  13.3675  13.5205  13.5267
    13.7984  13.8046  14.0210  14.0295  14.4747  14.5016  14.8016  14.8332
    15.1546  15.1690  15.2092  15.2156  15.5817  15.6010  15.6975  15.7237
    16.1852  16.1917  16.3893  16.4020  17.2756  17.2988

     occupation numbers 
     1.0000   1.0000   1.0000   1.0000   1.0000   1.0000   1.0000   1.0000
     1.0000   1.0000   1.0000   1.0000   1.0000   1.0000   1.0000   1.0000
     1.0000   1.0000   1.0000   1.0000   1.0000   1.0000   1.0000   1.0000
     1.0000   1.0000   1.0000   1.0000   1.0000   1.0000   1.0000   1.0000
     1.0000   1.0000   1.0000   1.0000   1.0000   1.0000   1.0000   1.0000
     1.0000   1.0000   1.0000   1.0000   1.0000   1.0000   1.0000   1.0000
     1.0000   1.0000   1.0000   1.0000   1.0000   1.0000   1.0000   1.0000
     1.0000   1.0000   1.0000   1.0000   1.0000   1.0000   1.0000   1.0000
[...]
    11.8849  11.8849  11.8888  11.8888  12.3763  12.3763  12.3838  12.3838
    13.2705  13.2705  13.2754  13.2754  13.8515  13.8515  13.8645  13.8645
    14.2111  14.2111  14.2181  14.2181  14.6454  14.6454  14.6728  14.6728
    14.8179  14.8179  14.8576  14.8576  15.4139  15.4139  15.4285  15.4285
    16.4545  16.4545  16.4657  16.4657  17.1056  17.1078

     occupation numbers 
     1.0000   1.0000   1.0000   1.0000   1.0000   1.0000   1.0000   1.0000
     1.0000   1.0000   1.0000   1.0000   1.0000   1.0000   1.0000   1.0000
     1.0000   1.0000   1.0000   1.0000   1.0000   1.0000   1.0000   1.0000
     1.0000   1.0000   1.0000   1.0000   1.0000   1.0000   1.0000   1.0000
     1.0000   1.0000   1.0000   1.0000   1.0000   1.0000   1.0000   1.0000
     1.0000   1.0000   1.0000   1.0000   1.0000   1.0000   1.0000   1.0000
     1.0000   1.0000   1.0000   1.0000   1.0000   1.0000   1.0000   1.0000
     1.0000   1.0000   1.0000   1.0000   1.0000   1.0000   1.0000   1.0000
     1.0000   1.0000   1.0000   1.0000   1.0224   1.0224   1.0289   1.0289
     0.9629   0.9629   0.8703   0.8703  -0.0016  -0.0016  -0.0012  -0.0012
    -0.0000  -0.0000  -0.0000  -0.0000  -0.0000  -0.0000

          k =-0.2000 0.4000 0.3000 (  9651 PWs)   bands (ev):

   -56.5010 -56.5010 -56.4954 -56.4954 -56.4819 -56.4819 -56.4795 -56.4795
   -28.5824 -28.5790 -28.5732 -28.5719 -28.5423 -28.5401 -28.5260 -28.5246
   -27.6241 -27.6217 -27.5810 -27.5758 -27.5654 -27.5601 -27.5403 -27.5315
   -27.5244 -27.5132 -27.4842 -27.4773 -27.4612 -27.4536 -27.4346 -27.4321
     4.5650   4.5654   5.5670   5.5691   6.8871   6.8915   7.6191   7.6225
     9.1376   9.1412   9.7833   9.7867  11.0153  11.0178  11.5299  11.5317
    11.7529  11.7560  12.2099  12.2132  12.6685  12.6740  12.8321  12.8387
    13.1084  13.1147  13.1937  13.2061  13.4201  13.4265  13.6484  13.6599
    13.9725  13.9830  14.2846  14.2946  14.6197  14.6455  14.8154  14.8311
    14.9760  14.9928  15.1254  15.1541  15.3619  15.3670  15.5060  15.5193
    16.2477  16.2557  16.4034  16.4122  17.1306  17.1468

     occupation numbers 
     1.0000   1.0000   1.0000   1.0000   1.0000   1.0000   1.0000   1.0000
     1.0000   1.0000   1.0000   1.0000   1.0000   1.0000   1.0000   1.0000
     1.0000   1.0000   1.0000   1.0000   1.0000   1.0000   1.0000   1.0000
     1.0000   1.0000   1.0000   1.0000   1.0000   1.0000   1.0000   1.0000
     1.0000   1.0000   1.0000   1.0000   1.0000   1.0000   1.0000   1.0000
     1.0000   1.0000   1.0000   1.0000   1.0000   1.0000   1.0000   1.0000
     1.0000   1.0000   1.0000   1.0000   1.0000   1.0000   1.0000   1.0000
     1.0000   1.0000   1.0000   1.0000   1.0000   1.0000   1.0000   1.0000
     1.0000   1.0000   1.0000   1.0000   1.0164   1.0224   0.9674   0.9371
     0.3986   0.3274  -0.0123  -0.0300  -0.0048  -0.0044  -0.0002  -0.0001
    -0.0000  -0.0000  -0.0000  -0.0000  -0.0000  -0.0000

          k =-0.2000-0.5000 0.3000 (  9660 PWs)   bands (ev):

   -56.4981 -56.4981 -56.4981 -56.4981 -56.4809 -56.4809 -56.4809 -56.4809
   -28.5787 -28.5787 -28.5740 -28.5740 -28.5356 -28.5356 -28.5319 -28.5319
   -27.6215 -27.6215 -27.5793 -27.5793 -27.5636 -27.5636 -27.5338 -27.5338
   -27.5205 -27.5205 -27.4823 -27.4823 -27.4558 -27.4558 -27.4334 -27.4334
     5.0600   5.0600   5.0611   5.0611   7.2217   7.2217   7.2266   7.2266
     9.4399   9.4399   9.4432   9.4432  11.2335  11.2335  11.2364  11.2364
    11.9948  11.9948  12.0019  12.0019  12.7537  12.7537  12.7642  12.7642
    13.1384  13.1384  13.1489  13.1489  13.5467  13.5467  13.5565  13.5565
    14.1603  14.1603  14.1697  14.1697  14.7346  14.7346  14.7604  14.7604
    15.0219  15.0219  15.0470  15.0470  15.4241  15.4241  15.4408  15.4408
    16.3233  16.3233  16.3337  16.3337  17.2489  17.2546

     occupation numbers 
     1.0000   1.0000   1.0000   1.0000   1.0000   1.0000   1.0000   1.0000
     1.0000   1.0000   1.0000   1.0000   1.0000   1.0000   1.0000   1.0000
     1.0000   1.0000   1.0000   1.0000   1.0000   1.0000   1.0000   1.0000
     1.0000   1.0000   1.0000   1.0000   1.0000   1.0000   1.0000   1.0000
     1.0000   1.0000   1.0000   1.0000   1.0000   1.0000   1.0000   1.0000
     1.0000   1.0000   1.0000   1.0000   1.0000   1.0000   1.0000   1.0000
     1.0000   1.0000   1.0000   1.0000   1.0000   1.0000   1.0000   1.0000
     1.0000   1.0000   1.0000   1.0000   1.0000   1.0000   1.0000   1.0000
     1.0000   1.0000   1.0000   1.0000   1.0344   1.0344   1.0262   1.0262
     0.2147   0.2147   0.1335   0.1335  -0.0013  -0.0013  -0.0009  -0.0009
    -0.0000  -0.0000  -0.0000  -0.0000  -0.0000  -0.0000

          k =-0.2000-0.5000 0.4000 (  9638 PWs)   bands (ev):

   -56.4969 -56.4969 -56.4969 -56.4969 -56.4820 -56.4820 -56.4820 -56.4820
   -28.5747 -28.5747 -28.5717 -28.5717 -28.5387 -28.5387 -28.5361 -28.5361
   -27.6129 -27.6129 -27.5896 -27.5896 -27.5595 -27.5595 -27.5372 -27.5372
   -27.5162 -27.5162 -27.4901 -27.4901 -27.4487 -27.4487 -27.4354 -27.4354
     5.3781   5.3781   5.3795   5.3795   6.8020   6.8020   6.8056   6.8056
     9.5481   9.5481   9.5521   9.5521  10.9113  10.9113  10.9138  10.9138
    12.1981  12.1981  12.2060  12.2060  12.5665  12.5665  12.5765  12.5765
    13.1589  13.1589  13.1649  13.1649  13.6488  13.6488  13.6620  13.6620
    14.3400  14.3400  14.3458  14.3458  14.7475  14.7475  14.7713  14.7713
    14.9077  14.9077  14.9457  14.9457  15.3610  15.3610  15.3734  15.3734
    16.3981  16.3981  16.4078  16.4078  17.0261  17.0303

     occupation numbers 
     1.0000   1.0000   1.0000   1.0000   1.0000   1.0000   1.0000   1.0000
     1.0000   1.0000   1.0000   1.0000   1.0000   1.0000   1.0000   1.0000
     1.0000   1.0000   1.0000   1.0000   1.0000   1.0000   1.0000   1.0000
     1.0000   1.0000   1.0000   1.0000   1.0000   1.0000   1.0000   1.0000
     1.0000   1.0000   1.0000   1.0000   1.0000   1.0000   1.0000   1.0000
     1.0000   1.0000   1.0000   1.0000   1.0000   1.0000   1.0000   1.0000
     1.0000   1.0000   1.0000   1.0000   1.0000   1.0000   1.0000   1.0000
     1.0000   1.0000   1.0000   1.0000   1.0000   1.0000   1.0000   1.0000
     1.0000   1.0000   1.0000   1.0000   1.0315   1.0315   1.0196   1.0196
     0.6947   0.6947   0.5320   0.5320  -0.0049  -0.0049  -0.0039  -0.0039
    -0.0000  -0.0000  -0.0000  -0.0000  -0.0000  -0.0000

          k =-0.3000-0.5000 0.4000 (  9654 PWs)   bands (ev):

   -56.4952 -56.4952 -56.4952 -56.4952 -56.4838 -56.4838 -56.4838 -56.4838
   -28.5708 -28.5708 -28.5679 -28.5679 -28.5433 -28.5433 -28.5406 -28.5406
   -27.6079 -27.6079 -27.5866 -27.5866 -27.5692 -27.5692 -27.5432 -27.5432
   -27.5084 -27.5084 -27.4797 -27.4797 -27.4546 -27.4546 -27.4394 -27.4394
     5.6190   5.6190   5.6211   5.6211   6.8417   6.8417   6.8469   6.8469
     9.1180   9.1180   9.1237   9.1237  10.4444  10.4444  10.4475  10.4475
    12.4412  12.4412  12.4495  12.4495  12.7824  12.7824  12.7914  12.7914
    13.0790  13.0790  13.0885  13.0885  13.4291  13.4291  13.4402  13.4402
    14.5079  14.5079  14.5149  14.5149  14.8783  14.8783  14.9006  14.9006
    15.0315  15.0315  15.0642  15.0642  15.2851  15.2851  15.3007  15.3007
    16.3477  16.3477  16.3566  16.3566  16.8706  16.8765

     occupation numbers 
     1.0000   1.0000   1.0000   1.0000   1.0000   1.0000   1.0000   1.0000
     1.0000   1.0000   1.0000   1.0000   1.0000   1.0000   1.0000   1.0000
     1.0000   1.0000   1.0000   1.0000   1.0000   1.0000   1.0000   1.0000
     1.0000   1.0000   1.0000   1.0000   1.0000   1.0000   1.0000   1.0000
     1.0000   1.0000   1.0000   1.0000   1.0000   1.0000   1.0000   1.0000
     1.0000   1.0000   1.0000   1.0000   1.0000   1.0000   1.0000   1.0000
     1.0000   1.0000   1.0000   1.0000   1.0000   1.0000   1.0000   1.0000
     1.0000   1.0000   1.0000   1.0000   1.0000   1.0000   1.0000   1.0000
     1.0023   1.0023   1.0027   1.0027   0.8052   0.8052   0.7231   0.7231
     0.1817   0.1817   0.0873   0.0873  -0.0167  -0.0167  -0.0135  -0.0135
    -0.0000  -0.0000  -0.0000  -0.0000  -0.0000  -0.0000

     the Fermi energy is    14.9530 ev

!    total energy              =   -1180.35046060 Ry

     total all-electron energy =    -10727.811297 Ry
     estimated scf accuracy    <       0.00000027 Ry
     smearing contrib. (-TS)   =      -0.00041524 Ry
     internal energy E=F+TS    =   -1180.35004536 Ry

     The total energy is F=E-TS. E is the sum of the following terms:
     one-electron contribution =    -336.79660778 Ry
     hartree contribution      =     207.04132847 Ry
     xc contribution           =    -114.36204248 Ry
     ewald contribution        =    -496.51183961 Ry
     one-center paw contrib.   =    -439.72088398 Ry
      -> PAW hartree energy AE =     126.71567425 Ry
      -> PAW hartree energy PS =    -125.74832812 Ry
      -> PAW xc energy AE      =     -96.23984896 Ry
      -> PAW xc energy PS      =      20.93248592 Ry
      -> total E_H with PAW    =     208.00867460 Ry
      -> total E_XC with PAW   =    -189.66940551 Ry

     convergence has been achieved in   8 iterations

     Forces acting on atoms (cartesian axes, Ry/au):

     atom    1 type  1   force =    -0.00283061   -0.00283061    0.00283061
     atom    2 type  1   force =    -0.00283061    0.00283061   -0.00283061
     atom    3 type  1   force =     0.00283061   -0.00283061   -0.00283061
     atom    4 type  1   force =     0.00283061    0.00283061    0.00283061
     atom    5 type  2   force =    -0.00426835   -0.00426835    0.00426835
     atom    6 type  2   force =    -0.00426835    0.00426835   -0.00426835
     atom    7 type  2   force =     0.00426835   -0.00426835   -0.00426835
     atom    8 type  2   force =     0.00426835    0.00426835    0.00426835
     The non-local contrib.  to forces
     atom    1 type  1   force =     0.05119817    0.05119817   -0.05119817
     atom    2 type  1   force =     0.05119817   -0.05119817    0.05119817
     atom    3 type  1   force =    -0.05119817    0.05119817    0.05119817
     atom    4 type  1   force =    -0.05119817   -0.05119817   -0.05119817
     atom    5 type  2   force =    -0.00807402   -0.00807402    0.00807402
     atom    6 type  2   force =    -0.00807402    0.00807402   -0.00807402
     atom    7 type  2   force =     0.00807402   -0.00807402   -0.00807402
     atom    8 type  2   force =     0.00807402    0.00807402    0.00807402
     The ionic contribution  to forces
     atom    1 type  1   force =    -0.85044630   -0.85044630    0.85044630
     atom    2 type  1   force =    -0.85044630    0.85044630   -0.85044630
     atom    3 type  1   force =     0.85044630   -0.85044630   -0.85044630
     atom    4 type  1   force =     0.85044630    0.85044630    0.85044630
     atom    5 type  2   force =    -0.24524978   -0.24524978    0.24524978
     atom    6 type  2   force =    -0.24524978    0.24524978   -0.24524978
     atom    7 type  2   force =     0.24524978   -0.24524978   -0.24524978
     atom    8 type  2   force =     0.24524978    0.24524978    0.24524978
     The local contribution  to forces
     atom    1 type  1   force =     0.79734865    0.79734865   -0.79734865
     atom    2 type  1   force =     0.79734865   -0.79734865    0.79734865
     atom    3 type  1   force =    -0.79734865    0.79734865    0.79734865
     atom    4 type  1   force =    -0.79734865   -0.79734865   -0.79734865
     atom    5 type  2   force =     0.24826846    0.24826846   -0.24826846
     atom    6 type  2   force =     0.24826846   -0.24826846    0.24826846
     atom    7 type  2   force =    -0.24826846    0.24826846    0.24826846
     atom    8 type  2   force =    -0.24826846   -0.24826846   -0.24826846
     The core correction contribution to forces
     atom    1 type  1   force =    -0.00103234   -0.00103234    0.00103234
     atom    2 type  1   force =    -0.00103234    0.00103234   -0.00103234
     atom    3 type  1   force =     0.00103234   -0.00103234   -0.00103234
     atom    4 type  1   force =     0.00103234    0.00103234    0.00103234
     atom    5 type  2   force =     0.00079604    0.00079604   -0.00079604
     atom    6 type  2   force =     0.00079604   -0.00079604    0.00079604
     atom    7 type  2   force =    -0.00079604    0.00079604    0.00079604
     atom    8 type  2   force =    -0.00079604   -0.00079604   -0.00079604
     The Hubbard contrib.    to forces
     atom    1 type  1   force =     0.00000000    0.00000000    0.00000000
     atom    2 type  1   force =     0.00000000    0.00000000    0.00000000
     atom    3 type  1   force =     0.00000000    0.00000000    0.00000000
     atom    4 type  1   force =     0.00000000    0.00000000    0.00000000
     atom    5 type  2   force =     0.00000000    0.00000000    0.00000000
     atom    6 type  2   force =     0.00000000    0.00000000    0.00000000
     atom    7 type  2   force =     0.00000000    0.00000000    0.00000000
     atom    8 type  2   force =     0.00000000    0.00000000    0.00000000
     The SCF correction term to forces
     atom    1 type  1   force =     0.00010120    0.00010120   -0.00010120
     atom    2 type  1   force =     0.00010120   -0.00010120    0.00010120
     atom    3 type  1   force =    -0.00010120    0.00010120    0.00010120
     atom    4 type  1   force =    -0.00010120   -0.00010120   -0.00010120
     atom    5 type  2   force =    -0.00000906   -0.00000906    0.00000906
     atom    6 type  2   force =    -0.00000906    0.00000906   -0.00000906
     atom    7 type  2   force =     0.00000906   -0.00000906   -0.00000906
     atom    8 type  2   force =     0.00000906    0.00000906    0.00000906

     Total force =     0.017742     Total SCF correction =     0.000352


     Computing stress (Cartesian axis) and pressure

          total   stress  (Ry/bohr**3)                   (kbar)     P=      -41.66
  -0.00028323   0.00000000   0.00000000          -41.66        0.00        0.00
   0.00000000  -0.00028323   0.00000000            0.00      -41.66        0.00
   0.00000000   0.00000000  -0.00028323            0.00        0.00      -41.66

     kinetic stress (kbar)  35759.80      0.00      0.00
                                0.00  35759.80      0.00
                                0.00      0.00  35759.80

     local   stress (kbar) -10012.48      0.00     -0.00
                                0.00 -10012.48     -0.00
                               -0.00     -0.00 -10012.48

     nonloc. stress (kbar)   2427.70      0.00      0.00
                                0.00   2427.70      0.00
                                0.00      0.00   2427.70

     hartree stress (kbar)  15167.20     -0.00      0.00
                               -0.00  15167.20      0.00
                                0.00      0.00  15167.20

     exc-cor stress (kbar)  -1706.60     -0.00     -0.00
                               -0.00  -1706.60     -0.00
                               -0.00     -0.00  -1706.60

     corecor stress (kbar)  -5304.38     -0.00     -0.00
                               -0.00  -5304.38     -0.00
                               -0.00     -0.00  -5304.38

     ewald   stress (kbar) -36372.90      0.00      0.00
                                0.00 -36372.90      0.00
                                0.00      0.00 -36372.90

     hubbard stress (kbar)      0.00      0.00      0.00
                                0.00      0.00      0.00
                                0.00      0.00      0.00

     DFT-D   stress (kbar)      0.00      0.00      0.00
                                0.00      0.00      0.00
                                0.00      0.00      0.00

     XDM     stress (kbar)      0.00      0.00      0.00
                                0.00      0.00      0.00
                                0.00      0.00      0.00

     dft-nl  stress (kbar)      0.00      0.00      0.00
                                0.00      0.00      0.00
                                0.00      0.00      0.00

     TS-vdW  stress (kbar)      0.00      0.00      0.00
                                0.00      0.00      0.00
                                0.00      0.00      0.00



     Writing output data file /zfs_data/vergnior/martin/Scratch/OAL/CrSi/convergence/smearing/10x10x10/0.014/tmp/CrSi.save/
 
     init_run     :     17.50s CPU     18.08s WALL (       1 calls)
     electrons    :    541.26s CPU    553.05s WALL (       1 calls)
     forces       :     17.01s CPU     17.15s WALL (       1 calls)
     stress       :     44.75s CPU     45.17s WALL (       1 calls)

     Called by init_run:
     wfcinit      :     15.97s CPU     16.35s WALL (       1 calls)
     wfcinit:atom :      0.12s CPU      0.12s WALL (      76 calls)
     wfcinit:wfcr :     15.31s CPU     15.69s WALL (      76 calls)
     potinit      :      0.25s CPU      0.34s WALL (       1 calls)
     hinit0       :      0.23s CPU      0.24s WALL (       1 calls)

     Called by electrons:
     c_bands      :    441.32s CPU    449.86s WALL (       9 calls)
     sum_band     :     93.02s CPU     95.40s WALL (       9 calls)
     v_of_rho     :      0.32s CPU      0.33s WALL (       9 calls)
     v_h          :      0.03s CPU      0.03s WALL (       9 calls)
     v_xc         :      0.35s CPU      0.37s WALL (      11 calls)
     newd         :      5.51s CPU      6.36s WALL (       9 calls)
     PAW_pot      :      1.51s CPU      1.55s WALL (       9 calls)
     mix_rho      :      0.20s CPU      0.20s WALL (       9 calls)

     Called by c_bands:
     init_us_2    :      2.38s CPU      2.42s WALL (    1596 calls)
     cegterg      :    408.99s CPU    416.19s WALL (     684 calls)

     Called by sum_band:
     sum_band:wei :      0.12s CPU      0.13s WALL (       9 calls)
     sum_band:loo :     88.55s CPU     89.91s WALL (       9 calls)
     sum_band:buf :      0.58s CPU      0.66s WALL (     684 calls)
     sum_band:ini :      1.08s CPU      1.10s WALL (     684 calls)
     sum_band:cal :      5.07s CPU      5.09s WALL (     684 calls)
     sum_band:bec :     10.61s CPU     10.65s WALL (     684 calls)
     addusdens    :      4.10s CPU      5.10s WALL (       9 calls)
     addusd:skk   :      0.01s CPU      0.01s WALL (      18 calls)
     addusd:dgemm :      1.50s CPU      2.47s WALL (      18 calls)
     addusd:qvan2 :      2.53s CPU      2.54s WALL (      18 calls)

     Called by *egterg:
     cdiaghg      :     31.33s CPU     31.47s WALL (    3737 calls)
     cegterg:over :     24.23s CPU     24.36s WALL (    3129 calls)
     cegterg:upda :      9.65s CPU      9.80s WALL (    3129 calls)
     cegterg:last :     19.49s CPU     19.59s WALL (    1992 calls)
     h_psi        :    292.28s CPU    298.91s WALL (    3889 calls)
     s_psi        :     36.36s CPU     36.52s WALL (    3889 calls)
     g_psi        :      0.64s CPU      0.65s WALL (    3129 calls)

     Called by h_psi:
     h_psi:calbec :     18.04s CPU     18.19s WALL (    3889 calls)
     vloc_psi     :    239.50s CPU    245.56s WALL (    3889 calls)
     add_vuspsi   :     33.17s CPU     33.44s WALL (    3889 calls)

     General routines
     calbec       :     25.58s CPU     25.79s WALL (    4953 calls)
     fft          :      0.38s CPU      0.39s WALL (     216 calls)
     ffts         :      0.03s CPU      0.10s WALL (      72 calls)
     fftw         :    188.62s CPU    192.96s WALL (  940464 calls)
     interpolate  :      0.09s CPU      0.16s WALL (      36 calls)
 
     Parallel routines
     fft_scatt_xy :     19.52s CPU     20.02s WALL (  940752 calls)
     fft_scatt_yz :     73.74s CPU     75.44s WALL (  940752 calls)

     PAW routines
     PAW_pot      :      1.51s CPU      1.55s WALL (       9 calls)
     PAW_symme    :      0.02s CPU      0.02s WALL (      18 calls)
 
     PWSCF        :  10m25.46s CPU  10m41.76s WALL

 
   This run was terminated on:  12:44: 4   1Aug2021            

=------------------------------------------------------------------------------=
   JOB DONE.
=------------------------------------------------------------------------------=
