
     Program PWSCF v.6.7MaX starts on 18May2022 at 17:40: 3 

     This program is part of the open-source Quantum ESPRESSO suite
     for quantum simulation of materials; please cite
         "P. Giannozzi et al., J. Phys.:Condens. Matter 21 395502 (2009);
         "P. Giannozzi et al., J. Phys.:Condens. Matter 29 465901 (2017);
          URL http://www.quantum-espresso.org", 
     in publications or presentations arising from this work. More details at
     http://www.quantum-espresso.org/quote

     Parallel version (MPI), running on    48 processors

     MPI processes distributed on     1 nodes
     R & G space division:  proc/nbgrp/npool/nimage =      48
     Waiting for input...
     Reading input from standard input

     Current dimensions of program PWSCF are:
     Max number of different atomic species (ntypx) = 10
     Max number of k-points (npk) =  40000
     Max angular momentum in pseudopotentials (lmaxx) =  3
     file O.pbe-nl-kjpaw_psl.1.0.0.UPF: wavefunction(s)  2S 2P renormalized
     file Cl.pbe-nl-kjpaw_psl.1.0.0.UPF: wavefunction(s)  3S renormalized
     file Nb.pbe-spn-kjpaw_psl.1.0.0.UPF: wavefunction(s)  4S 4P 4D renormalized

     Subspace diagonalization in iterative solution of the eigenvalue problem:
     a serial algorithm will be used

     Message from routine setup:
     using ibrav=0 with symmetry is DISCOURAGED, use correct ibrav instead
 
     Parallelization info
     --------------------
     sticks:   dense  smooth     PW     G-vecs:    dense   smooth      PW
     Min         226      90     28                 8011     2025     357
     Max         227      91     29                 8013     2026     359
     Sum       10861    4353   1363               384583    97215   17183
 


     bravais-lattice index     =            0
     lattice parameter (alat)  =      12.6717  a.u.
     unit-cell volume          =     547.9313 (a.u.)^3
     number of atoms/cell      =            4
     number of atomic types    =            3
     number of electrons       =        33.00
     number of Kohn-Sham states=           21
     kinetic-energy cutoff     =     120.0000  Ry
     charge density cutoff     =    1200.0000  Ry
     scf convergence threshold =      1.0E-10
     mixing beta               =       0.7000
     number of iterations used =            8  plain     mixing
     Exchange-correlation= SLA  PW   PBX  PBC
                           (   1   4   3   4   0   0   0)

     celldm(1)=  12.671676  celldm(2)=   0.000000  celldm(3)=   0.000000
     celldm(4)=   0.000000  celldm(5)=   0.000000  celldm(6)=   0.000000

     crystal axes: (cart. coord. in units of alat)
               a(1) = (  -0.250426   0.291161   0.923316 )  
               a(2) = (   0.250426  -0.291161   0.923316 )  
               a(3) = (   0.250426   0.291161  -0.923316 )  

     reciprocal axes: (cart. coord. in units 2 pi/alat)
               b(1) = (  0.000000  1.717261  0.541527 )  
               b(2) = (  1.996594  0.000000  0.541527 )  
               b(3) = (  1.996594  1.717261  0.000000 )  


     PseudoPot. # 1 for O  read from file:
     /zfs_data/gutierre/Scratch/Cl2NbO/smearing/12x12x12/0.020/pseudo/O.pbe-nl-kjpaw_psl.1.0.0.UPF
     MD5 check sum: df3ddea38124b4e5de5e1084591730e4
     Pseudo is Projector augmented-wave + core cor, Zval =  6.0
     Generated using 'atomic' code by A. Dal Corso  v.6.7MaX
     Shape of augmentation charge: PSQ
     Using radial grid of 1095 points,  4 beta functions with: 
                l(1) =   0
                l(2) =   0
                l(3) =   1
                l(4) =   1
     Q(r) pseudized with 0 coefficients 


     PseudoPot. # 2 for Cl read from file:
     /zfs_data/gutierre/Scratch/Cl2NbO/smearing/12x12x12/0.020/pseudo/Cl.pbe-nl-kjpaw_psl.1.0.0.UPF
     MD5 check sum: 8cf6bde52c08f6236e0f72a8870677af
     Pseudo is Projector augmented-wave + core cor, Zval =  7.0
     Generated using 'atomic' code by A. Dal Corso  v.6.7MaX
     Shape of augmentation charge: PSQ
     Using radial grid of 1157 points,  4 beta functions with: 
                l(1) =   0
                l(2) =   0
                l(3) =   1
                l(4) =   1
     Q(r) pseudized with 0 coefficients 


     PseudoPot. # 3 for Nb read from file:
     /zfs_data/gutierre/Scratch/Cl2NbO/smearing/12x12x12/0.020/pseudo/Nb.pbe-spn-kjpaw_psl.1.0.0.UPF
     MD5 check sum: 1ec1a3aa7bf3cbf7f7e0d720422bce7a
     Pseudo is Projector augmented-wave + core cor, Zval = 13.0
     Generated using 'atomic' code by A. Dal Corso  v.6.7MaX
     Shape of augmentation charge: PSQ
     Using radial grid of 1227 points,  6 beta functions with: 
                l(1) =   0
                l(2) =   0
                l(3) =   1
                l(4) =   1
                l(5) =   2
                l(6) =   2
     Q(r) pseudized with 0 coefficients 


     atomic species   valence    mass     pseudopotential
        O              6.00    15.99940     O ( 1.00)
        Cl             7.00    35.45150     Cl( 1.00)
        Nb            13.00    92.90637     Nb( 1.00)

      8 Sym. Ops., with inversion, found


                                    s                        frac. trans.

      isym =  1     identity                                     

 cryst.   s( 1) = (     1          0          0      )
                  (     0          1          0      )
                  (     0          0          1      )

 cart.    s( 1) = (  1.0000000  0.0000000  0.0000000 )
                  (  0.0000000  1.0000000  0.0000000 )
                  (  0.0000000  0.0000000  1.0000000 )


      isym =  2     180 deg rotation - cart. axis [0,0,1]        

 cryst.   s( 2) = (     0          1          0      )
                  (     1          0          0      )
                  (    -1         -1         -1      )

 cart.    s( 2) = ( -1.0000000  0.0000000  0.0000000 )
                  (  0.0000000 -1.0000000  0.0000000 )
                  (  0.0000000  0.0000000  1.0000000 )


      isym =  3     180 deg rotation - cart. axis [0,1,0]        

 cryst.   s( 3) = (     0          0          1      )
                  (    -1         -1         -1      )
                  (     1          0          0      )

 cart.    s( 3) = ( -1.0000000  0.0000000  0.0000000 )
                  (  0.0000000  1.0000000  0.0000000 )
                  (  0.0000000  0.0000000 -1.0000000 )


      isym =  4     180 deg rotation - cart. axis [1,0,0]        

 cryst.   s( 4) = (    -1         -1         -1      )
                  (     0          0          1      )
                  (     0          1          0      )

 cart.    s( 4) = (  1.0000000  0.0000000  0.0000000 )
                  (  0.0000000 -1.0000000  0.0000000 )
                  (  0.0000000  0.0000000 -1.0000000 )


      isym =  5     inversion                                    

 cryst.   s( 5) = (    -1          0          0      )
                  (     0         -1          0      )
                  (     0          0         -1      )

 cart.    s( 5) = ( -1.0000000  0.0000000  0.0000000 )
                  (  0.0000000 -1.0000000  0.0000000 )
                  (  0.0000000  0.0000000 -1.0000000 )


      isym =  6     inv. 180 deg rotation - cart. axis [0,0,1]   

 cryst.   s( 6) = (     0         -1          0      )
                  (    -1          0          0      )
                  (     1          1          1      )

 cart.    s( 6) = (  1.0000000  0.0000000  0.0000000 )
                  (  0.0000000  1.0000000  0.0000000 )
                  (  0.0000000  0.0000000 -1.0000000 )


      isym =  7     inv. 180 deg rotation - cart. axis [0,1,0]   

 cryst.   s( 7) = (     0          0         -1      )
                  (     1          1          1      )
                  (    -1          0          0      )

 cart.    s( 7) = (  1.0000000  0.0000000  0.0000000 )
                  (  0.0000000 -1.0000000  0.0000000 )
                  (  0.0000000  0.0000000  1.0000000 )


      isym =  8     inv. 180 deg rotation - cart. axis [1,0,0]   

 cryst.   s( 8) = (     1          1          1      )
                  (     0          0         -1      )
                  (     0         -1          0      )

 cart.    s( 8) = ( -1.0000000  0.0000000  0.0000000 )
                  (  0.0000000  1.0000000  0.0000000 )
                  (  0.0000000  0.0000000  1.0000000 )


   Cartesian axes

     site n.     atom                  positions (alat units)
         1           O   tau(   1) = (   0.0000000   0.2911613   0.0000000  )
         2           Cl  tau(   2) = (  -0.0000000   0.2911613   0.6365338  )
         3           Cl  tau(   3) = (   0.2504264  -0.0000000   0.2867819  )
         4           Nb  tau(   4) = (   0.0000000   0.0000000   0.0000000  )

   Crystallographic axes

     site n.     atom                  positions (cryst. coord.)
         1           O   tau(   1) = (  0.5000000  0.0000000  0.5000000  )
         2           Cl  tau(   2) = (  0.8447000  0.3447000  0.5000000  )
         3           Cl  tau(   3) = (  0.1553000  0.6553000  0.5000000  )
         4           Nb  tau(   4) = (  0.0000000  0.0000000  0.0000000  )

     number of k points=   280  Methfessel-Paxton smearing, width (Ry)=  0.0200
                       cart. coord. in units 2pi/alat
        k(    1) = (   0.0000000   0.0000000   0.0000000), wk =   0.0011574
        k(    2) = (   0.1663829   0.1431051   0.0000000), wk =   0.0046296
        k(    3) = (   0.3327657   0.2862102   0.0000000), wk =   0.0046296
        k(    4) = (   0.4991486   0.4293153   0.0000000), wk =   0.0046296
        k(    5) = (   0.6655314   0.5724204   0.0000000), wk =   0.0046296
        k(    6) = (   0.8319143   0.7155256   0.0000000), wk =   0.0046296
        k(    7) = (  -0.9982971  -0.8586307   0.0000000), wk =   0.0023148
        k(    8) = (   0.1663829   0.0000000   0.0451272), wk =   0.0046296
        k(    9) = (   0.3327657   0.1431051   0.0451272), wk =   0.0092593
        k(   10) = (   0.4991486   0.2862102   0.0451272), wk =   0.0092593
        k(   11) = (   0.6655314   0.4293153   0.0451272), wk =   0.0092593
        k(   12) = (   0.8319143   0.5724204   0.0451272), wk =   0.0092593
        k(   13) = (   0.9982971   0.7155256   0.0451272), wk =   0.0092593
        k(   14) = (  -0.8319143  -0.8586307   0.0451272), wk =   0.0092593
        k(   15) = (  -0.6655314  -0.7155256   0.0451272), wk =   0.0092593
        k(   16) = (  -0.4991486  -0.5724204   0.0451272), wk =   0.0092593
        k(   17) = (  -0.3327657  -0.4293153   0.0451272), wk =   0.0092593
        k(   18) = (  -0.1663829  -0.2862102   0.0451272), wk =   0.0092593
        k(   19) = (  -0.0000000  -0.1431051   0.0451272), wk =   0.0046296
        k(   20) = (   0.3327657   0.0000000   0.0902544), wk =   0.0046296
        k(   21) = (   0.4991486   0.1431051   0.0902544), wk =   0.0092593
        k(   22) = (   0.6655314   0.2862102   0.0902544), wk =   0.0092593
        k(   23) = (   0.8319143   0.4293153   0.0902544), wk =   0.0092593
        k(   24) = (   0.9982971   0.5724204   0.0902544), wk =   0.0092593
        k(   25) = (   1.1646800   0.7155256   0.0902544), wk =   0.0092593
        k(   26) = (  -0.6655314  -0.8586307   0.0902544), wk =   0.0092593
        k(   27) = (  -0.4991486  -0.7155256   0.0902544), wk =   0.0092593
        k(   28) = (  -0.3327657  -0.5724204   0.0902544), wk =   0.0092593
        k(   29) = (  -0.1663829  -0.4293153   0.0902544), wk =   0.0092593
        k(   30) = (   0.0000000  -0.2862102   0.0902544), wk =   0.0046296
        k(   31) = (   0.1663829  -0.1431051   0.0902544), wk =   0.0092593
        k(   32) = (   0.4991486   0.0000000   0.1353817), wk =   0.0046296
        k(   33) = (   0.6655314   0.1431051   0.1353817), wk =   0.0092593
        k(   34) = (   0.8319143   0.2862102   0.1353817), wk =   0.0092593
        k(   35) = (   0.9982971   0.4293153   0.1353817), wk =   0.0092593
        k(   36) = (   1.1646800   0.5724204   0.1353817), wk =   0.0092593
        k(   37) = (   1.3310629   0.7155256   0.1353817), wk =   0.0092593
        k(   38) = (  -0.4991486  -0.8586307   0.1353817), wk =   0.0092593
        k(   39) = (  -0.3327657  -0.7155256   0.1353817), wk =   0.0092593
        k(   40) = (  -0.1663829  -0.5724204   0.1353817), wk =   0.0092593
        k(   41) = (   0.0000000  -0.4293153   0.1353817), wk =   0.0046296
        k(   42) = (   0.1663829  -0.2862102   0.1353817), wk =   0.0092593
        k(   43) = (   0.3327657  -0.1431051   0.1353817), wk =   0.0092593
        k(   44) = (   0.6655314   0.0000000   0.1805089), wk =   0.0046296
        k(   45) = (   0.8319143   0.1431051   0.1805089), wk =   0.0092593
        k(   46) = (   0.9982971   0.2862102   0.1805089), wk =   0.0092593
        k(   47) = (   1.1646800   0.4293153   0.1805089), wk =   0.0092593
        k(   48) = (   1.3310629   0.5724204   0.1805089), wk =   0.0092593
        k(   49) = (   1.4974457   0.7155256   0.1805089), wk =   0.0092593
        k(   50) = (  -0.3327657  -0.8586307   0.1805089), wk =   0.0092593
        k(   51) = (  -0.1663829  -0.7155256   0.1805089), wk =   0.0092593
        k(   52) = (  -0.0000000  -0.5724204   0.1805089), wk =   0.0046296
        k(   53) = (   0.1663829  -0.4293153   0.1805089), wk =   0.0092593
        k(   54) = (   0.3327657  -0.2862102   0.1805089), wk =   0.0092593
        k(   55) = (   0.4991486  -0.1431051   0.1805089), wk =   0.0092593
        k(   56) = (   0.8319143   0.0000000   0.2256361), wk =   0.0046296
        k(   57) = (   0.9982971   0.1431051   0.2256361), wk =   0.0092593
        k(   58) = (   1.1646800   0.2862102   0.2256361), wk =   0.0092593
        k(   59) = (   1.3310629   0.4293153   0.2256361), wk =   0.0092593
        k(   60) = (   1.4974457   0.5724204   0.2256361), wk =   0.0092593
        k(   61) = (   1.6638286   0.7155256   0.2256361), wk =   0.0092593
        k(   62) = (  -0.1663829  -0.8586307   0.2256361), wk =   0.0092593
        k(   63) = (   0.0000000  -0.7155256   0.2256361), wk =   0.0046296
        k(   64) = (   0.1663829  -0.5724204   0.2256361), wk =   0.0092593
        k(   65) = (   0.3327657  -0.4293153   0.2256361), wk =   0.0092593
        k(   66) = (   0.4991486  -0.2862102   0.2256361), wk =   0.0092593
        k(   67) = (   0.6655314  -0.1431051   0.2256361), wk =   0.0092593
        k(   68) = (  -0.9982971   0.0000000  -0.2707633), wk =   0.0023148
        k(   69) = (  -0.8319143   0.1431051  -0.2707633), wk =   0.0092593
        k(   70) = (  -0.6655314   0.2862102  -0.2707633), wk =   0.0092593
        k(   71) = (  -0.4991486   0.4293153  -0.2707633), wk =   0.0092593
        k(   72) = (  -0.3327657   0.5724204  -0.2707633), wk =   0.0092593
        k(   73) = (  -0.1663829   0.7155256  -0.2707633), wk =   0.0092593
        k(   74) = (  -1.9965943  -0.8586307  -0.2707633), wk =   0.0023148
        k(   75) = (   0.3327657   0.2862102   0.0902544), wk =   0.0092593
        k(   76) = (   0.4991486   0.4293153   0.0902544), wk =   0.0092593
        k(   77) = (   0.6655314   0.5724204   0.0902544), wk =   0.0092593
        k(   78) = (   0.8319143   0.7155256   0.0902544), wk =   0.0092593
        k(   79) = (   0.9982971   0.8586307   0.0902544), wk =   0.0046296
        k(   80) = (  -0.0000000  -0.0000000   0.0902544), wk =   0.0023148
        k(   81) = (   0.4991486   0.2862102   0.1353817), wk =   0.0092593
        k(   82) = (   0.6655314   0.4293153   0.1353817), wk =   0.0092593
        k(   83) = (   0.8319143   0.5724204   0.1353817), wk =   0.0092593
        k(   84) = (   0.9982971   0.7155256   0.1353817), wk =   0.0092593
        k(   85) = (   1.1646800   0.8586307   0.1353817), wk =   0.0092593
        k(   86) = (  -0.6655314  -0.7155256   0.1353817), wk =   0.0092593
        k(   87) = (  -0.4991486  -0.5724204   0.1353817), wk =   0.0092593
        k(   88) = (  -0.3327657  -0.4293153   0.1353817), wk =   0.0092593
        k(   89) = (   0.0000000  -0.1431051   0.1353817), wk =   0.0046296
        k(   90) = (   0.1663829  -0.0000000   0.1353817), wk =   0.0046296
        k(   91) = (   0.6655314   0.2862102   0.1805089), wk =   0.0092593
        k(   92) = (   0.8319143   0.4293153   0.1805089), wk =   0.0092593
        k(   93) = (   0.9982971   0.5724204   0.1805089), wk =   0.0092593
        k(   94) = (   1.1646800   0.7155256   0.1805089), wk =   0.0092593
        k(   95) = (   1.3310629   0.8586307   0.1805089), wk =   0.0092593
        k(   96) = (  -0.4991486  -0.7155256   0.1805089), wk =   0.0092593
        k(   97) = (  -0.3327657  -0.5724204   0.1805089), wk =   0.0092593
        k(   98) = (   0.0000000  -0.2862102   0.1805089), wk =   0.0046296
        k(   99) = (   0.1663829  -0.1431051   0.1805089), wk =   0.0092593
        k(  100) = (   0.3327657  -0.0000000   0.1805089), wk =   0.0046296
        k(  101) = (   0.8319143   0.2862102   0.2256361), wk =   0.0092593
        k(  102) = (   0.9982971   0.4293153   0.2256361), wk =   0.0092593
        k(  103) = (   1.1646800   0.5724204   0.2256361), wk =   0.0092593
        k(  104) = (   1.3310629   0.7155256   0.2256361), wk =   0.0092593
        k(  105) = (   1.4974457   0.8586307   0.2256361), wk =   0.0092593
        k(  106) = (  -0.3327657  -0.7155256   0.2256361), wk =   0.0092593
        k(  107) = (  -0.0000000  -0.4293153   0.2256361), wk =   0.0046296
        k(  108) = (   0.1663829  -0.2862102   0.2256361), wk =   0.0092593
        k(  109) = (   0.3327657  -0.1431051   0.2256361), wk =   0.0092593
        k(  110) = (   0.4991486  -0.0000000   0.2256361), wk =   0.0046296
        k(  111) = (   0.9982971   0.2862102   0.2707633), wk =   0.0046296
        k(  112) = (   1.1646800   0.4293153   0.2707633), wk =   0.0092593
        k(  113) = (   1.3310629   0.5724204   0.2707633), wk =   0.0092593
        k(  114) = (   1.4974457   0.7155256   0.2707633), wk =   0.0092593
        k(  115) = (   1.6638286   0.8586307   0.2707633), wk =   0.0046296
        k(  116) = (   0.0000000  -0.5724204   0.2707633), wk =   0.0046296
        k(  117) = (   0.1663829  -0.4293153   0.2707633), wk =   0.0092593
        k(  118) = (   0.3327657  -0.2862102   0.2707633), wk =   0.0092593
        k(  119) = (   0.4991486  -0.1431051   0.2707633), wk =   0.0092593
        k(  120) = (   0.6655314  -0.0000000   0.2707633), wk =   0.0046296
        k(  121) = (  -0.6655314   0.4293153  -0.2256361), wk =   0.0092593
        k(  122) = (  -0.4991486   0.5724204  -0.2256361), wk =   0.0092593
        k(  123) = (  -1.9965943  -0.7155256  -0.2256361), wk =   0.0046296
        k(  124) = (  -1.8302114  -0.5724204  -0.2256361), wk =   0.0092593
        k(  125) = (  -1.6638286  -0.4293153  -0.2256361), wk =   0.0092593
        k(  126) = (  -1.4974457  -0.2862102  -0.2256361), wk =   0.0092593
        k(  127) = (  -1.3310629  -0.1431051  -0.2256361), wk =   0.0092593
        k(  128) = (  -1.1646800  -0.0000000  -0.2256361), wk =   0.0046296
        k(  129) = (  -0.4991486   0.4293153  -0.1805089), wk =   0.0092593
        k(  130) = (   0.0000000   0.8586307  -0.1805089), wk =   0.0046296
        k(  131) = (  -1.8302114  -0.7155256  -0.1805089), wk =   0.0092593
        k(  132) = (  -1.6638286  -0.5724204  -0.1805089), wk =   0.0092593
        k(  133) = (  -1.4974457  -0.4293153  -0.1805089), wk =   0.0092593
        k(  134) = (  -1.3310629  -0.2862102  -0.1805089), wk =   0.0092593
        k(  135) = (  -1.1646800  -0.1431051  -0.1805089), wk =   0.0092593
        k(  136) = (  -0.9982971  -0.0000000  -0.1805089), wk =   0.0046296
        k(  137) = (  -0.0000000   0.7155256  -0.1353817), wk =   0.0046296
        k(  138) = (   0.1663829   0.8586307  -0.1353817), wk =   0.0092593
        k(  139) = (  -1.6638286  -0.7155256  -0.1353817), wk =   0.0092593
        k(  140) = (  -1.4974457  -0.5724204  -0.1353817), wk =   0.0092593
        k(  141) = (  -1.3310629  -0.4293153  -0.1353817), wk =   0.0092593
        k(  142) = (  -1.1646800  -0.2862102  -0.1353817), wk =   0.0092593
        k(  143) = (  -0.9982971  -0.1431051  -0.1353817), wk =   0.0092593
        k(  144) = (  -0.8319143  -0.0000000  -0.1353817), wk =   0.0046296
        k(  145) = (   0.0000000   0.5724204  -0.0902544), wk =   0.0046296
        k(  146) = (   0.1663829   0.7155256  -0.0902544), wk =   0.0092593
        k(  147) = (   0.3327657   0.8586307  -0.0902544), wk =   0.0092593
        k(  148) = (  -1.4974457  -0.7155256  -0.0902544), wk =   0.0092593
        k(  149) = (  -1.3310629  -0.5724204  -0.0902544), wk =   0.0092593
        k(  150) = (  -1.1646800  -0.4293153  -0.0902544), wk =   0.0092593
        k(  151) = (  -0.9982971  -0.2862102  -0.0902544), wk =   0.0092593
        k(  152) = (  -0.8319143  -0.1431051  -0.0902544), wk =   0.0092593
        k(  153) = (  -0.6655314  -0.0000000  -0.0902544), wk =   0.0046296
        k(  154) = (   0.0000000   0.4293153  -0.0451272), wk =   0.0046296
        k(  155) = (   0.1663829   0.5724204  -0.0451272), wk =   0.0092593
        k(  156) = (   0.3327657   0.7155256  -0.0451272), wk =   0.0092593
        k(  157) = (   0.4991486   0.8586307  -0.0451272), wk =   0.0092593
        k(  158) = (  -1.3310629  -0.7155256  -0.0451272), wk =   0.0092593
        k(  159) = (  -1.1646800  -0.5724204  -0.0451272), wk =   0.0092593
        k(  160) = (  -0.9982971  -0.4293153  -0.0451272), wk =   0.0092593
        k(  161) = (  -0.8319143  -0.2862102  -0.0451272), wk =   0.0092593
        k(  162) = (  -0.6655314  -0.1431051  -0.0451272), wk =   0.0092593
        k(  163) = (  -0.4991486  -0.0000000  -0.0451272), wk =   0.0046296
        k(  164) = (  -0.0000000   0.2862102  -0.0000000), wk =   0.0023148
        k(  165) = (   0.1663829   0.4293153  -0.0000000), wk =   0.0046296
        k(  166) = (   0.3327657   0.5724204  -0.0000000), wk =   0.0046296
        k(  167) = (   0.4991486   0.7155256  -0.0000000), wk =   0.0046296
        k(  168) = (   0.6655314   0.8586307  -0.0000000), wk =   0.0046296
        k(  169) = (  -1.1646800  -0.7155256  -0.0000000), wk =   0.0046296
        k(  170) = (  -0.9982971  -0.5724204  -0.0000000), wk =   0.0046296
        k(  171) = (  -0.8319143  -0.4293153  -0.0000000), wk =   0.0046296
        k(  172) = (  -0.6655314  -0.2862102  -0.0000000), wk =   0.0046296
        k(  173) = (  -0.4991486  -0.1431051  -0.0000000), wk =   0.0046296
        k(  174) = (  -0.3327657  -0.0000000  -0.0000000), wk =   0.0023148
        k(  175) = (   0.6655314   0.5724204   0.1805089), wk =   0.0092593
        k(  176) = (   0.8319143   0.7155256   0.1805089), wk =   0.0092593
        k(  177) = (   0.9982971   0.8586307   0.1805089), wk =   0.0046296
        k(  178) = (   0.0000000   0.0000000   0.1805089), wk =   0.0023148
        k(  179) = (   0.8319143   0.5724204   0.2256361), wk =   0.0092593
        k(  180) = (   0.9982971   0.7155256   0.2256361), wk =   0.0092593
        k(  181) = (   1.1646800   0.8586307   0.2256361), wk =   0.0092593
        k(  182) = (   1.3310629   1.0017358   0.2256361), wk =   0.0092593
        k(  183) = (   0.0000000  -0.1431051   0.2256361), wk =   0.0046296
        k(  184) = (   0.1663829   0.0000000   0.2256361), wk =   0.0046296
        k(  185) = (   0.9982971   0.5724204   0.2707633), wk =   0.0046296
        k(  186) = (   1.1646800   0.7155256   0.2707633), wk =   0.0092593
        k(  187) = (   1.3310629   0.8586307   0.2707633), wk =   0.0046296
        k(  188) = (  -0.0000000  -0.2862102   0.2707633), wk =   0.0046296
        k(  189) = (   0.1663829  -0.1431051   0.2707633), wk =   0.0092593
        k(  190) = (   0.3327657   0.0000000   0.2707633), wk =   0.0046296
        k(  191) = (   0.0000000  -0.4293153   0.3158905), wk =   0.0046296
        k(  192) = (   0.1663829  -0.2862102   0.3158905), wk =   0.0092593
        k(  193) = (   0.3327657  -0.1431051   0.3158905), wk =   0.0092593
        k(  194) = (   0.4991486   0.0000000   0.3158905), wk =   0.0046296
        k(  195) = (  -1.9965943  -0.5724204  -0.1805089), wk =   0.0046296
        k(  196) = (  -1.8302114  -0.4293153  -0.1805089), wk =   0.0092593
        k(  197) = (  -1.6638286  -0.2862102  -0.1805089), wk =   0.0092593
        k(  198) = (  -1.4974457  -0.1431051  -0.1805089), wk =   0.0092593
        k(  199) = (  -1.3310629   0.0000000  -0.1805089), wk =   0.0046296
        k(  200) = (   0.0000000   1.0017358  -0.1353817), wk =   0.0046296
        k(  201) = (  -1.8302114  -0.5724204  -0.1353817), wk =   0.0092593
        k(  202) = (  -1.6638286  -0.4293153  -0.1353817), wk =   0.0092593
        k(  203) = (  -1.4974457  -0.2862102  -0.1353817), wk =   0.0092593
        k(  204) = (  -1.3310629  -0.1431051  -0.1353817), wk =   0.0092593
        k(  205) = (  -1.1646800   0.0000000  -0.1353817), wk =   0.0046296
        k(  206) = (  -0.0000000   0.8586307  -0.0902544), wk =   0.0046296
        k(  207) = (   0.1663829   1.0017358  -0.0902544), wk =   0.0092593
        k(  208) = (  -1.6638286  -0.5724204  -0.0902544), wk =   0.0092593
        k(  209) = (  -1.4974457  -0.4293153  -0.0902544), wk =   0.0092593
        k(  210) = (  -1.3310629  -0.2862102  -0.0902544), wk =   0.0092593
        k(  211) = (  -1.1646800  -0.1431051  -0.0902544), wk =   0.0092593
        k(  212) = (  -0.9982971   0.0000000  -0.0902544), wk =   0.0046296
        k(  213) = (   0.0000000   0.7155256  -0.0451272), wk =   0.0046296
        k(  214) = (   0.1663829   0.8586307  -0.0451272), wk =   0.0092593
        k(  215) = (   0.3327657   1.0017358  -0.0451272), wk =   0.0092593
        k(  216) = (  -1.4974457  -0.5724204  -0.0451272), wk =   0.0092593
        k(  217) = (  -1.3310629  -0.4293153  -0.0451272), wk =   0.0092593
        k(  218) = (  -1.1646800  -0.2862102  -0.0451272), wk =   0.0092593
        k(  219) = (  -0.9982971  -0.1431051  -0.0451272), wk =   0.0092593
        k(  220) = (  -0.8319143   0.0000000  -0.0451272), wk =   0.0046296
        k(  221) = (   0.0000000   0.5724204   0.0000000), wk =   0.0023148
        k(  222) = (   0.1663829   0.7155256   0.0000000), wk =   0.0046296
        k(  223) = (   0.3327657   0.8586307   0.0000000), wk =   0.0046296
        k(  224) = (   0.4991486   1.0017358   0.0000000), wk =   0.0046296
        k(  225) = (  -1.3310629  -0.5724204   0.0000000), wk =   0.0046296
        k(  226) = (  -1.1646800  -0.4293153   0.0000000), wk =   0.0046296
        k(  227) = (  -0.9982971  -0.2862102   0.0000000), wk =   0.0046296
        k(  228) = (  -0.8319143  -0.1431051   0.0000000), wk =   0.0046296
        k(  229) = (  -0.6655314   0.0000000   0.0000000), wk =   0.0023148
        k(  230) = (   0.9982971   0.8586307   0.2707633), wk =   0.0023148
        k(  231) = (   0.0000000   0.0000000   0.2707633), wk =   0.0023148
        k(  232) = (  -0.0000000  -0.1431051   0.3158905), wk =   0.0046296
        k(  233) = (   0.1663829   0.0000000   0.3158905), wk =   0.0046296
        k(  234) = (   0.0000000  -0.2862102   0.3610178), wk =   0.0046296
        k(  235) = (   0.1663829  -0.1431051   0.3610178), wk =   0.0092593
        k(  236) = (   0.3327657   0.0000000   0.3610178), wk =   0.0046296
        k(  237) = (  -1.9965943  -0.4293153  -0.1353817), wk =   0.0046296
        k(  238) = (  -1.8302114  -0.2862102  -0.1353817), wk =   0.0092593
        k(  239) = (  -1.6638286  -0.1431051  -0.1353817), wk =   0.0092593
        k(  240) = (  -1.4974457   0.0000000  -0.1353817), wk =   0.0046296
        k(  241) = (   0.0000000   1.1448409  -0.0902544), wk =   0.0046296
        k(  242) = (  -1.8302114  -0.4293153  -0.0902544), wk =   0.0092593
        k(  243) = (  -1.6638286  -0.2862102  -0.0902544), wk =   0.0092593
        k(  244) = (  -1.4974457  -0.1431051  -0.0902544), wk =   0.0092593
        k(  245) = (  -1.3310629   0.0000000  -0.0902544), wk =   0.0046296
        k(  246) = (  -0.0000000   1.0017358  -0.0451272), wk =   0.0046296
        k(  247) = (   0.1663829   1.1448409  -0.0451272), wk =   0.0092593
        k(  248) = (  -1.6638286  -0.4293153  -0.0451272), wk =   0.0092593
        k(  249) = (  -1.4974457  -0.2862102  -0.0451272), wk =   0.0092593
        k(  250) = (  -1.3310629  -0.1431051  -0.0451272), wk =   0.0092593
        k(  251) = (  -1.1646800   0.0000000  -0.0451272), wk =   0.0046296
        k(  252) = (   0.0000000   0.8586307   0.0000000), wk =   0.0023148
        k(  253) = (   0.1663829   1.0017358   0.0000000), wk =   0.0046296
        k(  254) = (   0.3327657   1.1448409   0.0000000), wk =   0.0046296
        k(  255) = (  -1.4974457  -0.4293153   0.0000000), wk =   0.0046296
        k(  256) = (  -1.3310629  -0.2862102   0.0000000), wk =   0.0046296
        k(  257) = (  -1.1646800  -0.1431051   0.0000000), wk =   0.0046296
        k(  258) = (  -0.9982971   0.0000000   0.0000000), wk =   0.0023148
        k(  259) = (  -0.0000000  -0.0000000   0.3610178), wk =   0.0023148
        k(  260) = (   0.0000000  -0.1431051   0.4061450), wk =   0.0046296
        k(  261) = (   0.1663829  -0.0000000   0.4061450), wk =   0.0046296
        k(  262) = (  -1.9965943  -0.2862102  -0.0902544), wk =   0.0046296
        k(  263) = (  -1.8302114  -0.1431051  -0.0902544), wk =   0.0092593
        k(  264) = (  -1.6638286  -0.0000000  -0.0902544), wk =   0.0046296
        k(  265) = (   0.0000000   1.2879460  -0.0451272), wk =   0.0046296
        k(  266) = (  -1.8302114  -0.2862102  -0.0451272), wk =   0.0092593
        k(  267) = (  -1.6638286  -0.1431051  -0.0451272), wk =   0.0092593
        k(  268) = (  -1.4974457  -0.0000000  -0.0451272), wk =   0.0046296
        k(  269) = (  -0.0000000   1.1448409  -0.0000000), wk =   0.0023148
        k(  270) = (   0.1663829   1.2879460  -0.0000000), wk =   0.0046296
        k(  271) = (  -1.6638286  -0.2862102  -0.0000000), wk =   0.0046296
        k(  272) = (  -1.4974457  -0.1431051  -0.0000000), wk =   0.0046296
        k(  273) = (  -1.3310629  -0.0000000  -0.0000000), wk =   0.0023148
        k(  274) = (   0.0000000   0.0000000   0.4512722), wk =   0.0023148
        k(  275) = (  -1.9965943  -0.1431051  -0.0451272), wk =   0.0046296
        k(  276) = (  -1.8302114   0.0000000  -0.0451272), wk =   0.0046296
        k(  277) = (   0.0000000   1.4310511   0.0000000), wk =   0.0023148
        k(  278) = (  -1.8302114  -0.1431051   0.0000000), wk =   0.0046296
        k(  279) = (  -1.6638286   0.0000000   0.0000000), wk =   0.0023148
        k(  280) = (  -1.9965943  -1.7172613  -0.5415266), wk =   0.0011574

                       cryst. coord.
        k(    1) = (   0.0000000   0.0000000   0.0000000), wk =   0.0011574
        k(    2) = (  -0.0000000   0.0000000   0.0833333), wk =   0.0046296
        k(    3) = (  -0.0000000   0.0000000   0.1666667), wk =   0.0046296
        k(    4) = (   0.0000000   0.0000000   0.2500000), wk =   0.0046296
        k(    5) = (  -0.0000000   0.0000000   0.3333333), wk =   0.0046296
        k(    6) = (  -0.0000000   0.0000000   0.4166667), wk =   0.0046296
        k(    7) = (   0.0000000   0.0000000  -0.5000000), wk =   0.0023148
        k(    8) = (   0.0000000   0.0833333  -0.0000000), wk =   0.0046296
        k(    9) = (   0.0000000   0.0833333   0.0833333), wk =   0.0092593
        k(   10) = (  -0.0000000   0.0833333   0.1666667), wk =   0.0092593
        k(   11) = (   0.0000000   0.0833333   0.2500000), wk =   0.0092593
        k(   12) = (  -0.0000000   0.0833333   0.3333333), wk =   0.0092593
        k(   13) = (  -0.0000000   0.0833333   0.4166667), wk =   0.0092593
        k(   14) = (   0.0000000   0.0833333  -0.5000000), wk =   0.0092593
        k(   15) = (   0.0000000   0.0833333  -0.4166667), wk =   0.0092593
        k(   16) = (   0.0000000   0.0833333  -0.3333333), wk =   0.0092593
        k(   17) = (   0.0000000   0.0833333  -0.2500000), wk =   0.0092593
        k(   18) = (   0.0000000   0.0833333  -0.1666667), wk =   0.0092593
        k(   19) = (   0.0000000   0.0833333  -0.0833333), wk =   0.0046296
        k(   20) = (   0.0000000   0.1666667  -0.0000000), wk =   0.0046296
        k(   21) = (   0.0000000   0.1666667   0.0833333), wk =   0.0092593
        k(   22) = (   0.0000000   0.1666667   0.1666667), wk =   0.0092593
        k(   23) = (   0.0000000   0.1666667   0.2500000), wk =   0.0092593
        k(   24) = (  -0.0000000   0.1666667   0.3333333), wk =   0.0092593
        k(   25) = (  -0.0000000   0.1666667   0.4166667), wk =   0.0092593
        k(   26) = (   0.0000000   0.1666667  -0.5000000), wk =   0.0092593
        k(   27) = (   0.0000000   0.1666667  -0.4166667), wk =   0.0092593
        k(   28) = (   0.0000000   0.1666667  -0.3333333), wk =   0.0092593
        k(   29) = (   0.0000000   0.1666667  -0.2500000), wk =   0.0092593
        k(   30) = (   0.0000000   0.1666667  -0.1666667), wk =   0.0046296
        k(   31) = (   0.0000000   0.1666667  -0.0833333), wk =   0.0092593
        k(   32) = (   0.0000000   0.2500000   0.0000000), wk =   0.0046296
        k(   33) = (   0.0000000   0.2500000   0.0833333), wk =   0.0092593
        k(   34) = (  -0.0000000   0.2500000   0.1666667), wk =   0.0092593
        k(   35) = (   0.0000000   0.2500000   0.2500000), wk =   0.0092593
        k(   36) = (   0.0000000   0.2500000   0.3333333), wk =   0.0092593
        k(   37) = (  -0.0000000   0.2500000   0.4166667), wk =   0.0092593
        k(   38) = (   0.0000000   0.2500000  -0.5000000), wk =   0.0092593
        k(   39) = (   0.0000000   0.2500000  -0.4166667), wk =   0.0092593
        k(   40) = (   0.0000000   0.2500000  -0.3333333), wk =   0.0092593
        k(   41) = (   0.0000000   0.2500000  -0.2500000), wk =   0.0046296
        k(   42) = (   0.0000000   0.2500000  -0.1666667), wk =   0.0092593
        k(   43) = (   0.0000000   0.2500000  -0.0833333), wk =   0.0092593
        k(   44) = (   0.0000000   0.3333333  -0.0000000), wk =   0.0046296
        k(   45) = (   0.0000000   0.3333333   0.0833333), wk =   0.0092593
        k(   46) = (   0.0000000   0.3333333   0.1666667), wk =   0.0092593
        k(   47) = (   0.0000000   0.3333333   0.2500000), wk =   0.0092593
        k(   48) = (   0.0000000   0.3333333   0.3333333), wk =   0.0092593
        k(   49) = (   0.0000000   0.3333333   0.4166667), wk =   0.0092593
        k(   50) = (   0.0000000   0.3333333  -0.5000000), wk =   0.0092593
        k(   51) = (   0.0000000   0.3333333  -0.4166667), wk =   0.0092593
        k(   52) = (   0.0000000   0.3333333  -0.3333333), wk =   0.0046296
        k(   53) = (   0.0000000   0.3333333  -0.2500000), wk =   0.0092593
        k(   54) = (   0.0000000   0.3333333  -0.1666667), wk =   0.0092593
        k(   55) = (   0.0000000   0.3333333  -0.0833333), wk =   0.0092593
        k(   56) = (  -0.0000000   0.4166667   0.0000000), wk =   0.0046296
        k(   57) = (   0.0000000   0.4166667   0.0833333), wk =   0.0092593
        k(   58) = (  -0.0000000   0.4166667   0.1666667), wk =   0.0092593
        k(   59) = (  -0.0000000   0.4166667   0.2500000), wk =   0.0092593
        k(   60) = (  -0.0000000   0.4166667   0.3333333), wk =   0.0092593
        k(   61) = (  -0.0000000   0.4166667   0.4166667), wk =   0.0092593
        k(   62) = (   0.0000000   0.4166667  -0.5000000), wk =   0.0092593
        k(   63) = (   0.0000000   0.4166667  -0.4166667), wk =   0.0046296
        k(   64) = (   0.0000000   0.4166667  -0.3333333), wk =   0.0092593
        k(   65) = (  -0.0000000   0.4166667  -0.2500000), wk =   0.0092593
        k(   66) = (  -0.0000000   0.4166667  -0.1666667), wk =   0.0092593
        k(   67) = (  -0.0000000   0.4166667  -0.0833333), wk =   0.0092593
        k(   68) = (   0.0000000  -0.5000000   0.0000000), wk =   0.0023148
        k(   69) = (   0.0000000  -0.5000000   0.0833333), wk =   0.0092593
        k(   70) = (   0.0000000  -0.5000000   0.1666667), wk =   0.0092593
        k(   71) = (   0.0000000  -0.5000000   0.2500000), wk =   0.0092593
        k(   72) = (   0.0000000  -0.5000000   0.3333333), wk =   0.0092593
        k(   73) = (  -0.0000000  -0.5000000   0.4166667), wk =   0.0092593
        k(   74) = (   0.0000000  -0.5000000  -0.5000000), wk =   0.0023148
        k(   75) = (   0.0833333   0.0833333   0.0833333), wk =   0.0092593
        k(   76) = (   0.0833333   0.0833333   0.1666667), wk =   0.0092593
        k(   77) = (   0.0833333   0.0833333   0.2500000), wk =   0.0092593
        k(   78) = (   0.0833333   0.0833333   0.3333333), wk =   0.0092593
        k(   79) = (   0.0833333   0.0833333   0.4166667), wk =   0.0046296
        k(   80) = (   0.0833333   0.0833333  -0.0833333), wk =   0.0023148
        k(   81) = (   0.0833333   0.1666667   0.0833333), wk =   0.0092593
        k(   82) = (   0.0833333   0.1666667   0.1666667), wk =   0.0092593
        k(   83) = (   0.0833333   0.1666667   0.2500000), wk =   0.0092593
        k(   84) = (   0.0833333   0.1666667   0.3333333), wk =   0.0092593
        k(   85) = (   0.0833333   0.1666667   0.4166667), wk =   0.0092593
        k(   86) = (   0.0833333   0.1666667  -0.5000000), wk =   0.0092593
        k(   87) = (   0.0833333   0.1666667  -0.4166667), wk =   0.0092593
        k(   88) = (   0.0833333   0.1666667  -0.3333333), wk =   0.0092593
        k(   89) = (   0.0833333   0.1666667  -0.1666667), wk =   0.0046296
        k(   90) = (   0.0833333   0.1666667  -0.0833333), wk =   0.0046296
        k(   91) = (   0.0833333   0.2500000   0.0833333), wk =   0.0092593
        k(   92) = (   0.0833333   0.2500000   0.1666667), wk =   0.0092593
        k(   93) = (   0.0833333   0.2500000   0.2500000), wk =   0.0092593
        k(   94) = (   0.0833333   0.2500000   0.3333333), wk =   0.0092593
        k(   95) = (   0.0833333   0.2500000   0.4166667), wk =   0.0092593
        k(   96) = (   0.0833333   0.2500000  -0.5000000), wk =   0.0092593
        k(   97) = (   0.0833333   0.2500000  -0.4166667), wk =   0.0092593
        k(   98) = (   0.0833333   0.2500000  -0.2500000), wk =   0.0046296
        k(   99) = (   0.0833333   0.2500000  -0.1666667), wk =   0.0092593
        k(  100) = (   0.0833333   0.2500000  -0.0833333), wk =   0.0046296
        k(  101) = (   0.0833333   0.3333333   0.0833333), wk =   0.0092593
        k(  102) = (   0.0833333   0.3333333   0.1666667), wk =   0.0092593
        k(  103) = (   0.0833333   0.3333333   0.2500000), wk =   0.0092593
        k(  104) = (   0.0833333   0.3333333   0.3333333), wk =   0.0092593
        k(  105) = (   0.0833333   0.3333333   0.4166667), wk =   0.0092593
        k(  106) = (   0.0833333   0.3333333  -0.5000000), wk =   0.0092593
        k(  107) = (   0.0833333   0.3333333  -0.3333333), wk =   0.0046296
        k(  108) = (   0.0833333   0.3333333  -0.2500000), wk =   0.0092593
        k(  109) = (   0.0833333   0.3333333  -0.1666667), wk =   0.0092593
        k(  110) = (   0.0833333   0.3333333  -0.0833333), wk =   0.0046296
        k(  111) = (   0.0833333   0.4166667   0.0833333), wk =   0.0046296
        k(  112) = (   0.0833333   0.4166667   0.1666667), wk =   0.0092593
        k(  113) = (   0.0833333   0.4166667   0.2500000), wk =   0.0092593
        k(  114) = (   0.0833333   0.4166667   0.3333333), wk =   0.0092593
        k(  115) = (   0.0833333   0.4166667   0.4166667), wk =   0.0046296
        k(  116) = (   0.0833333   0.4166667  -0.4166667), wk =   0.0046296
        k(  117) = (   0.0833333   0.4166667  -0.3333333), wk =   0.0092593
        k(  118) = (   0.0833333   0.4166667  -0.2500000), wk =   0.0092593
        k(  119) = (   0.0833333   0.4166667  -0.1666667), wk =   0.0092593
        k(  120) = (   0.0833333   0.4166667  -0.0833333), wk =   0.0046296
        k(  121) = (   0.0833333  -0.5000000   0.1666667), wk =   0.0092593
        k(  122) = (   0.0833333  -0.5000000   0.2500000), wk =   0.0092593
        k(  123) = (   0.0833333  -0.5000000  -0.5000000), wk =   0.0046296
        k(  124) = (   0.0833333  -0.5000000  -0.4166667), wk =   0.0092593
        k(  125) = (   0.0833333  -0.5000000  -0.3333333), wk =   0.0092593
        k(  126) = (   0.0833333  -0.5000000  -0.2500000), wk =   0.0092593
        k(  127) = (   0.0833333  -0.5000000  -0.1666667), wk =   0.0092593
        k(  128) = (   0.0833333  -0.5000000  -0.0833333), wk =   0.0046296
        k(  129) = (   0.0833333  -0.4166667   0.1666667), wk =   0.0092593
        k(  130) = (   0.0833333  -0.4166667   0.4166667), wk =   0.0046296
        k(  131) = (   0.0833333  -0.4166667  -0.5000000), wk =   0.0092593
        k(  132) = (   0.0833333  -0.4166667  -0.4166667), wk =   0.0092593
        k(  133) = (   0.0833333  -0.4166667  -0.3333333), wk =   0.0092593
        k(  134) = (   0.0833333  -0.4166667  -0.2500000), wk =   0.0092593
        k(  135) = (   0.0833333  -0.4166667  -0.1666667), wk =   0.0092593
        k(  136) = (   0.0833333  -0.4166667  -0.0833333), wk =   0.0046296
        k(  137) = (   0.0833333  -0.3333333   0.3333333), wk =   0.0046296
        k(  138) = (   0.0833333  -0.3333333   0.4166667), wk =   0.0092593
        k(  139) = (   0.0833333  -0.3333333  -0.5000000), wk =   0.0092593
        k(  140) = (   0.0833333  -0.3333333  -0.4166667), wk =   0.0092593
        k(  141) = (   0.0833333  -0.3333333  -0.3333333), wk =   0.0092593
        k(  142) = (   0.0833333  -0.3333333  -0.2500000), wk =   0.0092593
        k(  143) = (   0.0833333  -0.3333333  -0.1666667), wk =   0.0092593
        k(  144) = (   0.0833333  -0.3333333  -0.0833333), wk =   0.0046296
        k(  145) = (   0.0833333  -0.2500000   0.2500000), wk =   0.0046296
        k(  146) = (   0.0833333  -0.2500000   0.3333333), wk =   0.0092593
        k(  147) = (   0.0833333  -0.2500000   0.4166667), wk =   0.0092593
        k(  148) = (   0.0833333  -0.2500000  -0.5000000), wk =   0.0092593
        k(  149) = (   0.0833333  -0.2500000  -0.4166667), wk =   0.0092593
        k(  150) = (   0.0833333  -0.2500000  -0.3333333), wk =   0.0092593
        k(  151) = (   0.0833333  -0.2500000  -0.2500000), wk =   0.0092593
        k(  152) = (   0.0833333  -0.2500000  -0.1666667), wk =   0.0092593
        k(  153) = (   0.0833333  -0.2500000  -0.0833333), wk =   0.0046296
        k(  154) = (   0.0833333  -0.1666667   0.1666667), wk =   0.0046296
        k(  155) = (   0.0833333  -0.1666667   0.2500000), wk =   0.0092593
        k(  156) = (   0.0833333  -0.1666667   0.3333333), wk =   0.0092593
        k(  157) = (   0.0833333  -0.1666667   0.4166667), wk =   0.0092593
        k(  158) = (   0.0833333  -0.1666667  -0.5000000), wk =   0.0092593
        k(  159) = (   0.0833333  -0.1666667  -0.4166667), wk =   0.0092593
        k(  160) = (   0.0833333  -0.1666667  -0.3333333), wk =   0.0092593
        k(  161) = (   0.0833333  -0.1666667  -0.2500000), wk =   0.0092593
        k(  162) = (   0.0833333  -0.1666667  -0.1666667), wk =   0.0092593
        k(  163) = (   0.0833333  -0.1666667  -0.0833333), wk =   0.0046296
        k(  164) = (   0.0833333  -0.0833333   0.0833333), wk =   0.0023148
        k(  165) = (   0.0833333  -0.0833333   0.1666667), wk =   0.0046296
        k(  166) = (   0.0833333  -0.0833333   0.2500000), wk =   0.0046296
        k(  167) = (   0.0833333  -0.0833333   0.3333333), wk =   0.0046296
        k(  168) = (   0.0833333  -0.0833333   0.4166667), wk =   0.0046296
        k(  169) = (   0.0833333  -0.0833333  -0.5000000), wk =   0.0046296
        k(  170) = (   0.0833333  -0.0833333  -0.4166667), wk =   0.0046296
        k(  171) = (   0.0833333  -0.0833333  -0.3333333), wk =   0.0046296
        k(  172) = (   0.0833333  -0.0833333  -0.2500000), wk =   0.0046296
        k(  173) = (   0.0833333  -0.0833333  -0.1666667), wk =   0.0046296
        k(  174) = (   0.0833333  -0.0833333  -0.0833333), wk =   0.0023148
        k(  175) = (   0.1666667   0.1666667   0.1666667), wk =   0.0092593
        k(  176) = (   0.1666667   0.1666667   0.2500000), wk =   0.0092593
        k(  177) = (   0.1666667   0.1666667   0.3333333), wk =   0.0046296
        k(  178) = (   0.1666667   0.1666667  -0.1666667), wk =   0.0023148
        k(  179) = (   0.1666667   0.2500000   0.1666667), wk =   0.0092593
        k(  180) = (   0.1666667   0.2500000   0.2500000), wk =   0.0092593
        k(  181) = (   0.1666667   0.2500000   0.3333333), wk =   0.0092593
        k(  182) = (   0.1666667   0.2500000   0.4166667), wk =   0.0092593
        k(  183) = (   0.1666667   0.2500000  -0.2500000), wk =   0.0046296
        k(  184) = (   0.1666667   0.2500000  -0.1666667), wk =   0.0046296
        k(  185) = (   0.1666667   0.3333333   0.1666667), wk =   0.0046296
        k(  186) = (   0.1666667   0.3333333   0.2500000), wk =   0.0092593
        k(  187) = (   0.1666667   0.3333333   0.3333333), wk =   0.0046296
        k(  188) = (   0.1666667   0.3333333  -0.3333333), wk =   0.0046296
        k(  189) = (   0.1666667   0.3333333  -0.2500000), wk =   0.0092593
        k(  190) = (   0.1666667   0.3333333  -0.1666667), wk =   0.0046296
        k(  191) = (   0.1666667   0.4166667  -0.4166667), wk =   0.0046296
        k(  192) = (   0.1666667   0.4166667  -0.3333333), wk =   0.0092593
        k(  193) = (   0.1666667   0.4166667  -0.2500000), wk =   0.0092593
        k(  194) = (   0.1666667   0.4166667  -0.1666667), wk =   0.0046296
        k(  195) = (   0.1666667  -0.5000000  -0.5000000), wk =   0.0046296
        k(  196) = (   0.1666667  -0.5000000  -0.4166667), wk =   0.0092593
        k(  197) = (   0.1666667  -0.5000000  -0.3333333), wk =   0.0092593
        k(  198) = (   0.1666667  -0.5000000  -0.2500000), wk =   0.0092593
        k(  199) = (   0.1666667  -0.5000000  -0.1666667), wk =   0.0046296
        k(  200) = (   0.1666667  -0.4166667   0.4166667), wk =   0.0046296
        k(  201) = (   0.1666667  -0.4166667  -0.5000000), wk =   0.0092593
        k(  202) = (   0.1666667  -0.4166667  -0.4166667), wk =   0.0092593
        k(  203) = (   0.1666667  -0.4166667  -0.3333333), wk =   0.0092593
        k(  204) = (   0.1666667  -0.4166667  -0.2500000), wk =   0.0092593
        k(  205) = (   0.1666667  -0.4166667  -0.1666667), wk =   0.0046296
        k(  206) = (   0.1666667  -0.3333333   0.3333333), wk =   0.0046296
        k(  207) = (   0.1666667  -0.3333333   0.4166667), wk =   0.0092593
        k(  208) = (   0.1666667  -0.3333333  -0.5000000), wk =   0.0092593
        k(  209) = (   0.1666667  -0.3333333  -0.4166667), wk =   0.0092593
        k(  210) = (   0.1666667  -0.3333333  -0.3333333), wk =   0.0092593
        k(  211) = (   0.1666667  -0.3333333  -0.2500000), wk =   0.0092593
        k(  212) = (   0.1666667  -0.3333333  -0.1666667), wk =   0.0046296
        k(  213) = (   0.1666667  -0.2500000   0.2500000), wk =   0.0046296
        k(  214) = (   0.1666667  -0.2500000   0.3333333), wk =   0.0092593
        k(  215) = (   0.1666667  -0.2500000   0.4166667), wk =   0.0092593
        k(  216) = (   0.1666667  -0.2500000  -0.5000000), wk =   0.0092593
        k(  217) = (   0.1666667  -0.2500000  -0.4166667), wk =   0.0092593
        k(  218) = (   0.1666667  -0.2500000  -0.3333333), wk =   0.0092593
        k(  219) = (   0.1666667  -0.2500000  -0.2500000), wk =   0.0092593
        k(  220) = (   0.1666667  -0.2500000  -0.1666667), wk =   0.0046296
        k(  221) = (   0.1666667  -0.1666667   0.1666667), wk =   0.0023148
        k(  222) = (   0.1666667  -0.1666667   0.2500000), wk =   0.0046296
        k(  223) = (   0.1666667  -0.1666667   0.3333333), wk =   0.0046296
        k(  224) = (   0.1666667  -0.1666667   0.4166667), wk =   0.0046296
        k(  225) = (   0.1666667  -0.1666667  -0.5000000), wk =   0.0046296
        k(  226) = (   0.1666667  -0.1666667  -0.4166667), wk =   0.0046296
        k(  227) = (   0.1666667  -0.1666667  -0.3333333), wk =   0.0046296
        k(  228) = (   0.1666667  -0.1666667  -0.2500000), wk =   0.0046296
        k(  229) = (   0.1666667  -0.1666667  -0.1666667), wk =   0.0023148
        k(  230) = (   0.2500000   0.2500000   0.2500000), wk =   0.0023148
        k(  231) = (   0.2500000   0.2500000  -0.2500000), wk =   0.0023148
        k(  232) = (   0.2500000   0.3333333  -0.3333333), wk =   0.0046296
        k(  233) = (   0.2500000   0.3333333  -0.2500000), wk =   0.0046296
        k(  234) = (   0.2500000   0.4166667  -0.4166667), wk =   0.0046296
        k(  235) = (   0.2500000   0.4166667  -0.3333333), wk =   0.0092593
        k(  236) = (   0.2500000   0.4166667  -0.2500000), wk =   0.0046296
        k(  237) = (   0.2500000  -0.5000000  -0.5000000), wk =   0.0046296
        k(  238) = (   0.2500000  -0.5000000  -0.4166667), wk =   0.0092593
        k(  239) = (   0.2500000  -0.5000000  -0.3333333), wk =   0.0092593
        k(  240) = (   0.2500000  -0.5000000  -0.2500000), wk =   0.0046296
        k(  241) = (   0.2500000  -0.4166667   0.4166667), wk =   0.0046296
        k(  242) = (   0.2500000  -0.4166667  -0.5000000), wk =   0.0092593
        k(  243) = (   0.2500000  -0.4166667  -0.4166667), wk =   0.0092593
        k(  244) = (   0.2500000  -0.4166667  -0.3333333), wk =   0.0092593
        k(  245) = (   0.2500000  -0.4166667  -0.2500000), wk =   0.0046296
        k(  246) = (   0.2500000  -0.3333333   0.3333333), wk =   0.0046296
        k(  247) = (   0.2500000  -0.3333333   0.4166667), wk =   0.0092593
        k(  248) = (   0.2500000  -0.3333333  -0.5000000), wk =   0.0092593
        k(  249) = (   0.2500000  -0.3333333  -0.4166667), wk =   0.0092593
        k(  250) = (   0.2500000  -0.3333333  -0.3333333), wk =   0.0092593
        k(  251) = (   0.2500000  -0.3333333  -0.2500000), wk =   0.0046296
        k(  252) = (   0.2500000  -0.2500000   0.2500000), wk =   0.0023148
        k(  253) = (   0.2500000  -0.2500000   0.3333333), wk =   0.0046296
        k(  254) = (   0.2500000  -0.2500000   0.4166667), wk =   0.0046296
        k(  255) = (   0.2500000  -0.2500000  -0.5000000), wk =   0.0046296
        k(  256) = (   0.2500000  -0.2500000  -0.4166667), wk =   0.0046296
        k(  257) = (   0.2500000  -0.2500000  -0.3333333), wk =   0.0046296
        k(  258) = (   0.2500000  -0.2500000  -0.2500000), wk =   0.0023148
        k(  259) = (   0.3333333   0.3333333  -0.3333333), wk =   0.0023148
        k(  260) = (   0.3333333   0.4166667  -0.4166667), wk =   0.0046296
        k(  261) = (   0.3333333   0.4166667  -0.3333333), wk =   0.0046296
        k(  262) = (   0.3333333  -0.5000000  -0.5000000), wk =   0.0046296
        k(  263) = (   0.3333333  -0.5000000  -0.4166667), wk =   0.0092593
        k(  264) = (   0.3333333  -0.5000000  -0.3333333), wk =   0.0046296
        k(  265) = (   0.3333333  -0.4166667   0.4166667), wk =   0.0046296
        k(  266) = (   0.3333333  -0.4166667  -0.5000000), wk =   0.0092593
        k(  267) = (   0.3333333  -0.4166667  -0.4166667), wk =   0.0092593
        k(  268) = (   0.3333333  -0.4166667  -0.3333333), wk =   0.0046296
        k(  269) = (   0.3333333  -0.3333333   0.3333333), wk =   0.0023148
        k(  270) = (   0.3333333  -0.3333333   0.4166667), wk =   0.0046296
        k(  271) = (   0.3333333  -0.3333333  -0.5000000), wk =   0.0046296
        k(  272) = (   0.3333333  -0.3333333  -0.4166667), wk =   0.0046296
        k(  273) = (   0.3333333  -0.3333333  -0.3333333), wk =   0.0023148
        k(  274) = (   0.4166667   0.4166667  -0.4166667), wk =   0.0023148
        k(  275) = (   0.4166667  -0.5000000  -0.5000000), wk =   0.0046296
        k(  276) = (   0.4166667  -0.5000000  -0.4166667), wk =   0.0046296
        k(  277) = (   0.4166667  -0.4166667   0.4166667), wk =   0.0023148
        k(  278) = (   0.4166667  -0.4166667  -0.5000000), wk =   0.0046296
        k(  279) = (   0.4166667  -0.4166667  -0.4166667), wk =   0.0023148
        k(  280) = (  -0.5000000  -0.5000000  -0.5000000), wk =   0.0011574

     Dense  grid:   384583 G-vectors     FFT dimensions: ( 144, 144, 144)

     Smooth grid:    97215 G-vectors     FFT dimensions: (  90,  90,  90)

     Dynamical RAM for                 wfc:       0.08 MB

     Dynamical RAM for     wfc (w. buffer):      22.78 MB

     Dynamical RAM for           str. fact:       0.37 MB

     Dynamical RAM for           local pot:       0.00 MB

     Dynamical RAM for          nlocal pot:       0.16 MB

     Dynamical RAM for                qrad:       8.33 MB

     Dynamical RAM for          rho,v,vnew:       1.79 MB

     Dynamical RAM for               rhoin:       0.60 MB

     Dynamical RAM for            rho*nmix:       1.96 MB

     Dynamical RAM for           G-vectors:       0.47 MB

     Dynamical RAM for          h,s,v(r/c):       0.08 MB

     Dynamical RAM for          <psi|beta>:       0.01 MB

     Dynamical RAM for                 psi:       0.16 MB

     Dynamical RAM for                hpsi:       0.16 MB

     Dynamical RAM for                spsi:       0.16 MB

     Dynamical RAM for      wfcinit/wfcrot:       0.21 MB

     Dynamical RAM for           addusdens:      22.98 MB

     Dynamical RAM for          addusforce:      23.30 MB

     Dynamical RAM for         addusstress:      24.57 MB

     Estimated static dynamical RAM per process >      39.32 MB

     Estimated max dynamical RAM per process >      63.90 MB

     Estimated total dynamical RAM >       3.00 GB

     Initial potential from superposition of free atoms

     starting charge   32.99867, renormalised to   33.00000
     Starting wfcs are   25 randomized atomic wfcs
     Checking if some PAW data can be deallocated... 
       PAW data deallocated on   36 nodes for type:  1
       PAW data deallocated on   24 nodes for type:  2
       PAW data deallocated on   36 nodes for type:  3

     total cpu time spent up to now is        7.0 secs

     Self-consistent Calculation

     iteration #  1     ecut=   120.00 Ry     beta= 0.70
     Davidson diagonalization with overlap
     ethr =  1.00E-02,  avg # of iterations =  2.3

     total cpu time spent up to now is       20.4 secs

     total energy              =    -534.52789442 Ry
     estimated scf accuracy    <       0.76258487 Ry

     iteration #  2     ecut=   120.00 Ry     beta= 0.70
     Davidson diagonalization with overlap
     ethr =  2.31E-03,  avg # of iterations =  3.7

     total cpu time spent up to now is       36.4 secs

     total energy              =    -533.59840581 Ry
     estimated scf accuracy    <       8.56189199 Ry

     iteration #  3     ecut=   120.00 Ry     beta= 0.70
     Davidson diagonalization with overlap
     ethr =  2.31E-03,  avg # of iterations =  3.5

     total cpu time spent up to now is       51.2 secs

     total energy              =    -534.97569858 Ry
     estimated scf accuracy    <       0.12736665 Ry

     iteration #  4     ecut=   120.00 Ry     beta= 0.70
     Davidson diagonalization with overlap
     ethr =  3.86E-04,  avg # of iterations =  1.4

     total cpu time spent up to now is       63.2 secs

     total energy              =    -534.96773661 Ry
     estimated scf accuracy    <       0.06153428 Ry

     iteration #  5     ecut=   120.00 Ry     beta= 0.70
     Davidson diagonalization with overlap
     ethr =  1.86E-04,  avg # of iterations =  1.5

     total cpu time spent up to now is       75.2 secs

     total energy              =    -534.96494069 Ry
     estimated scf accuracy    <       0.02237118 Ry

     iteration #  6     ecut=   120.00 Ry     beta= 0.70
     Davidson diagonalization with overlap
     ethr =  6.78E-05,  avg # of iterations =  2.0

     total cpu time spent up to now is       87.6 secs

     total energy              =    -534.96707830 Ry
     estimated scf accuracy    <       0.00091753 Ry

     iteration #  7     ecut=   120.00 Ry     beta= 0.70
     Davidson diagonalization with overlap
     ethr =  2.78E-06,  avg # of iterations =  3.2

     total cpu time spent up to now is      102.9 secs

     total energy              =    -534.96734709 Ry
     estimated scf accuracy    <       0.00020761 Ry

     iteration #  8     ecut=   120.00 Ry     beta= 0.70
     Davidson diagonalization with overlap
     ethr =  6.29E-07,  avg # of iterations =  1.3

     total cpu time spent up to now is      114.8 secs

     total energy              =    -534.96735132 Ry
     estimated scf accuracy    <       0.00003020 Ry

     iteration #  9     ecut=   120.00 Ry     beta= 0.70
     Davidson diagonalization with overlap
     ethr =  9.15E-08,  avg # of iterations =  2.4

     total cpu time spent up to now is      128.3 secs

     total energy              =    -534.96735939 Ry
     estimated scf accuracy    <       0.00000167 Ry

     iteration # 10     ecut=   120.00 Ry     beta= 0.70
     Davidson diagonalization with overlap
     ethr =  5.06E-09,  avg # of iterations =  3.4

     total cpu time spent up to now is      143.2 secs

     total energy              =    -534.96735988 Ry
     estimated scf accuracy    <       0.00000001 Ry

     iteration # 11     ecut=   120.00 Ry     beta= 0.70
     Davidson diagonalization with overlap
     ethr =  3.34E-11,  avg # of iterations =  5.2

     total cpu time spent up to now is      164.6 secs

     total energy              =    -534.96735990 Ry
     estimated scf accuracy    <          4.1E-09 Ry

     iteration # 12     ecut=   120.00 Ry     beta= 0.70
     Davidson diagonalization with overlap
     ethr =  1.25E-11,  avg # of iterations =  2.0

     total cpu time spent up to now is      177.6 secs

     End of self-consistent calculation

          k = 0.0000 0.0000 0.0000 ( 12131 PWs)   bands (ev):

   -49.8612 -26.1002 -25.8012 -25.7184 -12.4046  -9.5083  -8.8186   0.6269
     2.4758   2.7305   2.8759   2.9850   3.4490   3.9425   4.1972   4.2857
     5.5097   7.1970   7.3378   8.6519   9.3744

     occupation numbers 
     1.0000   1.0000   1.0000   1.0000   1.0000   1.0000   1.0000   1.0000
     1.0000   1.0000   1.0000   1.0000   1.0000   1.0000   1.0000   1.0000
     1.0000  -0.0232  -0.0054  -0.0000  -0.0000

          k = 0.1664 0.1431 0.0000 ( 12121 PWs)   bands (ev):

   -49.8599 -26.1117 -25.7982 -25.7326 -12.3161  -9.4589  -8.8219   0.7225
     2.3206   2.3763   2.7288   3.2160   3.2390   3.8863   3.9012   4.0968
     5.7280   7.3490   7.4477   8.6900   9.7185

     occupation numbers 
     1.0000   1.0000   1.0000   1.0000   1.0000   1.0000   1.0000   1.0000
     1.0000   1.0000   1.0000   1.0000   1.0000   1.0000   1.0000   1.0000
     1.0000  -0.0047  -0.0011  -0.0000  -0.0000

          k = 0.3328 0.2862 0.0000 ( 12128 PWs)   bands (ev):

   -49.8567 -26.1426 -25.7899 -25.7711 -12.0678  -9.3206  -8.8321   0.9920
     1.9432   2.0250   2.1408   2.6720   3.0647   3.2591   3.8803   4.0077
     6.2015   7.6990   7.7652   8.8634  10.4779

     occupation numbers 
     1.0000   1.0000   1.0000   1.0000   1.0000   1.0000   1.0000   1.0000
     1.0000   1.0000   1.0000   1.0000   1.0000   1.0000   1.0000   1.0000
     1.0065  -0.0000  -0.0000  -0.0000  -0.0000

          k = 0.4991 0.4293 0.0000 ( 12152 PWs)   bands (ev):

   -49.8522 -26.1838 -25.8231 -25.7787 -11.7108  -9.1219  -8.8481   1.0840
     1.4067   1.7249   1.9060   1.9975   2.1944   2.9325   3.8422   4.0121
     6.8147   8.1474   8.2548   9.1642  11.1391

     occupation numbers 
     1.0000   1.0000   1.0000   1.0000   1.0000   1.0000   1.0000   1.0000
     1.0000   1.0000   1.0000   1.0000   1.0000   1.0000   1.0000   1.0000
     0.3407  -0.0000  -0.0000  -0.0000  -0.0000

          k = 0.6655 0.5724 0.0000 ( 12170 PWs)   bands (ev):

   -49.8477 -26.2239 -25.8745 -25.7675 -11.3285  -8.9098  -8.8667   0.2451
     1.2268   1.5041   1.6659   1.7736   1.9846   2.5141   3.6523   4.0026
     7.5204   8.6229   8.8033   9.4617  11.3730

     occupation numbers 
     1.0000   1.0000   1.0000   1.0000   1.0000   1.0000   1.0000   1.0000
     1.0000   1.0000   1.0000   1.0000   1.0000   1.0000   1.0000   1.0000
    -0.0003  -0.0000  -0.0000  -0.0000  -0.0000

          k = 0.8319 0.7155 0.0000 ( 12159 PWs)   bands (ev):

   -49.8444 -26.2525 -25.9116 -25.7593 -11.0287  -8.8819  -8.7439  -0.3670
     0.7642   1.1007   1.6849   1.8080   2.1479   2.3935   3.4006   3.9354
     8.1770   9.0099   9.2171   9.6772  11.3665

     occupation numbers 
     1.0000   1.0000   1.0000   1.0000   1.0000   1.0000   1.0000   1.0000
     1.0000   1.0000   1.0000   1.0000   1.0000   1.0000   1.0000   1.0000
    -0.0000  -0.0000  -0.0000  -0.0000  -0.0000

          k =-0.9983-0.8586 0.0000 ( 12140 PWs)   bands (ev):

   -49.8432 -26.2628 -25.9251 -25.7563 -10.9139  -8.8878  -8.6805  -0.5908
     0.5955   0.9611   1.7525   1.8404   1.9725   2.5851   3.2740   3.8795
     8.4694   9.1668   9.3564   9.7704  11.3974

     occupation numbers 
     1.0000   1.0000   1.0000   1.0000   1.0000   1.0000   1.0000   1.0000
     1.0000   1.0000   1.0000   1.0000   1.0000   1.0000   1.0000   1.0000
    -0.0000  -0.0000  -0.0000  -0.0000  -0.0000

          k = 0.1664 0.0000 0.0451 ( 12128 PWs)   bands (ev):

   -49.8602 -26.0991 -25.7986 -25.7330 -12.3967  -9.4676  -8.8246   0.7145
     2.3689   2.7028   2.9126   3.0080   3.3040   3.9125   4.0390   4.1601
     5.7191   7.1554   7.3113   8.6837   9.5669

     occupation numbers 
     1.0000   1.0000   1.0000   1.0000   1.0000   1.0000   1.0000   1.0000
     1.0000   1.0000   1.0000   1.0000   1.0000   1.0000   1.0000   1.0000
     1.0000  -0.0301  -0.0076  -0.0000  -0.0000

          k = 0.3328 0.1431 0.0451 ( 12145 PWs)   bands (ev):

   -49.8573 -26.1085 -25.7912 -25.7723 -12.2948  -9.3493  -8.8334   0.9465
     2.1329   2.3668   2.7426   2.8012   3.1686   3.4385   3.8742   4.0694
     6.1773   7.2328   7.3646   8.8475  10.0974

     occupation numbers 
     1.0000   1.0000   1.0000   1.0000   1.0000   1.0000   1.0000   1.0000
     1.0000   1.0000   1.0000   1.0000   1.0000   1.0000   1.0000   1.0000
     1.0048  -0.0173  -0.0038  -0.0000  -0.0000

          k = 0.4991 0.2862 0.0451 ( 12149 PWs)   bands (ev):

   -49.8530 -26.1381 -25.8248 -25.7804 -12.0392  -9.1636  -8.8480   1.2761
     1.9018   1.9865   2.0789   2.2039   2.5717   2.9990   3.8774   4.0852
     6.7729   7.5539   7.6656   9.1739  10.7626

     occupation numbers 
     1.0000   1.0000   1.0000   1.0000   1.0000   1.0000   1.0000   1.0000
     1.0000   1.0000   1.0000   1.0000   1.0000   1.0000   1.0000   1.0000
     0.4676  -0.0002  -0.0000  -0.0000  -0.0000

          k = 0.6655 0.4293 0.0451 ( 12177 PWs)   bands (ev):

   -49.8486 -26.1791 -25.8762 -25.7692 -11.6830  -8.9549  -8.8645   1.1048
     1.3861   1.5933   1.7414   1.8971   2.0864   2.6009   3.7664   4.1033
     7.4544   8.0361   8.1850   9.5136  11.1713

     occupation numbers 
     1.0000   1.0000   1.0000   1.0000   1.0000   1.0000   1.0000   1.0000
     1.0000   1.0000   1.0000   1.0000   1.0000   1.0000   1.0000   1.0000
    -0.0010  -0.0000  -0.0000  -0.0000  -0.0000

          k = 0.8319 0.5724 0.0451 ( 12171 PWs)   bands (ev):

   -49.8451 -26.2203 -25.9129 -25.7605 -11.3089  -8.8854  -8.7729   0.2615
     0.9759   1.0776   1.7151   1.8351   2.2637   2.3764   3.5097   4.0357
     8.1230   8.5511   8.7589   9.7244  11.2921

     occupation numbers 
     1.0000   1.0000   1.0000   1.0000   1.0000   1.0000   1.0000   1.0000
     1.0000   1.0000   1.0000   1.0000   1.0000   1.0000   1.0000   1.0000
    -0.0000  -0.0000  -0.0000  -0.0000  -0.0000

          k = 0.9983 0.7155 0.0451 ( 12167 PWs)   bands (ev):

   -49.8435 -26.2511 -25.9256 -25.7567 -11.0218  -8.8933  -8.6866  -0.3617
     0.6640   0.9459   1.6279   1.9329   2.0725   2.5972   3.3073   3.9106
     8.4649   8.9780   9.1947   9.7617  11.3412

     occupation numbers 
     1.0000   1.0000   1.0000   1.0000   1.0000   1.0000   1.0000   1.0000
     1.0000   1.0000   1.0000   1.0000   1.0000   1.0000   1.0000   1.0000
    -0.0000  -0.0000  -0.0000  -0.0000  -0.0000

          k =-0.8319-0.8586 0.0451 ( 12162 PWs)   bands (ev):

   -49.8442 -26.2642 -25.9111 -25.7589 -10.9207  -8.8905  -8.7224  -0.5957
     0.6810   1.0925   1.5281   1.8708   2.1996   2.4683   3.3505   3.8596
     8.2032   9.1926   9.3799   9.6306  11.3305

     occupation numbers 
     1.0000   1.0000   1.0000   1.0000   1.0000   1.0000   1.0000   1.0000
     1.0000   1.0000   1.0000   1.0000   1.0000   1.0000   1.0000   1.0000
    -0.0000  -0.0000  -0.0000  -0.0000  -0.0000

          k =-0.6655-0.7155 0.0451 ( 12161 PWs)   bands (ev):

   -49.8471 -26.2562 -25.8732 -25.7663 -11.0475  -8.8812  -8.8634  -0.3813
     1.0058   1.4673   1.5161   1.7489   2.0579   2.5466   3.5619   3.8702
     7.5671   9.0847   9.2553   9.3959  11.4141

     occupation numbers 
     1.0000   1.0000   1.0000   1.0000   1.0000   1.0000   1.0000   1.0000
     1.0000   1.0000   1.0000   1.0000   1.0000   1.0000   1.0000   1.0000
    -0.0001  -0.0000  -0.0000  -0.0000  -0.0000

          k =-0.4991-0.5724 0.0451 ( 12173 PWs)   bands (ev):

   -49.8514 -26.2288 -25.8215 -25.7771 -11.3551  -9.0717  -8.8573   0.2233
     1.4219   1.5130   1.6107   1.8974   2.1544   2.9314   3.7602   3.8702
     6.8667   8.7464   8.8287   9.1509  11.3575

     occupation numbers 
     1.0000   1.0000   1.0000   1.0000   1.0000   1.0000   1.0000   1.0000
     1.0000   1.0000   1.0000   1.0000   1.0000   1.0000   1.0000   1.0000
     0.2007  -0.0000  -0.0000  -0.0000  -0.0000

          k =-0.3328-0.4293 0.0451 ( 12143 PWs)   bands (ev):

   -49.8558 -26.1885 -25.7883 -25.7695 -11.7384  -9.2735  -8.8395   1.0080
     1.1600   1.5504   2.1279   2.3233   2.9167   3.2736   3.8058   3.9080
     6.2477   8.3054   8.3220   8.8768  10.8426

     occupation numbers 
     1.0000   1.0000   1.0000   1.0000   1.0000   1.0000   1.0000   1.0000
     1.0000   1.0000   1.0000   1.0000   1.0000   1.0000   1.0000   1.0000
     1.0112  -0.0000  -0.0000  -0.0000  -0.0000

          k =-0.1664-0.2862 0.0451 ( 12113 PWs)   bands (ev):

   -49.8593 -26.1459 -25.7969 -25.7315 -12.0887  -9.4252  -8.8273   0.7746
     1.8481   2.0098   2.3869   3.0050   3.4098   3.6376   3.8505   3.9561
     5.7613   7.8370   7.8401   8.7108  10.0769

     occupation numbers 
     1.0000   1.0000   1.0000   1.0000   1.0000   1.0000   1.0000   1.0000
     1.0000   1.0000   1.0000   1.0000   1.0000   1.0000   1.0000   1.0000
     1.0000  -0.0000  -0.0000  -0.0000  -0.0000

          k =-0.0000-0.1431 0.0451 ( 12110 PWs)   bands (ev):

   -49.8609 -26.1128 -25.8007 -25.7180 -12.3239  -9.4945  -8.8224   0.6508
     2.3027   2.4860   2.7218   3.2264   3.3724   3.8729   4.0430   4.2234
     5.5239   7.3979   7.4793   8.6654   9.5398

     occupation numbers 
     1.0000   1.0000   1.0000   1.0000   1.0000   1.0000   1.0000   1.0000
     1.0000   1.0000   1.0000   1.0000   1.0000   1.0000   1.0000   1.0000
     1.0000  -0.0023  -0.0006  -0.0000  -0.0000

          k = 0.3328 0.0000 0.0903 ( 12143 PWs)   bands (ev):

   -49.8575 -26.0959 -25.7916 -25.7727 -12.3752  -9.3545  -8.8402   0.9434
     2.1386   2.5739   2.8294   2.9769   3.1172   3.6378   3.8793   4.0551
     6.1811   7.0489   7.2281   8.8250   9.9238

     occupation numbers 
     1.0000   1.0000   1.0000   1.0000   1.0000   1.0000   1.0000   1.0000
     1.0000   1.0000   1.0000   1.0000   1.0000   1.0000   1.0000   1.0000
     1.0050  -0.0298  -0.0181  -0.0000  -0.0000

          k = 0.4991 0.1431 0.0903 ( 12159 PWs)   bands (ev):

   -49.8536 -26.1042 -25.8261 -25.7816 -12.2656  -9.1899  -8.8523   1.2178
     1.9165   2.0837   2.3600   2.7634   3.1297   3.1979   3.8302   4.0106
     6.7638   7.1114   7.2333   9.1532  10.3188

     occupation numbers 
     1.0000   1.0000   1.0000   1.0000   1.0000   1.0000   1.0000   1.0000
     1.0000   1.0000   1.0000   1.0000   1.0000   1.0000   1.0000   1.0000
     0.4958  -0.0350  -0.0173  -0.0000  -0.0000

          k = 0.6655 0.2862 0.0903 ( 12171 PWs)   bands (ev):

   -49.8494 -26.1336 -25.8780 -25.7708 -12.0106  -8.9970  -8.8647   1.3230
     1.5542   1.7696   2.0622   2.1905   2.4483   2.8693   3.8444   4.0990
     7.2750   7.5487   7.6055   9.5266  10.7598

     occupation numbers 
     1.0000   1.0000   1.0000   1.0000   1.0000   1.0000   1.0000   1.0000
     1.0000   1.0000   1.0000   1.0000   1.0000   1.0000   1.0000   1.0000
    -0.0114  -0.0002  -0.0001  -0.0000  -0.0000

          k = 0.8319 0.4293 0.0903 ( 12169 PWs)   bands (ev):

   -49.8459 -26.1756 -25.9148 -25.7621 -11.6626  -8.9027  -8.7989   0.9531
     1.1857   1.3266   1.6185   1.9072   2.4473   2.5794   3.6538   4.1029
     7.8132   8.1234   8.2145   9.7512  11.0375

     occupation numbers 
     1.0000   1.0000   1.0000   1.0000   1.0000   1.0000   1.0000   1.0000
     1.0000   1.0000   1.0000   1.0000   1.0000   1.0000   1.0000   1.0000
    -0.0000  -0.0000  -0.0000  -0.0000  -0.0000

          k = 0.9983 0.5724 0.0903 ( 12177 PWs)   bands (ev):

   -49.8441 -26.2189 -25.9269 -25.7579 -11.3017  -8.9083  -8.7032   0.2675
     0.8269   0.9460   1.5102   1.9574   2.3504   2.6456   3.4059   3.9840
     8.4088   8.5313   8.7405   9.7511  11.1733

     occupation numbers 
     1.0000   1.0000   1.0000   1.0000   1.0000   1.0000   1.0000   1.0000
     1.0000   1.0000   1.0000   1.0000   1.0000   1.0000   1.0000   1.0000
    -0.0000  -0.0000  -0.0000  -0.0000  -0.0000

          k = 1.1647 0.7155 0.0903 ( 12179 PWs)   bands (ev):

   -49.8444 -26.2525 -25.9116 -25.7593 -11.0286  -8.9087  -8.7145  -0.3670
     0.7388   1.0512   1.4177   1.9330   2.3356   2.5676   3.3712   3.8439
     8.2166   9.0042   9.2170   9.5807  11.2331

     occupation numbers 
     1.0000   1.0000   1.0000   1.0000   1.0000   1.0000   1.0000   1.0000
     1.0000   1.0000   1.0000   1.0000   1.0000   1.0000   1.0000   1.0000
    -0.0000  -0.0000  -0.0000  -0.0000  -0.0000

          k =-0.6655-0.8586 0.0903 ( 12179 PWs)   bands (ev):

   -49.8469 -26.2680 -25.8727 -25.7659 -10.9390  -8.8982  -8.8339  -0.6090
     0.9071   1.3519   1.4844   1.7291   2.1997   2.6271   3.5325   3.7605
     7.6000   9.2169   9.3604   9.4374  11.3793

     occupation numbers 
     1.0000   1.0000   1.0000   1.0000   1.0000   1.0000   1.0000   1.0000
     1.0000   1.0000   1.0000   1.0000   1.0000   1.0000   1.0000   1.0000
    -0.0001  -0.0000  -0.0000  -0.0000  -0.0000

          k =-0.4991-0.7155 0.0903 ( 12183 PWs)   bands (ev):

   -49.8507 -26.2613 -25.8202 -25.7758 -11.0728  -9.0210  -8.8788  -0.4005
     1.2354   1.3360   1.6376   1.8639   2.1464   2.9542   3.6637   3.7613
     6.9138   8.9983   9.2256   9.3505  11.4511

     occupation numbers 
     1.0000   1.0000   1.0000   1.0000   1.0000   1.0000   1.0000   1.0000
     1.0000   1.0000   1.0000   1.0000   1.0000   1.0000   1.0000   1.0000
     0.1006  -0.0000  -0.0000  -0.0000  -0.0000

          k =-0.3328-0.5724 0.0903 ( 12156 PWs)   bands (ev):

   -49.8550 -26.2338 -25.7866 -25.7679 -11.3815  -9.2164  -8.8588   0.2020
     1.1345   1.3053   1.9475   2.1379   2.8509   3.2310   3.6320   3.8891
     6.2987   8.7612   8.9074   9.0074  11.1123

     occupation numbers 
     1.0000   1.0000   1.0000   1.0000   1.0000   1.0000   1.0000   1.0000
     1.0000   1.0000   1.0000   1.0000   1.0000   1.0000   1.0000   1.0000
     1.0184  -0.0000  -0.0000  -0.0000  -0.0000

          k =-0.1664-0.4293 0.0903 ( 12130 PWs)   bands (ev):

   -49.8585 -26.1920 -25.7952 -25.7299 -11.7586  -9.3723  -8.8429   0.8399
     1.0922   1.4445   2.3930   2.6774   3.2353   3.5624   3.7585   3.9239
     5.8046   8.3850   8.4542   8.7457  10.4583

     occupation numbers 
     1.0000   1.0000   1.0000   1.0000   1.0000   1.0000   1.0000   1.0000
     1.0000   1.0000   1.0000   1.0000   1.0000   1.0000   1.0000   1.0000
     1.0000  -0.0000  -0.0000  -0.0000  -0.0000

          k = 0.0000-0.2862 0.0903 ( 12119 PWs)   bands (ev):

   -49.8603 -26.1471 -25.7995 -25.7169 -12.0962  -9.4556  -8.8344   0.7165
     1.8206   2.0052   2.5145   3.1601   3.3928   3.6132   3.9239   4.1109
     5.5553   7.8665   7.8979   8.7023   9.9127

     occupation numbers 
     1.0000   1.0000   1.0000   1.0000   1.0000   1.0000   1.0000   1.0000
     1.0000   1.0000   1.0000   1.0000   1.0000   1.0000   1.0000   1.0000
     1.0000  -0.0000  -0.0000  -0.0000  -0.0000

          k = 0.1664-0.1431 0.0903 ( 12119 PWs)   bands (ev):

   -49.8599 -26.1117 -25.7982 -25.7326 -12.3160  -9.4495  -8.8338   0.7533
     2.3273   2.3789   2.7274   3.1886   3.2436   3.7809   3.9653   4.0870
     5.7382   7.3467   7.4583   8.6939   9.7584

     occupation numbers 
     1.0000   1.0000   1.0000   1.0000   1.0000   1.0000   1.0000   1.0000
     1.0000   1.0000   1.0000   1.0000   1.0000   1.0000   1.0000   1.0000
     1.0000  -0.0048  -0.0009  -0.0000  -0.0000

          k = 0.4991 0.0000 0.1354 ( 12156 PWs)   bands (ev):

   -49.8539 -26.0917 -25.8265 -25.7821 -12.3459  -9.1959  -8.8576   1.1922
     1.9317   2.0335   2.4829   3.0359   3.3254   3.4481   3.7761   3.9014
     6.7927   6.9230   7.0778   9.1086  10.0936

     occupation numbers 
     1.0000   1.0000   1.0000   1.0000   1.0000   1.0000   1.0000   1.0000
     1.0000   1.0000   1.0000   1.0000   1.0000   1.0000   1.0000   1.0000
     0.4067   0.0846  -0.0347  -0.0000  -0.0000

          k = 0.6655 0.1431 0.1354 ( 12168 PWs)   bands (ev):

   -49.8500 -26.0998 -25.8793 -25.7720 -12.2366  -9.0287  -8.8632   1.2571
     1.4886   1.8970   2.1643   2.8082   3.0835   3.2619   3.7990   3.9462
     6.9581   7.0601   7.5042   9.4968  10.2711

     occupation numbers 
     1.0000   1.0000   1.0000   1.0000   1.0000   1.0000   1.0000   1.0000
     1.0000   1.0000   1.0000   1.0000   1.0000   1.0000   1.0000   1.0000
     0.0337  -0.0323  -0.0004  -0.0000  -0.0000

          k = 0.8319 0.2862 0.1354 ( 12172 PWs)   bands (ev):

   -49.8467 -26.1303 -25.9166 -25.7638 -11.9897  -8.9304  -8.8133   0.9228
     1.4525   1.6720   1.9344   2.2056   2.6402   3.0058   3.7865   4.0603
     7.2705   7.4521   8.1587   9.7408  10.6062

     occupation numbers 
     1.0000   1.0000   1.0000   1.0000   1.0000   1.0000   1.0000   1.0000
     1.0000   1.0000   1.0000   1.0000   1.0000   1.0000   1.0000   1.0000
    -0.0120  -0.0010  -0.0000  -0.0000  -0.0000

          k = 0.9983 0.4293 0.1354 ( 12163 PWs)   bands (ev):

   -49.8449 -26.1744 -25.9288 -25.7596 -11.6551  -8.9287  -8.7257   0.7737
     1.2051   1.2137   1.4352   1.9601   2.6301   2.8148   3.5583   4.0439
     7.8370   8.1001   8.4598   9.7395  10.8878

     occupation numbers 
     1.0000   1.0000   1.0000   1.0000   1.0000   1.0000   1.0000   1.0000
     1.0000   1.0000   1.0000   1.0000   1.0000   1.0000   1.0000   1.0000
    -0.0000  -0.0000  -0.0000  -0.0000  -0.0000

          k = 1.1647 0.5724 0.1354 ( 12188 PWs)   bands (ev):

   -49.8451 -26.2203 -25.9129 -25.7605 -11.3087  -8.9325  -8.7214   0.2613
     0.9087   1.0222   1.3471   2.0137   2.5055   2.6779   3.4664   3.8948
     8.2162   8.5146   8.7637   9.5468  11.0696

     occupation numbers 
     1.0000   1.0000   1.0000   1.0000   1.0000   1.0000   1.0000   1.0000
     1.0000   1.0000   1.0000   1.0000   1.0000   1.0000   1.0000   1.0000
    -0.0000  -0.0000  -0.0000  -0.0000  -0.0000

          k = 1.3311 0.7155 0.1354 ( 12175 PWs)   bands (ev):

   -49.8471 -26.2562 -25.8732 -25.7663 -11.0472  -8.9271  -8.8152  -0.3816
     0.9531   1.3030   1.4338   1.7578   2.3494   2.7099   3.5751   3.7202
     7.6153   9.0462   9.2698   9.3040  11.2979

     occupation numbers 
     1.0000   1.0000   1.0000   1.0000   1.0000   1.0000   1.0000   1.0000
     1.0000   1.0000   1.0000   1.0000   1.0000   1.0000   1.0000   1.0000
    -0.0000  -0.0000  -0.0000  -0.0000  -0.0000

          k =-0.4991-0.8586 0.1354 ( 12184 PWs)   bands (ev):

   -49.8505 -26.2731 -25.8198 -25.7754 -10.9637  -8.9802  -8.9094  -0.6272
     1.1687   1.2124   1.7292   1.8078   2.1891   2.9740   3.5788   3.7455
     6.9457   8.9634   9.4034   9.4983  11.4622

     occupation numbers 
     1.0000   1.0000   1.0000   1.0000   1.0000   1.0000   1.0000   1.0000
     1.0000   1.0000   1.0000   1.0000   1.0000   1.0000   1.0000   1.0000
     0.0498  -0.0000  -0.0000  -0.0000  -0.0000

          k =-0.3328-0.7155 0.1354 ( 12177 PWs)   bands (ev):

   -49.8544 -26.2664 -25.7853 -25.7668 -11.0978  -9.1599  -8.8896  -0.4194
     1.0003   1.3603   1.7429   2.0666   2.8330   3.1277   3.5237   3.8890
     6.3415   8.8046   9.3507   9.3882  11.2755

     occupation numbers 
     1.0000   1.0000   1.0000   1.0000   1.0000   1.0000   1.0000   1.0000
     1.0000   1.0000   1.0000   1.0000   1.0000   1.0000   1.0000   1.0000
     1.0255  -0.0000  -0.0000  -0.0000  -0.0000

          k =-0.1664-0.5724 0.1354 ( 12144 PWs)   bands (ev):

   -49.8576 -26.2374 -25.7935 -25.7284 -11.4006  -9.3101  -8.8700   0.1861
     0.9069   1.2158   2.2865   2.4590   2.9702   3.5122   3.6636   3.9559
     5.8477   8.7573   8.9717   9.0470  10.7744

     occupation numbers 
     1.0000   1.0000   1.0000   1.0000   1.0000   1.0000   1.0000   1.0000
     1.0000   1.0000   1.0000   1.0000   1.0000   1.0000   1.0000   1.0000
     1.0000  -0.0000  -0.0000  -0.0000  -0.0000

          k = 0.0000-0.4293 0.1354 ( 12137 PWs)   bands (ev):

   -49.8595 -26.1933 -25.7978 -25.7154 -11.7659  -9.3981  -8.8561   0.7877
     1.0837   1.4307   2.5548   2.8860   3.0197   3.5589   3.9471   4.0209
     5.5935   8.4048   8.5166   8.7534  10.3170

     occupation numbers 
     1.0000   1.0000   1.0000   1.0000   1.0000   1.0000   1.0000   1.0000
     1.0000   1.0000   1.0000   1.0000   1.0000   1.0000   1.0000   1.0000
     1.0000  -0.0000  -0.0000  -0.0000  -0.0000

          k = 0.1664-0.2862 0.1354 ( 12127 PWs)   bands (ev):

   -49.8593 -26.1459 -25.7969 -25.7315 -12.0884  -9.4070  -8.8496   0.8295
     1.8685   2.0148   2.3930   2.9981   3.2694   3.5843   3.8460   4.0268
     5.7743   7.8363   7.8482   8.7207  10.1529

     occupation numbers 
     1.0000   1.0000   1.0000   1.0000   1.0000   1.0000   1.0000   1.0000
     1.0000   1.0000   1.0000   1.0000   1.0000   1.0000   1.0000   1.0000
     1.0000  -0.0000  -0.0000  -0.0000  -0.0000

          k = 0.3328-0.1431 0.1354 ( 12136 PWs)   bands (ev):

   -49.8573 -26.1085 -25.7912 -25.7723 -12.2945  -9.3346  -8.8507   0.9837
     2.1420   2.3506   2.7421   2.7485   3.1687   3.4448   3.8834   4.0586
     6.2027   7.2199   7.3825   8.8069  10.1263

     occupation numbers 
     1.0000   1.0000   1.0000   1.0000   1.0000   1.0000   1.0000   1.0000
     1.0000   1.0000   1.0000   1.0000   1.0000   1.0000   1.0000   1.0000
     1.0066  -0.0194  -0.0029  -0.0000  -0.0000

          k = 0.6655 0.0000 0.1805 ( 12170 PWs)   bands (ev):

   -49.8502 -26.0874 -25.8798 -25.7725 -12.3167  -9.0450  -8.8571   1.2148
     1.4069   1.9670   2.2264   3.1109   3.4079   3.5502   3.7165   3.7496
     6.8185   6.8714   7.4974   9.4369  10.0177

     occupation numbers 
     1.0000   1.0000   1.0000   1.0000   1.0000   1.0000   1.0000   1.0000
     1.0000   1.0000   1.0000   1.0000   1.0000   1.0000   1.0000   1.0000
     0.3299   0.1895  -0.0005  -0.0000  -0.0000

          k = 0.8319 0.1431 0.1805 ( 12182 PWs)   bands (ev):

   -49.8473 -26.0967 -25.9180 -25.7650 -12.2153  -8.9585  -8.8152   0.8673
     1.3889   1.9140   1.9655   2.9255   3.0691   3.4470   3.7729   3.9148
     6.8784   6.9132   8.1407   9.6748  10.1550

     occupation numbers 
     1.0000   1.0000   1.0000   1.0000   1.0000   1.0000   1.0000   1.0000
     1.0000   1.0000   1.0000   1.0000   1.0000   1.0000   1.0000   1.0000
     0.1732   0.1018  -0.0000  -0.0000  -0.0000

          k = 0.9983 0.2862 0.1805 ( 12170 PWs)   bands (ev):

   -49.8457 -26.1291 -25.9307 -25.7612 -11.9819  -8.9488  -8.7478   0.7291
     1.3521   1.6003   1.9412   2.2036   2.8031   3.1930   3.7311   4.0074
     7.2502   7.4118   8.4435   9.7098  10.4969

     occupation numbers 
     1.0000   1.0000   1.0000   1.0000   1.0000   1.0000   1.0000   1.0000
     1.0000   1.0000   1.0000   1.0000   1.0000   1.0000   1.0000   1.0000
    -0.0147  -0.0019  -0.0000  -0.0000  -0.0000

          k = 1.1647 0.4293 0.1805 ( 12173 PWs)   bands (ev):

[...]

   -49.8609 -26.1128 -25.8008 -25.7180 -12.3221  -9.3108  -9.0405   1.2398
     2.2620   2.6420   2.6454   2.8007   3.2930   3.5574   3.9280   4.0142
     5.5679   7.3977   7.6073   8.9499  10.0433

     occupation numbers 
     1.0000   1.0000   1.0000   1.0000   1.0000   1.0000   1.0000   1.0000
     1.0000   1.0000   1.0000   1.0000   1.0000   1.0000   1.0000   1.0000
     1.0000  -0.0023  -0.0001  -0.0000  -0.0000

          k = 0.1664-0.0000 0.4061 ( 12140 PWs)   bands (ev):

   -49.8602 -26.0991 -25.7987 -25.7330 -12.3950  -9.2964  -9.0260   1.2771
     2.1238   2.6553   2.7970   3.1346   3.3396   3.5383   3.8610   3.9411
     5.8214   7.1341   7.4613   8.8314   9.9050

     occupation numbers 
     1.0000   1.0000   1.0000   1.0000   1.0000   1.0000   1.0000   1.0000
     1.0000   1.0000   1.0000   1.0000   1.0000   1.0000   1.0000   1.0000
     1.0000  -0.0329  -0.0008  -0.0000  -0.0000

          k =-1.9966-0.2862-0.0903 ( 12171 PWs)   bands (ev):

   -49.8603 -26.1471 -25.7996 -25.7169 -12.0944  -9.2471  -9.0756   1.2854
     1.9904   2.1006   2.3586   2.6686   3.1204   3.2404   3.8786   4.2182
     5.5907   7.8962   7.9212   8.9669  10.4730

     occupation numbers 
     1.0000   1.0000   1.0000   1.0000   1.0000   1.0000   1.0000   1.0000
     1.0000   1.0000   1.0000   1.0000   1.0000   1.0000   1.0000   1.0000
     1.0000  -0.0000  -0.0000  -0.0000  -0.0000

          k =-1.8302-0.1431-0.0903 ( 12141 PWs)   bands (ev):

   -49.8600 -26.1117 -25.7983 -25.7326 -12.3142  -9.2535  -9.0602   1.3739
     2.0155   2.5468   2.6402   2.9964   3.1143   3.5611   3.8353   3.9499
     5.8320   7.3334   7.5739   8.8575  10.1250

     occupation numbers 
     1.0000   1.0000   1.0000   1.0000   1.0000   1.0000   1.0000   1.0000
     1.0000   1.0000   1.0000   1.0000   1.0000   1.0000   1.0000   1.0000
     1.0000  -0.0057  -0.0001  -0.0000  -0.0000

          k =-1.6638-0.0000-0.0903 ( 12135 PWs)   bands (ev):

   -49.8575 -26.0959 -25.7917 -25.7727 -12.3738  -9.2125  -8.9998   1.3769
     1.7648   2.5122   2.7197   2.8426   3.4824   3.6963   3.7916   3.8260
     6.3542   6.9797   7.3244   8.6773   9.9569

     occupation numbers 
     1.0000   1.0000   1.0000   1.0000   1.0000   1.0000   1.0000   1.0000
     1.0000   1.0000   1.0000   1.0000   1.0000   1.0000   1.0000   1.0000
     1.0276   0.0104  -0.0064  -0.0000  -0.0000

          k = 0.0000 1.2879-0.0451 ( 12182 PWs)   bands (ev):

   -49.8595 -26.1933 -25.7979 -25.7154 -11.7642  -9.1798  -9.1010   0.9790
     1.4004   1.6501   2.2786   2.6806   2.8717   2.9990   3.8172   4.3552
     5.6199   8.4099   8.5149   8.9621  10.7993

     occupation numbers 
     1.0000   1.0000   1.0000   1.0000   1.0000   1.0000   1.0000   1.0000
     1.0000   1.0000   1.0000   1.0000   1.0000   1.0000   1.0000   1.0000
     1.0000  -0.0000  -0.0000  -0.0000  -0.0000

          k =-1.8302-0.2862-0.0451 ( 12164 PWs)   bands (ev):

   -49.8593 -26.1459 -25.7970 -25.7315 -12.0868  -9.1930  -9.0906   1.3855
     1.9379   2.0734   2.1449   2.8891   2.9139   3.3056   3.6368   4.2372
     5.8518   7.8340   7.8883   8.8771  10.5479

     occupation numbers 
     1.0000   1.0000   1.0000   1.0000   1.0000   1.0000   1.0000   1.0000
     1.0000   1.0000   1.0000   1.0000   1.0000   1.0000   1.0000   1.0000
     1.0000  -0.0000  -0.0000  -0.0000  -0.0000

          k =-1.6638-0.1431-0.0451 ( 12133 PWs)   bands (ev):

   -49.8573 -26.1085 -25.7913 -25.7723 -12.2932  -9.1856  -9.0163   1.4636
     1.6572   2.5015   2.5644   2.6977   3.2842   3.4566   3.7288   4.0383
     6.3664   7.1767   7.4455   8.6890  10.1596

     occupation numbers 
     1.0000   1.0000   1.0000   1.0000   1.0000   1.0000   1.0000   1.0000
     1.0000   1.0000   1.0000   1.0000   1.0000   1.0000   1.0000   1.0000
     1.0296  -0.0266  -0.0011  -0.0000  -0.0000

          k =-1.4974-0.0000-0.0451 ( 12169 PWs)   bands (ev):

   -49.8539 -26.0917 -25.8265 -25.7821 -12.3450  -9.1442  -8.9109   1.2086
     1.5182   2.1192   2.6250   2.9183   3.6510   3.6588   3.7242   3.8978
     6.8157   6.9754   7.1000   8.6982   9.8787

     occupation numbers 
     1.0000   1.0000   1.0000   1.0000   1.0000   1.0000   1.0000   1.0000
     1.0000   1.0000   1.0000   1.0000   1.0000   1.0000   1.0000   1.0000
     0.3378   0.0146  -0.0354  -0.0000  -0.0000

          k =-0.0000 1.1448-0.0000 ( 12185 PWs)   bands (ev):

   -49.8586 -26.2387 -25.7961 -25.7139 -11.4063  -9.1729  -9.0646   0.1731
     1.2256   1.2525   2.3963   2.6334   2.6784   2.8421   3.8239   4.3477
     5.6445   8.9366   8.9584   9.1012  10.9290

     occupation numbers 
     1.0000   1.0000   1.0000   1.0000   1.0000   1.0000   1.0000   1.0000
     1.0000   1.0000   1.0000   1.0000   1.0000   1.0000   1.0000   1.0000
     1.0000  -0.0000  -0.0000  -0.0000  -0.0000

          k = 0.1664 1.2879-0.0000 ( 12190 PWs)   bands (ev):

   -49.8585 -26.1920 -25.7953 -25.7299 -11.7569  -9.1216  -9.1190   0.9946
     1.4777   1.6380   2.0392   2.6300   2.8953   3.1614   3.5173   4.3418
     5.8730   8.3724   8.4573   8.8913  10.8806

     occupation numbers 
     1.0000   1.0000   1.0000   1.0000   1.0000   1.0000   1.0000   1.0000
     1.0000   1.0000   1.0000   1.0000   1.0000   1.0000   1.0000   1.0000
     1.0000  -0.0000  -0.0000  -0.0000  -0.0000

          k =-1.6638-0.2862-0.0000 ( 12170 PWs)   bands (ev):

   -49.8567 -26.1426 -25.7900 -25.7711 -12.0662  -9.1462  -9.0248   1.5031
     1.5471   2.0953   2.2231   2.4398   3.1184   3.1419   3.5514   4.2365
     6.3786   7.6801   7.7948   8.7221  10.5901

     occupation numbers 
     1.0000   1.0000   1.0000   1.0000   1.0000   1.0000   1.0000   1.0000
     1.0000   1.0000   1.0000   1.0000   1.0000   1.0000   1.0000   1.0000
     1.0314  -0.0000  -0.0000  -0.0000  -0.0000

          k =-1.4974-0.1431-0.0000 ( 12160 PWs)   bands (ev):

   -49.8536 -26.1042 -25.8261 -25.7817 -12.2646  -9.1325  -8.9115   1.2229
     1.5118   2.0559   2.5473   2.7573   3.3384   3.4525   3.7311   4.0704
     6.9754   7.0134   7.2535   8.7059  10.0774

     occupation numbers 
     1.0000   1.0000   1.0000   1.0000   1.0000   1.0000   1.0000   1.0000
     1.0000   1.0000   1.0000   1.0000   1.0000   1.0000   1.0000   1.0000
     0.0145  -0.0151  -0.0143  -0.0000  -0.0000

          k =-1.3311-0.0000-0.0000 ( 12151 PWs)   bands (ev):

   -49.8502 -26.0874 -25.8798 -25.7725 -12.3162  -9.0856  -8.8087   1.0508
     1.0890   2.0369   2.4933   3.0245   3.6005   3.6570   3.8502   3.8633
     6.7116   6.8478   7.6313   8.9827   9.7427

     occupation numbers 
     1.0000   1.0000   1.0000   1.0000   1.0000   1.0000   1.0000   1.0000
     1.0000   1.0000   1.0000   1.0000   1.0000   1.0000   1.0000   1.0000
     0.6550   0.2485  -0.0000  -0.0000  -0.0000

          k = 0.0000 0.0000 0.4513 ( 12116 PWs)   bands (ev):

   -49.8611 -26.1002 -25.8013 -25.7184 -12.4026  -9.2842  -9.0820   1.3503
     2.2185   2.6634   2.7743   3.3275   3.3442   3.3564   3.8254   4.0699
     5.5611   7.1979   7.5259   8.9801   9.8870

     occupation numbers 
     1.0000   1.0000   1.0000   1.0000   1.0000   1.0000   1.0000   1.0000
     1.0000   1.0000   1.0000   1.0000   1.0000   1.0000   1.0000   1.0000
     1.0000  -0.0231  -0.0003  -0.0000  -0.0000

          k =-1.9966-0.1431-0.0451 ( 12151 PWs)   bands (ev):

   -49.8609 -26.1128 -25.8008 -25.7180 -12.3218  -9.2397  -9.1168   1.4140
     2.1457   2.6096   2.6779   2.7584   3.2721   3.5609   3.8892   3.9837
     5.5699   7.3977   7.6289   8.9938  10.1089

     occupation numbers 
     1.0000   1.0000   1.0000   1.0000   1.0000   1.0000   1.0000   1.0000
     1.0000   1.0000   1.0000   1.0000   1.0000   1.0000   1.0000   1.0000
     1.0000  -0.0023  -0.0000  -0.0000  -0.0000

          k =-1.8302 0.0000-0.0451 ( 12123 PWs)   bands (ev):

   -49.8602 -26.0991 -25.7987 -25.7330 -12.3948  -9.2359  -9.0912   1.4748
     1.9294   2.6946   2.7887   3.0982   3.4106   3.5084   3.7860   3.9147
     5.8295   7.1326   7.4822   8.8692   9.9351

     occupation numbers 
     1.0000   1.0000   1.0000   1.0000   1.0000   1.0000   1.0000   1.0000
     1.0000   1.0000   1.0000   1.0000   1.0000   1.0000   1.0000   1.0000
     1.0000  -0.0331  -0.0006  -0.0000  -0.0000

          k = 0.0000 1.4311 0.0000 ( 12179 PWs)   bands (ev):

   -49.8603 -26.1471 -25.7996 -25.7169 -12.0943  -9.1856  -9.1396   1.3614
     2.0366   2.1149   2.2229   2.6840   3.1148   3.2090   3.8600   4.2281
     5.5929   7.8962   7.9283   8.9873  10.5128

     occupation numbers 
     1.0000   1.0000   1.0000   1.0000   1.0000   1.0000   1.0000   1.0000
     1.0000   1.0000   1.0000   1.0000   1.0000   1.0000   1.0000   1.0000
     1.0000  -0.0000  -0.0000  -0.0000  -0.0000

          k =-1.8302-0.1431 0.0000 ( 12161 PWs)   bands (ev):

   -49.8600 -26.1117 -25.7983 -25.7326 -12.3141  -9.2108  -9.1052   1.4935
     1.9026   2.5756   2.6196   3.0335   3.0636   3.5603   3.8202   3.9346
     5.8367   7.3329   7.5823   8.8765  10.1435

     occupation numbers 
     1.0000   1.0000   1.0000   1.0000   1.0000   1.0000   1.0000   1.0000
     1.0000   1.0000   1.0000   1.0000   1.0000   1.0000   1.0000   1.0000
     1.0000  -0.0058  -0.0001  -0.0000  -0.0000

          k =-1.6638 0.0000 0.0000 ( 12135 PWs)   bands (ev):

   -49.8575 -26.0959 -25.7917 -25.7727 -12.3737  -9.1910  -9.0226   1.5161
     1.6118   2.5494   2.6906   2.8371   3.5300   3.7437   3.7470   3.7753
     6.3665   6.9762   7.3299   8.6767   9.9495

     occupation numbers 
     1.0000   1.0000   1.0000   1.0000   1.0000   1.0000   1.0000   1.0000
     1.0000   1.0000   1.0000   1.0000   1.0000   1.0000   1.0000   1.0000
     1.0296   0.0137  -0.0060  -0.0000  -0.0000

          k =-1.9966-1.7173-0.5415 ( 12132 PWs)   bands (ev):

   -49.8612 -26.1002 -25.8013 -25.7184 -12.4025  -9.2345  -9.1345   1.4665
     2.1043   2.6817   2.7709   3.3131   3.3333   3.3837   3.7816   4.0561
     5.5611   7.1980   7.5391   9.0036   9.9161

     occupation numbers 
     1.0000   1.0000   1.0000   1.0000   1.0000   1.0000   1.0000   1.0000
     1.0000   1.0000   1.0000   1.0000   1.0000   1.0000   1.0000   1.0000
     1.0000  -0.0230  -0.0002  -0.0000  -0.0000

     the Fermi energy is     6.7625 ev

!    total energy              =    -534.96735990 Ry

     total all-electron energy =     -9636.857602 Ry
     estimated scf accuracy    <          1.4E-11 Ry
     smearing contrib. (-TS)   =      -0.00022948 Ry
     internal energy E=F+TS    =    -534.96713043 Ry

     The total energy is F=E-TS. E is the sum of the following terms:
     one-electron contribution =     -93.94209962 Ry
     hartree contribution      =      61.20988227 Ry
     xc contribution           =     -39.53553348 Ry
     ewald contribution        =    -135.48921389 Ry
     one-center paw contrib.   =    -327.21016571 Ry
      -> PAW hartree energy AE =      29.10026379 Ry
      -> PAW hartree energy PS =     -29.07019606 Ry
      -> PAW xc energy AE      =     -17.03930177 Ry
      -> PAW xc energy PS      =       7.41516387 Ry
      -> total E_H with PAW    =      61.23994999 Ry
      -> total E_XC with PAW   =     -49.15967138 Ry

     convergence has been achieved in  12 iterations

     Forces acting on atoms (cartesian axes, Ry/au):

     atom    1 type  1   force =     0.00000000    0.00000000    0.00000000
     atom    2 type  2   force =     0.00000000    0.00000000    0.03621763
     atom    3 type  2   force =     0.00000000    0.00000000   -0.03621763
     atom    4 type  3   force =    -0.00000000   -0.00000000    0.00000000
     The non-local contrib.  to forces
     atom    1 type  1   force =     0.00000000    0.00000000    0.00000000
     atom    2 type  2   force =    -0.00000000   -0.00000000    0.06508392
     atom    3 type  2   force =     0.00000000    0.00000000   -0.06508392
     atom    4 type  3   force =     0.00000000    0.00000000    0.00000000
     The ionic contribution  to forces
     atom    1 type  1   force =    -0.00000000   -0.00000000    0.00000000
     atom    2 type  2   force =     0.00000001    0.00000000  -10.07462875
     atom    3 type  2   force =    -0.00000001   -0.00000000   10.07462875
     atom    4 type  3   force =    -0.00000000   -0.00000000    0.00000000
     The local contribution  to forces
     atom    1 type  1   force =     0.00000000    0.00000000    0.00000000
     atom    2 type  2   force =     0.00000002   -0.00000003   10.04425606
     atom    3 type  2   force =    -0.00000002    0.00000003  -10.04425606
     atom    4 type  3   force =     0.00000000    0.00000000    0.00000000
     The core correction contribution to forces
     atom    1 type  1   force =     0.00000000    0.00000000    0.00000000
     atom    2 type  2   force =    -0.00000000    0.00000000    0.00150531
     atom    3 type  2   force =     0.00000000   -0.00000000   -0.00150531
     atom    4 type  3   force =     0.00000000    0.00000000    0.00000000
     The Hubbard contrib.    to forces
     atom    1 type  1   force =     0.00000000    0.00000000    0.00000000
     atom    2 type  2   force =     0.00000000    0.00000000    0.00000000
     atom    3 type  2   force =     0.00000000    0.00000000    0.00000000
     atom    4 type  3   force =     0.00000000    0.00000000    0.00000000
     The SCF correction term to forces
     atom    1 type  1   force =    -0.00000000    0.00000000    0.00000000
     atom    2 type  2   force =    -0.00000000    0.00000000    0.00000110
     atom    3 type  2   force =     0.00000000   -0.00000000   -0.00000110
     atom    4 type  3   force =     0.00000000   -0.00000000    0.00000000

     Total force =     0.051219     Total SCF correction =     0.000002


     Computing stress (Cartesian axis) and pressure

          total   stress  (Ry/bohr**3)                   (kbar)     P=      -39.24
  -0.00027895   0.00000000   0.00000000          -41.04        0.00        0.00
  -0.00000000  -0.00025583  -0.00000000           -0.00      -37.63       -0.00
  -0.00000000  -0.00000000  -0.00026548           -0.00       -0.00      -39.05

     kinetic stress (kbar)  14760.20      0.00      0.00
                                0.00  14816.61      0.00
                                0.00      0.00  14772.87

     local   stress (kbar) -18903.22     -0.00      0.00
                               -0.00 -24201.08      0.00
                                0.00      0.00   4102.33

     nonloc. stress (kbar)   8010.20      0.00     -0.00
                                0.00   7931.13     -0.00
                               -0.00      0.00   8006.05

     hartree stress (kbar)   8377.25      0.00     -0.00
                                0.00  10107.82      0.00
                               -0.00      0.00  -2051.83

     exc-cor stress (kbar)  -1130.92      0.00     -0.00
                                0.00  -1121.55     -0.00
                               -0.00     -0.00  -1130.49

     corecor stress (kbar)  -2029.41      0.00      0.00
                                0.00  -2029.11      0.00
                                0.00      0.00  -2029.28

     ewald   stress (kbar)  -9125.13      0.00     -0.00
                                0.00  -5541.44     -0.00
                               -0.00     -0.00 -21708.70

     hubbard stress (kbar)      0.00      0.00      0.00
                                0.00      0.00      0.00
                                0.00      0.00      0.00

     DFT-D   stress (kbar)      0.00      0.00      0.00
                                0.00      0.00      0.00
                                0.00      0.00      0.00

     XDM     stress (kbar)      0.00      0.00      0.00
                                0.00      0.00      0.00
                                0.00      0.00      0.00

     dft-nl  stress (kbar)      0.00      0.00      0.00
                                0.00      0.00      0.00
                                0.00      0.00      0.00

     TS-vdW  stress (kbar)      0.00      0.00      0.00
                                0.00      0.00      0.00
                                0.00      0.00      0.00



     Writing output data file /zfs_data/gutierre/Scratch/Cl2NbO/smearing/12x12x12/0.020/tmp/Cl2NbO.save/
 
     init_run     :      6.46s CPU      6.72s WALL (       1 calls)
     electrons    :    166.67s CPU    170.63s WALL (       1 calls)
     forces       :      1.02s CPU      1.03s WALL (       1 calls)
     stress       :      2.57s CPU      2.58s WALL (       1 calls)

     Called by init_run:
     wfcinit      :      5.26s CPU      5.42s WALL (       1 calls)
     wfcinit:atom :      0.04s CPU      0.04s WALL (     280 calls)
     wfcinit:wfcr :      5.06s CPU      5.22s WALL (     280 calls)
     potinit      :      0.37s CPU      0.39s WALL (       1 calls)
     hinit0       :      0.48s CPU      0.49s WALL (       1 calls)

     Called by electrons:
     c_bands      :    135.01s CPU    138.21s WALL (      12 calls)
     sum_band     :     28.65s CPU     29.34s WALL (      12 calls)
     v_of_rho     :      1.20s CPU      1.22s WALL (      13 calls)
     v_h          :      0.10s CPU      0.10s WALL (      13 calls)
     v_xc         :      1.27s CPU      1.29s WALL (      15 calls)
     newd         :      1.00s CPU      1.06s WALL (      13 calls)
     PAW_pot      :      0.69s CPU      0.70s WALL (      13 calls)
     mix_rho      :      0.17s CPU      0.17s WALL (      12 calls)

     Called by c_bands:
     init_us_2    :      1.82s CPU      1.91s WALL (    7560 calls)
     cegterg      :    131.16s CPU    134.13s WALL (    3360 calls)

     Called by sum_band:
     sum_band:wei :      0.13s CPU      0.13s WALL (      12 calls)
     sum_band:loo :     27.41s CPU     28.03s WALL (      12 calls)
     sum_band:buf :      0.26s CPU      0.27s WALL (    3360 calls)
     sum_band:ini :      0.86s CPU      0.89s WALL (    3360 calls)
     sum_band:cal :      0.91s CPU      0.93s WALL (    3360 calls)
     sum_band:bec :      0.10s CPU      0.10s WALL (    3360 calls)
     addusdens    :      0.97s CPU      1.04s WALL (      12 calls)
     addusd:skk   :      0.01s CPU      0.01s WALL (      36 calls)
     addusd:dgemm :      0.28s CPU      0.34s WALL (      36 calls)
     addusd:qvan2 :      0.65s CPU      0.65s WALL (      36 calls)

     Called by *egterg:
     cdiaghg      :      7.24s CPU      7.49s WALL (   12302 calls)
     cegterg:over :      2.50s CPU      2.57s WALL (    8942 calls)
     cegterg:upda :      0.76s CPU      0.78s WALL (    8942 calls)
     cegterg:last :      1.29s CPU      1.31s WALL (    6733 calls)
     h_psi        :    120.88s CPU    123.61s WALL (   12582 calls)
     s_psi        :      0.89s CPU      0.90s WALL (   12582 calls)
     g_psi        :      0.16s CPU      0.17s WALL (    8942 calls)

     Called by h_psi:
     h_psi:calbec :      2.89s CPU      2.96s WALL (   12582 calls)
     vloc_psi     :    116.19s CPU    118.81s WALL (   12582 calls)
     add_vuspsi   :      1.34s CPU      1.38s WALL (   12582 calls)

     General routines
     calbec       :      3.92s CPU      4.01s WALL (   17342 calls)
     fft          :      1.04s CPU      1.05s WALL (     192 calls)
     ffts         :      0.02s CPU      0.02s WALL (      25 calls)
     fftw         :    127.05s CPU    130.04s WALL (  430806 calls)
     interpolate  :      0.10s CPU      0.10s WALL (      13 calls)
 
     Parallel routines
     fft_scatt_xy :     16.62s CPU     16.87s WALL (  431023 calls)
     fft_scatt_yz :     55.52s CPU     56.86s WALL (  431023 calls)

     PAW routines
     PAW_pot      :      0.69s CPU      0.70s WALL (      13 calls)
     PAW_symme    :      0.02s CPU      0.02s WALL (      25 calls)
 
     PWSCF        :   2m58.75s CPU   3m 5.78s WALL

 
   This run was terminated on:  17:43: 9  18May2022            

=------------------------------------------------------------------------------=
   JOB DONE.
=------------------------------------------------------------------------------=
