
     Program PWSCF v.6.7MaX starts on  4Sep2021 at 12:49:47 

     This program is part of the open-source Quantum ESPRESSO suite
     for quantum simulation of materials; please cite
         "P. Giannozzi et al., J. Phys.:Condens. Matter 21 395502 (2009);
         "P. Giannozzi et al., J. Phys.:Condens. Matter 29 465901 (2017);
          URL http://www.quantum-espresso.org", 
     in publications or presentations arising from this work. More details at
     http://www.quantum-espresso.org/quote

     Parallel version (MPI), running on    40 processors

     MPI processes distributed on     1 nodes
     R & G space division:  proc/nbgrp/npool/nimage =      40
     Waiting for input...
     Reading input from standard input

     Current dimensions of program PWSCF are:
     Max number of different atomic species (ntypx) = 10
     Max number of k-points (npk) =  40000
     Max angular momentum in pseudopotentials (lmaxx) =  3
     file Cs.pbe-spn-kjpaw_psl.1.0.0.UPF: wavefunction(s)  5S 6S renormalized
     file V.pbe-spnl-kjpaw_psl.1.0.0.UPF: wavefunction(s)  3P 3D renormalized
     file Sb.pbe-n-kjpaw_psl.1.0.0.UPF: wavefunction(s)  5S renormalized

     Subspace diagonalization in iterative solution of the eigenvalue problem:
     a serial algorithm will be used

     Message from routine setup:
     using ibrav=0 with symmetry is DISCOURAGED, use correct ibrav instead
 
     Parallelization info
     --------------------
     sticks:   dense  smooth     PW     G-vecs:    dense   smooth      PW
     Min         167      67     18                19919     5047     720
     Max         168      69     19                19928     5050     727
     Sum        6715    2689    745               796925   201905   28907
 


     bravais-lattice index     =            0
     lattice parameter (alat)  =      10.4005  a.u.
     unit-cell volume          =    1748.6128 (a.u.)^3
     number of atoms/cell      =            9
     number of atomic types    =            3
     number of electrons       =        73.00
     number of Kohn-Sham states=           44
     kinetic-energy cutoff     =      90.0000  Ry
     charge density cutoff     =     900.0000  Ry
     scf convergence threshold =      1.0E-10
     mixing beta               =       0.7000
     number of iterations used =            8  plain     mixing
     Exchange-correlation= SLA  PW   PBX  PBC
                           (   1   4   3   4   0   0   0)

     celldm(1)=  10.400470  celldm(2)=   0.000000  celldm(3)=   0.000000
     celldm(4)=   0.000000  celldm(5)=   0.000000  celldm(6)=   0.000000

     crystal axes: (cart. coord. in units of alat)
               a(1) = (   1.000000   0.000000   0.000000 )  
               a(2) = (  -0.500000   0.866025   0.000000 )  
               a(3) = (   0.000000   0.000000   1.794751 )  

     reciprocal axes: (cart. coord. in units 2 pi/alat)
               b(1) = (  1.000000  0.577350  0.000000 )  
               b(2) = (  0.000000  1.154701  0.000000 )  
               b(3) = (  0.000000  0.000000  0.557180 )  


     PseudoPot. # 1 for Cs read from file:
     /lscratch/martin/156411/pseudo/Cs.pbe-spn-kjpaw_psl.1.0.0.UPF
     MD5 check sum: b82c75cc2e1f4ff73b6412cffeb9c584
     Pseudo is Projector augmented-wave + core cor, Zval =  9.0
     Generated using &quot;atomic&quot; code by A. Dal Corso  v.6.4.1
     Shape of augmentation charge: PSQ
     Using radial grid of 1251 points,  9 beta functions with: 
                l(1) =   0
                l(2) =   0
                l(3) =   0
                l(4) =   1
                l(5) =   1
                l(6) =   2
                l(7) =   2
                l(8) =   3
                l(9) =   3
     Q(r) pseudized with 0 coefficients 


     PseudoPot. # 2 for V  read from file:
     /lscratch/martin/156411/pseudo/V.pbe-spnl-kjpaw_psl.1.0.0.UPF
     MD5 check sum: 069c5df6a0a9f40a694a86a6cab52b89
     Pseudo is Projector augmented-wave + core cor, Zval = 13.0
     Generated using &quot;atomic&quot; code by A. Dal Corso  v.6.3
     Shape of augmentation charge: PSQ
     Using radial grid of 1181 points,  6 beta functions with: 
                l(1) =   0
                l(2) =   0
                l(3) =   1
                l(4) =   1
                l(5) =   2
                l(6) =   2
     Q(r) pseudized with 0 coefficients 


     PseudoPot. # 3 for Sb read from file:
     /lscratch/martin/156411/pseudo/Sb.pbe-n-kjpaw_psl.1.0.0.UPF
     MD5 check sum: 6b903ae7923846f66e229fa892705b98
     Pseudo is Projector augmented-wave + core cor, Zval =  5.0
     Generated using &quot;atomic&quot; code by A. Dal Corso  v.6.2.2
     Shape of augmentation charge: PSQ
     Using radial grid of 1243 points,  6 beta functions with: 
                l(1) =   0
                l(2) =   0
                l(3) =   1
                l(4) =   1
                l(5) =   2
                l(6) =   2
     Q(r) pseudized with 0 coefficients 


     atomic species   valence    mass     pseudopotential
        Cs             9.00   132.90500     Cs( 1.00)
        V             13.00    50.94100     V ( 1.00)
        Sb             5.00   121.76000     Sb( 1.00)

     24 Sym. Ops., with inversion, found


                                    s                        frac. trans.

      isym =  1     identity                                     

 cryst.   s( 1) = (     1          0          0      )
                  (     0          1          0      )
                  (     0          0          1      )

 cart.    s( 1) = (  1.0000000  0.0000000  0.0000000 )
                  (  0.0000000  1.0000000  0.0000000 )
                  (  0.0000000  0.0000000  1.0000000 )


      isym =  2     180 deg rotation - cart. axis [0,0,1]        

 cryst.   s( 2) = (    -1          0          0      )
                  (     0         -1          0      )
                  (     0          0          1      )

 cart.    s( 2) = ( -1.0000000  0.0000000  0.0000000 )
                  (  0.0000000 -1.0000000  0.0000000 )
                  (  0.0000000  0.0000000  1.0000000 )


      isym =  3     180 deg rotation - cart. axis [0,1,0]        

 cryst.   s( 3) = (    -1          0          0      )
                  (     1          1          0      )
                  (     0          0         -1      )

 cart.    s( 3) = ( -1.0000000  0.0000000  0.0000000 )
                  (  0.0000000  1.0000000  0.0000000 )
                  (  0.0000000  0.0000000 -1.0000000 )


      isym =  4     180 deg rotation - cart. axis [1,0,0]        

 cryst.   s( 4) = (     1          0          0      )
                  (    -1         -1          0      )
                  (     0          0         -1      )

 cart.    s( 4) = (  1.0000000 -0.0000000  0.0000000 )
                  (  0.0000000 -1.0000000  0.0000000 )
                  (  0.0000000  0.0000000 -1.0000000 )


      isym =  5      60 deg rotation - cryst. axis [0,0,1]       

 cryst.   s( 5) = (     1          1          0      )
                  (    -1          0          0      )
                  (     0          0          1      )

 cart.    s( 5) = (  0.5000000 -0.8660254  0.0000000 )
                  (  0.8660254  0.5000000  0.0000000 )
                  (  0.0000000  0.0000000  1.0000000 )


      isym =  6      60 deg rotation - cryst. axis [0,0,-1]      

 cryst.   s( 6) = (     0         -1          0      )
                  (     1          1          0      )
                  (     0          0          1      )

 cart.    s( 6) = (  0.5000000  0.8660254  0.0000000 )
                  ( -0.8660254  0.5000000  0.0000000 )
                  (  0.0000000  0.0000000  1.0000000 )


      isym =  7     120 deg rotation - cryst. axis [0,0,1]       

 cryst.   s( 7) = (     0          1          0      )
                  (    -1         -1          0      )
                  (     0          0          1      )

 cart.    s( 7) = ( -0.5000000 -0.8660254  0.0000000 )
                  (  0.8660254 -0.5000000  0.0000000 )
                  (  0.0000000  0.0000000  1.0000000 )


      isym =  8     120 deg rotation - cryst. axis [0,0,-1]      

 cryst.   s( 8) = (    -1         -1          0      )
                  (     1          0          0      )
                  (     0          0          1      )

 cart.    s( 8) = ( -0.5000000  0.8660254  0.0000000 )
                  ( -0.8660254 -0.5000000  0.0000000 )
                  (  0.0000000  0.0000000  1.0000000 )


      isym =  9     180 deg rotation - cryst. axis [1,-1,0]      

 cryst.   s( 9) = (     0         -1          0      )
                  (    -1          0          0      )
                  (     0          0         -1      )

 cart.    s( 9) = (  0.5000000 -0.8660254  0.0000000 )
                  ( -0.8660254 -0.5000000  0.0000000 )
                  (  0.0000000  0.0000000 -1.0000000 )


      isym = 10     180 deg rotation - cryst. axis [2,1,0]       

 cryst.   s(10) = (     1          1          0      )
                  (     0         -1          0      )
                  (     0          0         -1      )

 cart.    s(10) = (  0.5000000  0.8660254  0.0000000 )
                  (  0.8660254 -0.5000000  0.0000000 )
                  (  0.0000000  0.0000000 -1.0000000 )


      isym = 11     180 deg rotation - cryst. axis [0,1,0]       

 cryst.   s(11) = (    -1         -1          0      )
                  (     0          1          0      )
                  (     0          0         -1      )

 cart.    s(11) = ( -0.5000000 -0.8660254  0.0000000 )
                  ( -0.8660254  0.5000000  0.0000000 )
                  (  0.0000000  0.0000000 -1.0000000 )


      isym = 12     180 deg rotation - cryst. axis [1,1,0]       

 cryst.   s(12) = (     0          1          0      )
                  (     1          0          0      )
                  (     0          0         -1      )

 cart.    s(12) = ( -0.5000000  0.8660254  0.0000000 )
                  (  0.8660254  0.5000000  0.0000000 )
                  (  0.0000000  0.0000000 -1.0000000 )


      isym = 13     inversion                                    

 cryst.   s(13) = (    -1          0          0      )
                  (     0         -1          0      )
                  (     0          0         -1      )

 cart.    s(13) = ( -1.0000000  0.0000000  0.0000000 )
                  (  0.0000000 -1.0000000  0.0000000 )
                  (  0.0000000  0.0000000 -1.0000000 )


      isym = 14     inv. 180 deg rotation - cart. axis [0,0,1]   

 cryst.   s(14) = (     1          0          0      )
                  (     0          1          0      )
                  (     0          0         -1      )

 cart.    s(14) = (  1.0000000  0.0000000  0.0000000 )
                  (  0.0000000  1.0000000  0.0000000 )
                  (  0.0000000  0.0000000 -1.0000000 )


      isym = 15     inv. 180 deg rotation - cart. axis [0,1,0]   

 cryst.   s(15) = (     1          0          0      )
                  (    -1         -1          0      )
                  (     0          0          1      )

 cart.    s(15) = (  1.0000000 -0.0000000  0.0000000 )
                  (  0.0000000 -1.0000000  0.0000000 )
                  (  0.0000000  0.0000000  1.0000000 )


      isym = 16     inv. 180 deg rotation - cart. axis [1,0,0]   

 cryst.   s(16) = (    -1          0          0      )
                  (     1          1          0      )
                  (     0          0          1      )

 cart.    s(16) = ( -1.0000000  0.0000000  0.0000000 )
                  (  0.0000000  1.0000000  0.0000000 )
                  (  0.0000000  0.0000000  1.0000000 )


      isym = 17     inv.  60 deg rotation - cryst. axis [0,0,1]  

 cryst.   s(17) = (    -1         -1          0      )
                  (     1          0          0      )
                  (     0          0         -1      )

 cart.    s(17) = ( -0.5000000  0.8660254  0.0000000 )
                  ( -0.8660254 -0.5000000  0.0000000 )
                  (  0.0000000  0.0000000 -1.0000000 )


      isym = 18     inv.  60 deg rotation - cryst. axis [0,0,-1] 

 cryst.   s(18) = (     0          1          0      )
                  (    -1         -1          0      )
                  (     0          0         -1      )

 cart.    s(18) = ( -0.5000000 -0.8660254  0.0000000 )
                  (  0.8660254 -0.5000000  0.0000000 )
                  (  0.0000000  0.0000000 -1.0000000 )


      isym = 19     inv. 120 deg rotation - cryst. axis [0,0,1]  

 cryst.   s(19) = (     0         -1          0      )
                  (     1          1          0      )
                  (     0          0         -1      )

 cart.    s(19) = (  0.5000000  0.8660254  0.0000000 )
                  ( -0.8660254  0.5000000  0.0000000 )
                  (  0.0000000  0.0000000 -1.0000000 )


      isym = 20     inv. 120 deg rotation - cryst. axis [0,0,-1] 

 cryst.   s(20) = (     1          1          0      )
                  (    -1          0          0      )
                  (     0          0         -1      )

 cart.    s(20) = (  0.5000000 -0.8660254  0.0000000 )
                  (  0.8660254  0.5000000  0.0000000 )
                  (  0.0000000  0.0000000 -1.0000000 )


      isym = 21     inv. 180 deg rotation - cryst. axis [1,-1,0] 

 cryst.   s(21) = (     0          1          0      )
                  (     1          0          0      )
                  (     0          0          1      )

 cart.    s(21) = ( -0.5000000  0.8660254  0.0000000 )
                  (  0.8660254  0.5000000  0.0000000 )
                  (  0.0000000  0.0000000  1.0000000 )


      isym = 22     inv. 180 deg rotation - cryst. axis [2,1,0]  

 cryst.   s(22) = (    -1         -1          0      )
                  (     0          1          0      )
                  (     0          0          1      )

 cart.    s(22) = ( -0.5000000 -0.8660254  0.0000000 )
                  ( -0.8660254  0.5000000  0.0000000 )
                  (  0.0000000  0.0000000  1.0000000 )


      isym = 23     inv. 180 deg rotation - cryst. axis [0,1,0]  

 cryst.   s(23) = (     1          1          0      )
                  (     0         -1          0      )
                  (     0          0          1      )

 cart.    s(23) = (  0.5000000  0.8660254  0.0000000 )
                  (  0.8660254 -0.5000000  0.0000000 )
                  (  0.0000000  0.0000000  1.0000000 )


      isym = 24     inv. 180 deg rotation - cryst. axis [1,1,0]  

 cryst.   s(24) = (     0         -1          0      )
                  (    -1          0          0      )
                  (     0          0          1      )

 cart.    s(24) = (  0.5000000 -0.8660254  0.0000000 )
                  ( -0.8660254 -0.5000000  0.0000000 )
                  (  0.0000000  0.0000000  1.0000000 )


   Cartesian axes

     site n.     atom                  positions (alat units)
         1           Cs  tau(   1) = (   0.0000000   0.0000000   0.0000000  )
         2           V   tau(   2) = (   0.5000000   0.0000000   0.8973753  )
         3           V   tau(   3) = (  -0.2500000   0.4330127   0.8973753  )
         4           V   tau(   4) = (   0.2500000   0.4330127   0.8973753  )
         5           Sb  tau(   5) = (   0.0000000   0.0000000   0.8973753  )
         6           Sb  tau(   6) = (   0.5000000  -0.2886751   1.3104283  )
         7           Sb  tau(   7) = (  -0.5000000   0.2886751   1.3104283  )
         8           Sb  tau(   8) = (   0.5000000  -0.2886751  -1.3104283  )
         9           Sb  tau(   9) = (  -0.5000000   0.2886751  -1.3104283  )

   Crystallographic axes

     site n.     atom                  positions (cryst. coord.)
         1           Cs  tau(   1) = (  0.0000000  0.0000000  0.0000000  )
         2           V   tau(   2) = (  0.5000000  0.0000000  0.5000000  )
         3           V   tau(   3) = (  0.0000000  0.5000000  0.5000000  )
         4           V   tau(   4) = (  0.5000000  0.5000000  0.5000000  )
         5           Sb  tau(   5) = (  0.0000000  0.0000000  0.5000000  )
         6           Sb  tau(   6) = (  0.3333333 -0.3333333  0.7301451  )
         7           Sb  tau(   7) = ( -0.3333333  0.3333333  0.7301451  )
         8           Sb  tau(   8) = (  0.3333333 -0.3333333 -0.7301451  )
         9           Sb  tau(   9) = ( -0.3333333  0.3333333 -0.7301451  )

     number of k points=   259  Methfessel-Paxton smearing, width (Ry)=  0.0200
                       cart. coord. in units 2pi/alat
        k(    1) = (   0.0000000   0.0000000   0.0000000), wk =   0.0005144
        k(    2) = (   0.0000000   0.0000000   0.0464317), wk =   0.0010288
        k(    3) = (   0.0000000   0.0000000   0.0928634), wk =   0.0010288
        k(    4) = (   0.0000000   0.0000000   0.1392951), wk =   0.0010288
        k(    5) = (   0.0000000   0.0000000   0.1857268), wk =   0.0010288
        k(    6) = (   0.0000000   0.0000000   0.2321585), wk =   0.0010288
        k(    7) = (   0.0000000   0.0000000  -0.2785902), wk =   0.0005144
        k(    8) = (   0.0000000   0.0641500   0.0000000), wk =   0.0030864
        k(    9) = (   0.0000000   0.0641500   0.0464317), wk =   0.0061728
        k(   10) = (   0.0000000   0.0641500   0.0928634), wk =   0.0061728
        k(   11) = (   0.0000000   0.0641500   0.1392951), wk =   0.0061728
        k(   12) = (   0.0000000   0.0641500   0.1857268), wk =   0.0061728
        k(   13) = (   0.0000000   0.0641500   0.2321585), wk =   0.0061728
        k(   14) = (   0.0000000   0.0641500  -0.2785902), wk =   0.0030864
        k(   15) = (   0.0000000   0.1283001   0.0000000), wk =   0.0030864
        k(   16) = (   0.0000000   0.1283001   0.0464317), wk =   0.0061728
        k(   17) = (   0.0000000   0.1283001   0.0928634), wk =   0.0061728
        k(   18) = (   0.0000000   0.1283001   0.1392951), wk =   0.0061728
        k(   19) = (   0.0000000   0.1283001   0.1857268), wk =   0.0061728
        k(   20) = (   0.0000000   0.1283001   0.2321585), wk =   0.0061728
        k(   21) = (   0.0000000   0.1283001  -0.2785902), wk =   0.0030864
        k(   22) = (   0.0000000   0.1924501   0.0000000), wk =   0.0030864
        k(   23) = (   0.0000000   0.1924501   0.0464317), wk =   0.0061728
        k(   24) = (   0.0000000   0.1924501   0.0928634), wk =   0.0061728
        k(   25) = (   0.0000000   0.1924501   0.1392951), wk =   0.0061728
        k(   26) = (   0.0000000   0.1924501   0.1857268), wk =   0.0061728
        k(   27) = (   0.0000000   0.1924501   0.2321585), wk =   0.0061728
        k(   28) = (   0.0000000   0.1924501  -0.2785902), wk =   0.0030864
        k(   29) = (   0.0000000   0.2566001   0.0000000), wk =   0.0030864
        k(   30) = (   0.0000000   0.2566001   0.0464317), wk =   0.0061728
        k(   31) = (   0.0000000   0.2566001   0.0928634), wk =   0.0061728
        k(   32) = (   0.0000000   0.2566001   0.1392951), wk =   0.0061728
        k(   33) = (   0.0000000   0.2566001   0.1857268), wk =   0.0061728
        k(   34) = (   0.0000000   0.2566001   0.2321585), wk =   0.0061728
        k(   35) = (   0.0000000   0.2566001  -0.2785902), wk =   0.0030864
        k(   36) = (   0.0000000   0.3207501   0.0000000), wk =   0.0030864
        k(   37) = (   0.0000000   0.3207501   0.0464317), wk =   0.0061728
        k(   38) = (   0.0000000   0.3207501   0.0928634), wk =   0.0061728
        k(   39) = (   0.0000000   0.3207501   0.1392951), wk =   0.0061728
        k(   40) = (   0.0000000   0.3207501   0.1857268), wk =   0.0061728
        k(   41) = (   0.0000000   0.3207501   0.2321585), wk =   0.0061728
        k(   42) = (   0.0000000   0.3207501  -0.2785902), wk =   0.0030864
        k(   43) = (   0.0000000   0.3849002   0.0000000), wk =   0.0030864
        k(   44) = (   0.0000000   0.3849002   0.0464317), wk =   0.0061728
        k(   45) = (   0.0000000   0.3849002   0.0928634), wk =   0.0061728
        k(   46) = (   0.0000000   0.3849002   0.1392951), wk =   0.0061728
        k(   47) = (   0.0000000   0.3849002   0.1857268), wk =   0.0061728
        k(   48) = (   0.0000000   0.3849002   0.2321585), wk =   0.0061728
        k(   49) = (   0.0000000   0.3849002  -0.2785902), wk =   0.0030864
        k(   50) = (   0.0000000   0.4490502   0.0000000), wk =   0.0030864
        k(   51) = (   0.0000000   0.4490502   0.0464317), wk =   0.0061728
        k(   52) = (   0.0000000   0.4490502   0.0928634), wk =   0.0061728
        k(   53) = (   0.0000000   0.4490502   0.1392951), wk =   0.0061728
        k(   54) = (   0.0000000   0.4490502   0.1857268), wk =   0.0061728
        k(   55) = (   0.0000000   0.4490502   0.2321585), wk =   0.0061728
        k(   56) = (   0.0000000   0.4490502  -0.2785902), wk =   0.0030864
        k(   57) = (   0.0000000   0.5132002   0.0000000), wk =   0.0030864
        k(   58) = (   0.0000000   0.5132002   0.0464317), wk =   0.0061728
        k(   59) = (   0.0000000   0.5132002   0.0928634), wk =   0.0061728
        k(   60) = (   0.0000000   0.5132002   0.1392951), wk =   0.0061728
        k(   61) = (   0.0000000   0.5132002   0.1857268), wk =   0.0061728
        k(   62) = (   0.0000000   0.5132002   0.2321585), wk =   0.0061728
        k(   63) = (   0.0000000   0.5132002  -0.2785902), wk =   0.0030864
        k(   64) = (   0.0000000  -0.5773503   0.0000000), wk =   0.0015432
        k(   65) = (   0.0000000  -0.5773503   0.0464317), wk =   0.0030864
        k(   66) = (   0.0000000  -0.5773503   0.0928634), wk =   0.0030864
        k(   67) = (   0.0000000  -0.5773503   0.1392951), wk =   0.0030864
        k(   68) = (   0.0000000  -0.5773503   0.1857268), wk =   0.0030864
        k(   69) = (   0.0000000  -0.5773503   0.2321585), wk =   0.0030864
        k(   70) = (   0.0000000  -0.5773503  -0.2785902), wk =   0.0015432
        k(   71) = (   0.0555556   0.0962250   0.0000000), wk =   0.0030864
        k(   72) = (   0.0555556   0.0962250   0.0464317), wk =   0.0061728
        k(   73) = (   0.0555556   0.0962250   0.0928634), wk =   0.0061728
        k(   74) = (   0.0555556   0.0962250   0.1392951), wk =   0.0061728
        k(   75) = (   0.0555556   0.0962250   0.1857268), wk =   0.0061728
        k(   76) = (   0.0555556   0.0962250   0.2321585), wk =   0.0061728
        k(   77) = (   0.0555556   0.0962250  -0.2785902), wk =   0.0030864
        k(   78) = (   0.0555556   0.1603751   0.0000000), wk =   0.0061728
        k(   79) = (   0.0555556   0.1603751   0.0464317), wk =   0.0123457
        k(   80) = (   0.0555556   0.1603751   0.0928634), wk =   0.0123457
        k(   81) = (   0.0555556   0.1603751   0.1392951), wk =   0.0123457
        k(   82) = (   0.0555556   0.1603751   0.1857268), wk =   0.0123457
        k(   83) = (   0.0555556   0.1603751   0.2321585), wk =   0.0123457
        k(   84) = (   0.0555556   0.1603751  -0.2785902), wk =   0.0061728
        k(   85) = (   0.0555556   0.2245251   0.0000000), wk =   0.0061728
        k(   86) = (   0.0555556   0.2245251   0.0464317), wk =   0.0123457
        k(   87) = (   0.0555556   0.2245251   0.0928634), wk =   0.0123457
        k(   88) = (   0.0555556   0.2245251   0.1392951), wk =   0.0123457
        k(   89) = (   0.0555556   0.2245251   0.1857268), wk =   0.0123457
        k(   90) = (   0.0555556   0.2245251   0.2321585), wk =   0.0123457
        k(   91) = (   0.0555556   0.2245251  -0.2785902), wk =   0.0061728
        k(   92) = (   0.0555556   0.2886751   0.0000000), wk =   0.0061728
        k(   93) = (   0.0555556   0.2886751   0.0464317), wk =   0.0123457
        k(   94) = (   0.0555556   0.2886751   0.0928634), wk =   0.0123457
        k(   95) = (   0.0555556   0.2886751   0.1392951), wk =   0.0123457
        k(   96) = (   0.0555556   0.2886751   0.1857268), wk =   0.0123457
        k(   97) = (   0.0555556   0.2886751   0.2321585), wk =   0.0123457
        k(   98) = (   0.0555556   0.2886751  -0.2785902), wk =   0.0061728
        k(   99) = (   0.0555556   0.3528252   0.0000000), wk =   0.0061728
        k(  100) = (   0.0555556   0.3528252   0.0464317), wk =   0.0123457
        k(  101) = (   0.0555556   0.3528252   0.0928634), wk =   0.0123457
        k(  102) = (   0.0555556   0.3528252   0.1392951), wk =   0.0123457
        k(  103) = (   0.0555556   0.3528252   0.1857268), wk =   0.0123457
        k(  104) = (   0.0555556   0.3528252   0.2321585), wk =   0.0123457
        k(  105) = (   0.0555556   0.3528252  -0.2785902), wk =   0.0061728
        k(  106) = (   0.0555556   0.4169752   0.0000000), wk =   0.0061728
        k(  107) = (   0.0555556   0.4169752   0.0464317), wk =   0.0123457
        k(  108) = (   0.0555556   0.4169752   0.0928634), wk =   0.0123457
        k(  109) = (   0.0555556   0.4169752   0.1392951), wk =   0.0123457
        k(  110) = (   0.0555556   0.4169752   0.1857268), wk =   0.0123457
        k(  111) = (   0.0555556   0.4169752   0.2321585), wk =   0.0123457
        k(  112) = (   0.0555556   0.4169752  -0.2785902), wk =   0.0061728
        k(  113) = (   0.0555556   0.4811252   0.0000000), wk =   0.0061728
        k(  114) = (   0.0555556   0.4811252   0.0464317), wk =   0.0123457
        k(  115) = (   0.0555556   0.4811252   0.0928634), wk =   0.0123457
        k(  116) = (   0.0555556   0.4811252   0.1392951), wk =   0.0123457
        k(  117) = (   0.0555556   0.4811252   0.1857268), wk =   0.0123457
        k(  118) = (   0.0555556   0.4811252   0.2321585), wk =   0.0123457
        k(  119) = (   0.0555556   0.4811252  -0.2785902), wk =   0.0061728
        k(  120) = (   0.0555556   0.5452753   0.0000000), wk =   0.0061728
        k(  121) = (   0.0555556   0.5452753   0.0464317), wk =   0.0123457
        k(  122) = (   0.0555556   0.5452753   0.0928634), wk =   0.0123457
        k(  123) = (   0.0555556   0.5452753   0.1392951), wk =   0.0123457
        k(  124) = (   0.0555556   0.5452753   0.1857268), wk =   0.0123457
        k(  125) = (   0.0555556   0.5452753   0.2321585), wk =   0.0123457
        k(  126) = (   0.0555556   0.5452753  -0.2785902), wk =   0.0061728
        k(  127) = (   0.1111111   0.1924501   0.0000000), wk =   0.0030864
        k(  128) = (   0.1111111   0.1924501   0.0464317), wk =   0.0061728
        k(  129) = (   0.1111111   0.1924501   0.0928634), wk =   0.0061728
        k(  130) = (   0.1111111   0.1924501   0.1392951), wk =   0.0061728
        k(  131) = (   0.1111111   0.1924501   0.1857268), wk =   0.0061728
        k(  132) = (   0.1111111   0.1924501   0.2321585), wk =   0.0061728
        k(  133) = (   0.1111111   0.1924501  -0.2785902), wk =   0.0030864
        k(  134) = (   0.1111111   0.2566001   0.0000000), wk =   0.0061728
        k(  135) = (   0.1111111   0.2566001   0.0464317), wk =   0.0123457
        k(  136) = (   0.1111111   0.2566001   0.0928634), wk =   0.0123457
        k(  137) = (   0.1111111   0.2566001   0.1392951), wk =   0.0123457
        k(  138) = (   0.1111111   0.2566001   0.1857268), wk =   0.0123457
        k(  139) = (   0.1111111   0.2566001   0.2321585), wk =   0.0123457
        k(  140) = (   0.1111111   0.2566001  -0.2785902), wk =   0.0061728
        k(  141) = (   0.1111111   0.3207501   0.0000000), wk =   0.0061728
        k(  142) = (   0.1111111   0.3207501   0.0464317), wk =   0.0123457
        k(  143) = (   0.1111111   0.3207501   0.0928634), wk =   0.0123457
        k(  144) = (   0.1111111   0.3207501   0.1392951), wk =   0.0123457
        k(  145) = (   0.1111111   0.3207501   0.1857268), wk =   0.0123457
        k(  146) = (   0.1111111   0.3207501   0.2321585), wk =   0.0123457
        k(  147) = (   0.1111111   0.3207501  -0.2785902), wk =   0.0061728
        k(  148) = (   0.1111111   0.3849002   0.0000000), wk =   0.0061728
        k(  149) = (   0.1111111   0.3849002   0.0464317), wk =   0.0123457
        k(  150) = (   0.1111111   0.3849002   0.0928634), wk =   0.0123457
        k(  151) = (   0.1111111   0.3849002   0.1392951), wk =   0.0123457
        k(  152) = (   0.1111111   0.3849002   0.1857268), wk =   0.0123457
        k(  153) = (   0.1111111   0.3849002   0.2321585), wk =   0.0123457
        k(  154) = (   0.1111111   0.3849002  -0.2785902), wk =   0.0061728
        k(  155) = (   0.1111111   0.4490502   0.0000000), wk =   0.0061728
        k(  156) = (   0.1111111   0.4490502   0.0464317), wk =   0.0123457
        k(  157) = (   0.1111111   0.4490502   0.0928634), wk =   0.0123457
        k(  158) = (   0.1111111   0.4490502   0.1392951), wk =   0.0123457
        k(  159) = (   0.1111111   0.4490502   0.1857268), wk =   0.0123457
        k(  160) = (   0.1111111   0.4490502   0.2321585), wk =   0.0123457
        k(  161) = (   0.1111111   0.4490502  -0.2785902), wk =   0.0061728
        k(  162) = (   0.1111111   0.5132002   0.0000000), wk =   0.0061728
        k(  163) = (   0.1111111   0.5132002   0.0464317), wk =   0.0123457
        k(  164) = (   0.1111111   0.5132002   0.0928634), wk =   0.0123457
        k(  165) = (   0.1111111   0.5132002   0.1392951), wk =   0.0123457
        k(  166) = (   0.1111111   0.5132002   0.1857268), wk =   0.0123457
        k(  167) = (   0.1111111   0.5132002   0.2321585), wk =   0.0123457
        k(  168) = (   0.1111111   0.5132002  -0.2785902), wk =   0.0061728
        k(  169) = (   0.1111111   0.5773503   0.0000000), wk =   0.0030864
        k(  170) = (   0.1111111   0.5773503   0.0464317), wk =   0.0061728
        k(  171) = (   0.1111111   0.5773503   0.0928634), wk =   0.0061728
        k(  172) = (   0.1111111   0.5773503   0.1392951), wk =   0.0061728
        k(  173) = (   0.1111111   0.5773503   0.1857268), wk =   0.0061728
        k(  174) = (   0.1111111   0.5773503   0.2321585), wk =   0.0061728
        k(  175) = (   0.1111111   0.5773503  -0.2785902), wk =   0.0030864
        k(  176) = (   0.1666667   0.2886751   0.0000000), wk =   0.0030864
        k(  177) = (   0.1666667   0.2886751   0.0464317), wk =   0.0061728
        k(  178) = (   0.1666667   0.2886751   0.0928634), wk =   0.0061728
        k(  179) = (   0.1666667   0.2886751   0.1392951), wk =   0.0061728
        k(  180) = (   0.1666667   0.2886751   0.1857268), wk =   0.0061728
        k(  181) = (   0.1666667   0.2886751   0.2321585), wk =   0.0061728
        k(  182) = (   0.1666667   0.2886751  -0.2785902), wk =   0.0030864
        k(  183) = (   0.1666667   0.3528252   0.0000000), wk =   0.0061728
        k(  184) = (   0.1666667   0.3528252   0.0464317), wk =   0.0123457
        k(  185) = (   0.1666667   0.3528252   0.0928634), wk =   0.0123457
        k(  186) = (   0.1666667   0.3528252   0.1392951), wk =   0.0123457
        k(  187) = (   0.1666667   0.3528252   0.1857268), wk =   0.0123457
        k(  188) = (   0.1666667   0.3528252   0.2321585), wk =   0.0123457
        k(  189) = (   0.1666667   0.3528252  -0.2785902), wk =   0.0061728
        k(  190) = (   0.1666667   0.4169752   0.0000000), wk =   0.0061728
        k(  191) = (   0.1666667   0.4169752   0.0464317), wk =   0.0123457
        k(  192) = (   0.1666667   0.4169752   0.0928634), wk =   0.0123457
        k(  193) = (   0.1666667   0.4169752   0.1392951), wk =   0.0123457
        k(  194) = (   0.1666667   0.4169752   0.1857268), wk =   0.0123457
        k(  195) = (   0.1666667   0.4169752   0.2321585), wk =   0.0123457
        k(  196) = (   0.1666667   0.4169752  -0.2785902), wk =   0.0061728
        k(  197) = (   0.1666667   0.4811252   0.0000000), wk =   0.0061728
        k(  198) = (   0.1666667   0.4811252   0.0464317), wk =   0.0123457
        k(  199) = (   0.1666667   0.4811252   0.0928634), wk =   0.0123457
        k(  200) = (   0.1666667   0.4811252   0.1392951), wk =   0.0123457
        k(  201) = (   0.1666667   0.4811252   0.1857268), wk =   0.0123457
        k(  202) = (   0.1666667   0.4811252   0.2321585), wk =   0.0123457
        k(  203) = (   0.1666667   0.4811252  -0.2785902), wk =   0.0061728
        k(  204) = (   0.1666667   0.5452753   0.0000000), wk =   0.0061728
        k(  205) = (   0.1666667   0.5452753   0.0464317), wk =   0.0123457
        k(  206) = (   0.1666667   0.5452753   0.0928634), wk =   0.0123457
        k(  207) = (   0.1666667   0.5452753   0.1392951), wk =   0.0123457
        k(  208) = (   0.1666667   0.5452753   0.1857268), wk =   0.0123457
        k(  209) = (   0.1666667   0.5452753   0.2321585), wk =   0.0123457
        k(  210) = (   0.1666667   0.5452753  -0.2785902), wk =   0.0061728
        k(  211) = (   0.2222222   0.3849002   0.0000000), wk =   0.0030864
        k(  212) = (   0.2222222   0.3849002   0.0464317), wk =   0.0061728
        k(  213) = (   0.2222222   0.3849002   0.0928634), wk =   0.0061728
        k(  214) = (   0.2222222   0.3849002   0.1392951), wk =   0.0061728
        k(  215) = (   0.2222222   0.3849002   0.1857268), wk =   0.0061728
        k(  216) = (   0.2222222   0.3849002   0.2321585), wk =   0.0061728
        k(  217) = (   0.2222222   0.3849002  -0.2785902), wk =   0.0030864
        k(  218) = (   0.2222222   0.4490502   0.0000000), wk =   0.0061728
        k(  219) = (   0.2222222   0.4490502   0.0464317), wk =   0.0123457
        k(  220) = (   0.2222222   0.4490502   0.0928634), wk =   0.0123457
        k(  221) = (   0.2222222   0.4490502   0.1392951), wk =   0.0123457
        k(  222) = (   0.2222222   0.4490502   0.1857268), wk =   0.0123457
        k(  223) = (   0.2222222   0.4490502   0.2321585), wk =   0.0123457
        k(  224) = (   0.2222222   0.4490502  -0.2785902), wk =   0.0061728
        k(  225) = (   0.2222222   0.5132002   0.0000000), wk =   0.0061728
        k(  226) = (   0.2222222   0.5132002   0.0464317), wk =   0.0123457
        k(  227) = (   0.2222222   0.5132002   0.0928634), wk =   0.0123457
        k(  228) = (   0.2222222   0.5132002   0.1392951), wk =   0.0123457
        k(  229) = (   0.2222222   0.5132002   0.1857268), wk =   0.0123457
        k(  230) = (   0.2222222   0.5132002   0.2321585), wk =   0.0123457
        k(  231) = (   0.2222222   0.5132002  -0.2785902), wk =   0.0061728
        k(  232) = (   0.2222222   0.5773503   0.0000000), wk =   0.0030864
        k(  233) = (   0.2222222   0.5773503   0.0464317), wk =   0.0061728
        k(  234) = (   0.2222222   0.5773503   0.0928634), wk =   0.0061728
        k(  235) = (   0.2222222   0.5773503   0.1392951), wk =   0.0061728
        k(  236) = (   0.2222222   0.5773503   0.1857268), wk =   0.0061728
        k(  237) = (   0.2222222   0.5773503   0.2321585), wk =   0.0061728
        k(  238) = (   0.2222222   0.5773503  -0.2785902), wk =   0.0030864
        k(  239) = (   0.2777778   0.4811252   0.0000000), wk =   0.0030864
        k(  240) = (   0.2777778   0.4811252   0.0464317), wk =   0.0061728
        k(  241) = (   0.2777778   0.4811252   0.0928634), wk =   0.0061728
        k(  242) = (   0.2777778   0.4811252   0.1392951), wk =   0.0061728
        k(  243) = (   0.2777778   0.4811252   0.1857268), wk =   0.0061728
        k(  244) = (   0.2777778   0.4811252   0.2321585), wk =   0.0061728
        k(  245) = (   0.2777778   0.4811252  -0.2785902), wk =   0.0030864
        k(  246) = (   0.2777778   0.5452753   0.0000000), wk =   0.0061728
        k(  247) = (   0.2777778   0.5452753   0.0464317), wk =   0.0123457
        k(  248) = (   0.2777778   0.5452753   0.0928634), wk =   0.0123457
        k(  249) = (   0.2777778   0.5452753   0.1392951), wk =   0.0123457
        k(  250) = (   0.2777778   0.5452753   0.1857268), wk =   0.0123457
        k(  251) = (   0.2777778   0.5452753   0.2321585), wk =   0.0123457
        k(  252) = (   0.2777778   0.5452753  -0.2785902), wk =   0.0061728
        k(  253) = (   0.3333333   0.5773503   0.0000000), wk =   0.0010288
        k(  254) = (   0.3333333   0.5773503   0.0464317), wk =   0.0020576
        k(  255) = (   0.3333333   0.5773503   0.0928634), wk =   0.0020576
        k(  256) = (   0.3333333   0.5773503   0.1392951), wk =   0.0020576
        k(  257) = (   0.3333333   0.5773503   0.1857268), wk =   0.0020576
        k(  258) = (   0.3333333   0.5773503   0.2321585), wk =   0.0020576
        k(  259) = (   0.3333333   0.5773503  -0.2785902), wk =   0.0010288

                       cryst. coord.
        k(    1) = (   0.0000000   0.0000000   0.0000000), wk =   0.0005144
        k(    2) = (   0.0000000   0.0000000   0.0833333), wk =   0.0010288
        k(    3) = (   0.0000000   0.0000000   0.1666667), wk =   0.0010288
        k(    4) = (   0.0000000   0.0000000   0.2500000), wk =   0.0010288
        k(    5) = (   0.0000000   0.0000000   0.3333333), wk =   0.0010288
        k(    6) = (   0.0000000   0.0000000   0.4166667), wk =   0.0010288
        k(    7) = (   0.0000000   0.0000000  -0.5000000), wk =   0.0005144
        k(    8) = (   0.0000000   0.0555556   0.0000000), wk =   0.0030864
        k(    9) = (   0.0000000   0.0555556   0.0833333), wk =   0.0061728
        k(   10) = (   0.0000000   0.0555556   0.1666667), wk =   0.0061728
        k(   11) = (   0.0000000   0.0555556   0.2500000), wk =   0.0061728
        k(   12) = (   0.0000000   0.0555556   0.3333333), wk =   0.0061728
        k(   13) = (   0.0000000   0.0555556   0.4166667), wk =   0.0061728
        k(   14) = (   0.0000000   0.0555556  -0.5000000), wk =   0.0030864
        k(   15) = (   0.0000000   0.1111111   0.0000000), wk =   0.0030864
        k(   16) = (   0.0000000   0.1111111   0.0833333), wk =   0.0061728
        k(   17) = (   0.0000000   0.1111111   0.1666667), wk =   0.0061728
        k(   18) = (   0.0000000   0.1111111   0.2500000), wk =   0.0061728
        k(   19) = (   0.0000000   0.1111111   0.3333333), wk =   0.0061728
        k(   20) = (   0.0000000   0.1111111   0.4166667), wk =   0.0061728
        k(   21) = (   0.0000000   0.1111111  -0.5000000), wk =   0.0030864
        k(   22) = (   0.0000000   0.1666667   0.0000000), wk =   0.0030864
        k(   23) = (   0.0000000   0.1666667   0.0833333), wk =   0.0061728
        k(   24) = (   0.0000000   0.1666667   0.1666667), wk =   0.0061728
        k(   25) = (   0.0000000   0.1666667   0.2500000), wk =   0.0061728
        k(   26) = (   0.0000000   0.1666667   0.3333333), wk =   0.0061728
        k(   27) = (   0.0000000   0.1666667   0.4166667), wk =   0.0061728
        k(   28) = (   0.0000000   0.1666667  -0.5000000), wk =   0.0030864
        k(   29) = (   0.0000000   0.2222222   0.0000000), wk =   0.0030864
        k(   30) = (   0.0000000   0.2222222   0.0833333), wk =   0.0061728
        k(   31) = (   0.0000000   0.2222222   0.1666667), wk =   0.0061728
        k(   32) = (   0.0000000   0.2222222   0.2500000), wk =   0.0061728
        k(   33) = (   0.0000000   0.2222222   0.3333333), wk =   0.0061728
        k(   34) = (   0.0000000   0.2222222   0.4166667), wk =   0.0061728
        k(   35) = (   0.0000000   0.2222222  -0.5000000), wk =   0.0030864
        k(   36) = (   0.0000000   0.2777778   0.0000000), wk =   0.0030864
        k(   37) = (   0.0000000   0.2777778   0.0833333), wk =   0.0061728
        k(   38) = (   0.0000000   0.2777778   0.1666667), wk =   0.0061728
        k(   39) = (   0.0000000   0.2777778   0.2500000), wk =   0.0061728
        k(   40) = (   0.0000000   0.2777778   0.3333333), wk =   0.0061728
        k(   41) = (   0.0000000   0.2777778   0.4166667), wk =   0.0061728
        k(   42) = (   0.0000000   0.2777778  -0.5000000), wk =   0.0030864
        k(   43) = (   0.0000000   0.3333333   0.0000000), wk =   0.0030864
        k(   44) = (   0.0000000   0.3333333   0.0833333), wk =   0.0061728
        k(   45) = (   0.0000000   0.3333333   0.1666667), wk =   0.0061728
        k(   46) = (   0.0000000   0.3333333   0.2500000), wk =   0.0061728
        k(   47) = (   0.0000000   0.3333333   0.3333333), wk =   0.0061728
        k(   48) = (   0.0000000   0.3333333   0.4166667), wk =   0.0061728
        k(   49) = (   0.0000000   0.3333333  -0.5000000), wk =   0.0030864
        k(   50) = (   0.0000000   0.3888889   0.0000000), wk =   0.0030864
        k(   51) = (   0.0000000   0.3888889   0.0833333), wk =   0.0061728
        k(   52) = (   0.0000000   0.3888889   0.1666667), wk =   0.0061728
        k(   53) = (   0.0000000   0.3888889   0.2500000), wk =   0.0061728
        k(   54) = (   0.0000000   0.3888889   0.3333333), wk =   0.0061728
        k(   55) = (   0.0000000   0.3888889   0.4166667), wk =   0.0061728
        k(   56) = (   0.0000000   0.3888889  -0.5000000), wk =   0.0030864
        k(   57) = (   0.0000000   0.4444444   0.0000000), wk =   0.0030864
        k(   58) = (   0.0000000   0.4444444   0.0833333), wk =   0.0061728
        k(   59) = (   0.0000000   0.4444444   0.1666667), wk =   0.0061728
        k(   60) = (   0.0000000   0.4444444   0.2500000), wk =   0.0061728
        k(   61) = (   0.0000000   0.4444444   0.3333333), wk =   0.0061728
        k(   62) = (   0.0000000   0.4444444   0.4166667), wk =   0.0061728
        k(   63) = (   0.0000000   0.4444444  -0.5000000), wk =   0.0030864
        k(   64) = (   0.0000000  -0.5000000   0.0000000), wk =   0.0015432
        k(   65) = (   0.0000000  -0.5000000   0.0833333), wk =   0.0030864
        k(   66) = (   0.0000000  -0.5000000   0.1666667), wk =   0.0030864
        k(   67) = (   0.0000000  -0.5000000   0.2500000), wk =   0.0030864
        k(   68) = (   0.0000000  -0.5000000   0.3333333), wk =   0.0030864
        k(   69) = (   0.0000000  -0.5000000   0.4166667), wk =   0.0030864
        k(   70) = (   0.0000000  -0.5000000  -0.5000000), wk =   0.0015432
        k(   71) = (   0.0555556   0.0555556   0.0000000), wk =   0.0030864
        k(   72) = (   0.0555556   0.0555556   0.0833333), wk =   0.0061728
        k(   73) = (   0.0555556   0.0555556   0.1666667), wk =   0.0061728
        k(   74) = (   0.0555556   0.0555556   0.2500000), wk =   0.0061728
        k(   75) = (   0.0555556   0.0555556   0.3333333), wk =   0.0061728
        k(   76) = (   0.0555556   0.0555556   0.4166667), wk =   0.0061728
        k(   77) = (   0.0555556   0.0555556  -0.5000000), wk =   0.0030864
        k(   78) = (   0.0555556   0.1111111   0.0000000), wk =   0.0061728
        k(   79) = (   0.0555556   0.1111111   0.0833333), wk =   0.0123457
        k(   80) = (   0.0555556   0.1111111   0.1666667), wk =   0.0123457
        k(   81) = (   0.0555556   0.1111111   0.2500000), wk =   0.0123457
        k(   82) = (   0.0555556   0.1111111   0.3333333), wk =   0.0123457
        k(   83) = (   0.0555556   0.1111111   0.4166667), wk =   0.0123457
        k(   84) = (   0.0555556   0.1111111  -0.5000000), wk =   0.0061728
        k(   85) = (   0.0555556   0.1666667   0.0000000), wk =   0.0061728
        k(   86) = (   0.0555556   0.1666667   0.0833333), wk =   0.0123457
        k(   87) = (   0.0555556   0.1666667   0.1666667), wk =   0.0123457
        k(   88) = (   0.0555556   0.1666667   0.2500000), wk =   0.0123457
        k(   89) = (   0.0555556   0.1666667   0.3333333), wk =   0.0123457
        k(   90) = (   0.0555556   0.1666667   0.4166667), wk =   0.0123457
        k(   91) = (   0.0555556   0.1666667  -0.5000000), wk =   0.0061728
        k(   92) = (   0.0555556   0.2222222   0.0000000), wk =   0.0061728
        k(   93) = (   0.0555556   0.2222222   0.0833333), wk =   0.0123457
        k(   94) = (   0.0555556   0.2222222   0.1666667), wk =   0.0123457
        k(   95) = (   0.0555556   0.2222222   0.2500000), wk =   0.0123457
        k(   96) = (   0.0555556   0.2222222   0.3333333), wk =   0.0123457
        k(   97) = (   0.0555556   0.2222222   0.4166667), wk =   0.0123457
        k(   98) = (   0.0555556   0.2222222  -0.5000000), wk =   0.0061728
        k(   99) = (   0.0555556   0.2777778   0.0000000), wk =   0.0061728
        k(  100) = (   0.0555556   0.2777778   0.0833333), wk =   0.0123457
        k(  101) = (   0.0555556   0.2777778   0.1666667), wk =   0.0123457
        k(  102) = (   0.0555556   0.2777778   0.2500000), wk =   0.0123457
        k(  103) = (   0.0555556   0.2777778   0.3333333), wk =   0.0123457
        k(  104) = (   0.0555556   0.2777778   0.4166667), wk =   0.0123457
        k(  105) = (   0.0555556   0.2777778  -0.5000000), wk =   0.0061728
        k(  106) = (   0.0555556   0.3333333   0.0000000), wk =   0.0061728
        k(  107) = (   0.0555556   0.3333333   0.0833333), wk =   0.0123457
        k(  108) = (   0.0555556   0.3333333   0.1666667), wk =   0.0123457
        k(  109) = (   0.0555556   0.3333333   0.2500000), wk =   0.0123457
        k(  110) = (   0.0555556   0.3333333   0.3333333), wk =   0.0123457
        k(  111) = (   0.0555556   0.3333333   0.4166667), wk =   0.0123457
        k(  112) = (   0.0555556   0.3333333  -0.5000000), wk =   0.0061728
        k(  113) = (   0.0555556   0.3888889   0.0000000), wk =   0.0061728
        k(  114) = (   0.0555556   0.3888889   0.0833333), wk =   0.0123457
        k(  115) = (   0.0555556   0.3888889   0.1666667), wk =   0.0123457
        k(  116) = (   0.0555556   0.3888889   0.2500000), wk =   0.0123457
        k(  117) = (   0.0555556   0.3888889   0.3333333), wk =   0.0123457
        k(  118) = (   0.0555556   0.3888889   0.4166667), wk =   0.0123457
        k(  119) = (   0.0555556   0.3888889  -0.5000000), wk =   0.0061728
        k(  120) = (   0.0555556   0.4444444   0.0000000), wk =   0.0061728
        k(  121) = (   0.0555556   0.4444444   0.0833333), wk =   0.0123457
        k(  122) = (   0.0555556   0.4444444   0.1666667), wk =   0.0123457
        k(  123) = (   0.0555556   0.4444444   0.2500000), wk =   0.0123457
        k(  124) = (   0.0555556   0.4444444   0.3333333), wk =   0.0123457
        k(  125) = (   0.0555556   0.4444444   0.4166667), wk =   0.0123457
        k(  126) = (   0.0555556   0.4444444  -0.5000000), wk =   0.0061728
        k(  127) = (   0.1111111   0.1111111   0.0000000), wk =   0.0030864
        k(  128) = (   0.1111111   0.1111111   0.0833333), wk =   0.0061728
        k(  129) = (   0.1111111   0.1111111   0.1666667), wk =   0.0061728
        k(  130) = (   0.1111111   0.1111111   0.2500000), wk =   0.0061728
        k(  131) = (   0.1111111   0.1111111   0.3333333), wk =   0.0061728
        k(  132) = (   0.1111111   0.1111111   0.4166667), wk =   0.0061728
        k(  133) = (   0.1111111   0.1111111  -0.5000000), wk =   0.0030864
        k(  134) = (   0.1111111   0.1666667   0.0000000), wk =   0.0061728
        k(  135) = (   0.1111111   0.1666667   0.0833333), wk =   0.0123457
        k(  136) = (   0.1111111   0.1666667   0.1666667), wk =   0.0123457
        k(  137) = (   0.1111111   0.1666667   0.2500000), wk =   0.0123457
        k(  138) = (   0.1111111   0.1666667   0.3333333), wk =   0.0123457
        k(  139) = (   0.1111111   0.1666667   0.4166667), wk =   0.0123457
        k(  140) = (   0.1111111   0.1666667  -0.5000000), wk =   0.0061728
        k(  141) = (   0.1111111   0.2222222   0.0000000), wk =   0.0061728
        k(  142) = (   0.1111111   0.2222222   0.0833333), wk =   0.0123457
        k(  143) = (   0.1111111   0.2222222   0.1666667), wk =   0.0123457
        k(  144) = (   0.1111111   0.2222222   0.2500000), wk =   0.0123457
        k(  145) = (   0.1111111   0.2222222   0.3333333), wk =   0.0123457
        k(  146) = (   0.1111111   0.2222222   0.4166667), wk =   0.0123457
        k(  147) = (   0.1111111   0.2222222  -0.5000000), wk =   0.0061728
        k(  148) = (   0.1111111   0.2777778   0.0000000), wk =   0.0061728
        k(  149) = (   0.1111111   0.2777778   0.0833333), wk =   0.0123457
        k(  150) = (   0.1111111   0.2777778   0.1666667), wk =   0.0123457
        k(  151) = (   0.1111111   0.2777778   0.2500000), wk =   0.0123457
        k(  152) = (   0.1111111   0.2777778   0.3333333), wk =   0.0123457
        k(  153) = (   0.1111111   0.2777778   0.4166667), wk =   0.0123457
        k(  154) = (   0.1111111   0.2777778  -0.5000000), wk =   0.0061728
        k(  155) = (   0.1111111   0.3333333   0.0000000), wk =   0.0061728
        k(  156) = (   0.1111111   0.3333333   0.0833333), wk =   0.0123457
        k(  157) = (   0.1111111   0.3333333   0.1666667), wk =   0.0123457
        k(  158) = (   0.1111111   0.3333333   0.2500000), wk =   0.0123457
        k(  159) = (   0.1111111   0.3333333   0.3333333), wk =   0.0123457
        k(  160) = (   0.1111111   0.3333333   0.4166667), wk =   0.0123457
        k(  161) = (   0.1111111   0.3333333  -0.5000000), wk =   0.0061728
        k(  162) = (   0.1111111   0.3888889   0.0000000), wk =   0.0061728
        k(  163) = (   0.1111111   0.3888889   0.0833333), wk =   0.0123457
        k(  164) = (   0.1111111   0.3888889   0.1666667), wk =   0.0123457
        k(  165) = (   0.1111111   0.3888889   0.2500000), wk =   0.0123457
        k(  166) = (   0.1111111   0.3888889   0.3333333), wk =   0.0123457
        k(  167) = (   0.1111111   0.3888889   0.4166667), wk =   0.0123457
        k(  168) = (   0.1111111   0.3888889  -0.5000000), wk =   0.0061728
        k(  169) = (   0.1111111   0.4444444   0.0000000), wk =   0.0030864
        k(  170) = (   0.1111111   0.4444444   0.0833333), wk =   0.0061728
        k(  171) = (   0.1111111   0.4444444   0.1666667), wk =   0.0061728
        k(  172) = (   0.1111111   0.4444444   0.2500000), wk =   0.0061728
        k(  173) = (   0.1111111   0.4444444   0.3333333), wk =   0.0061728
        k(  174) = (   0.1111111   0.4444444   0.4166667), wk =   0.0061728
        k(  175) = (   0.1111111   0.4444444  -0.5000000), wk =   0.0030864
        k(  176) = (   0.1666667   0.1666667   0.0000000), wk =   0.0030864
        k(  177) = (   0.1666667   0.1666667   0.0833333), wk =   0.0061728
        k(  178) = (   0.1666667   0.1666667   0.1666667), wk =   0.0061728
        k(  179) = (   0.1666667   0.1666667   0.2500000), wk =   0.0061728
        k(  180) = (   0.1666667   0.1666667   0.3333333), wk =   0.0061728
        k(  181) = (   0.1666667   0.1666667   0.4166667), wk =   0.0061728
        k(  182) = (   0.1666667   0.1666667  -0.5000000), wk =   0.0030864
        k(  183) = (   0.1666667   0.2222222   0.0000000), wk =   0.0061728
        k(  184) = (   0.1666667   0.2222222   0.0833333), wk =   0.0123457
        k(  185) = (   0.1666667   0.2222222   0.1666667), wk =   0.0123457
        k(  186) = (   0.1666667   0.2222222   0.2500000), wk =   0.0123457
        k(  187) = (   0.1666667   0.2222222   0.3333333), wk =   0.0123457
        k(  188) = (   0.1666667   0.2222222   0.4166667), wk =   0.0123457
        k(  189) = (   0.1666667   0.2222222  -0.5000000), wk =   0.0061728
        k(  190) = (   0.1666667   0.2777778   0.0000000), wk =   0.0061728
        k(  191) = (   0.1666667   0.2777778   0.0833333), wk =   0.0123457
        k(  192) = (   0.1666667   0.2777778   0.1666667), wk =   0.0123457
        k(  193) = (   0.1666667   0.2777778   0.2500000), wk =   0.0123457
        k(  194) = (   0.1666667   0.2777778   0.3333333), wk =   0.0123457
        k(  195) = (   0.1666667   0.2777778   0.4166667), wk =   0.0123457
        k(  196) = (   0.1666667   0.2777778  -0.5000000), wk =   0.0061728
        k(  197) = (   0.1666667   0.3333333   0.0000000), wk =   0.0061728
        k(  198) = (   0.1666667   0.3333333   0.0833333), wk =   0.0123457
        k(  199) = (   0.1666667   0.3333333   0.1666667), wk =   0.0123457
        k(  200) = (   0.1666667   0.3333333   0.2500000), wk =   0.0123457
        k(  201) = (   0.1666667   0.3333333   0.3333333), wk =   0.0123457
        k(  202) = (   0.1666667   0.3333333   0.4166667), wk =   0.0123457
        k(  203) = (   0.1666667   0.3333333  -0.5000000), wk =   0.0061728
        k(  204) = (   0.1666667   0.3888889   0.0000000), wk =   0.0061728
        k(  205) = (   0.1666667   0.3888889   0.0833333), wk =   0.0123457
        k(  206) = (   0.1666667   0.3888889   0.1666667), wk =   0.0123457
        k(  207) = (   0.1666667   0.3888889   0.2500000), wk =   0.0123457
        k(  208) = (   0.1666667   0.3888889   0.3333333), wk =   0.0123457
        k(  209) = (   0.1666667   0.3888889   0.4166667), wk =   0.0123457
        k(  210) = (   0.1666667   0.3888889  -0.5000000), wk =   0.0061728
        k(  211) = (   0.2222222   0.2222222   0.0000000), wk =   0.0030864
        k(  212) = (   0.2222222   0.2222222   0.0833333), wk =   0.0061728
        k(  213) = (   0.2222222   0.2222222   0.1666667), wk =   0.0061728
        k(  214) = (   0.2222222   0.2222222   0.2500000), wk =   0.0061728
        k(  215) = (   0.2222222   0.2222222   0.3333333), wk =   0.0061728
        k(  216) = (   0.2222222   0.2222222   0.4166667), wk =   0.0061728
        k(  217) = (   0.2222222   0.2222222  -0.5000000), wk =   0.0030864
        k(  218) = (   0.2222222   0.2777778   0.0000000), wk =   0.0061728
        k(  219) = (   0.2222222   0.2777778   0.0833333), wk =   0.0123457
        k(  220) = (   0.2222222   0.2777778   0.1666667), wk =   0.0123457
        k(  221) = (   0.2222222   0.2777778   0.2500000), wk =   0.0123457
        k(  222) = (   0.2222222   0.2777778   0.3333333), wk =   0.0123457
        k(  223) = (   0.2222222   0.2777778   0.4166667), wk =   0.0123457
        k(  224) = (   0.2222222   0.2777778  -0.5000000), wk =   0.0061728
        k(  225) = (   0.2222222   0.3333333   0.0000000), wk =   0.0061728
        k(  226) = (   0.2222222   0.3333333   0.0833333), wk =   0.0123457
        k(  227) = (   0.2222222   0.3333333   0.1666667), wk =   0.0123457
        k(  228) = (   0.2222222   0.3333333   0.2500000), wk =   0.0123457
        k(  229) = (   0.2222222   0.3333333   0.3333333), wk =   0.0123457
        k(  230) = (   0.2222222   0.3333333   0.4166667), wk =   0.0123457
        k(  231) = (   0.2222222   0.3333333  -0.5000000), wk =   0.0061728
        k(  232) = (   0.2222222   0.3888889   0.0000000), wk =   0.0030864
        k(  233) = (   0.2222222   0.3888889   0.0833333), wk =   0.0061728
        k(  234) = (   0.2222222   0.3888889   0.1666667), wk =   0.0061728
        k(  235) = (   0.2222222   0.3888889   0.2500000), wk =   0.0061728
        k(  236) = (   0.2222222   0.3888889   0.3333333), wk =   0.0061728
        k(  237) = (   0.2222222   0.3888889   0.4166667), wk =   0.0061728
        k(  238) = (   0.2222222   0.3888889  -0.5000000), wk =   0.0030864
        k(  239) = (   0.2777778   0.2777778   0.0000000), wk =   0.0030864
        k(  240) = (   0.2777778   0.2777778   0.0833333), wk =   0.0061728
        k(  241) = (   0.2777778   0.2777778   0.1666667), wk =   0.0061728
        k(  242) = (   0.2777778   0.2777778   0.2500000), wk =   0.0061728
        k(  243) = (   0.2777778   0.2777778   0.3333333), wk =   0.0061728
        k(  244) = (   0.2777778   0.2777778   0.4166667), wk =   0.0061728
        k(  245) = (   0.2777778   0.2777778  -0.5000000), wk =   0.0030864
        k(  246) = (   0.2777778   0.3333333   0.0000000), wk =   0.0061728
        k(  247) = (   0.2777778   0.3333333   0.0833333), wk =   0.0123457
        k(  248) = (   0.2777778   0.3333333   0.1666667), wk =   0.0123457
        k(  249) = (   0.2777778   0.3333333   0.2500000), wk =   0.0123457
        k(  250) = (   0.2777778   0.3333333   0.3333333), wk =   0.0123457
        k(  251) = (   0.2777778   0.3333333   0.4166667), wk =   0.0123457
        k(  252) = (   0.2777778   0.3333333  -0.5000000), wk =   0.0061728
        k(  253) = (   0.3333333   0.3333333   0.0000000), wk =   0.0010288
        k(  254) = (   0.3333333   0.3333333   0.0833333), wk =   0.0020576
        k(  255) = (   0.3333333   0.3333333   0.1666667), wk =   0.0020576
        k(  256) = (   0.3333333   0.3333333   0.2500000), wk =   0.0020576
        k(  257) = (   0.3333333   0.3333333   0.3333333), wk =   0.0020576
        k(  258) = (   0.3333333   0.3333333   0.4166667), wk =   0.0020576
        k(  259) = (   0.3333333   0.3333333  -0.5000000), wk =   0.0010288

     Dense  grid:   796925 G-vectors     FFT dimensions: ( 100, 100, 180)

     Smooth grid:   201905 G-vectors     FFT dimensions: (  64,  64, 120)

     Dynamical RAM for                 wfc:       0.42 MB

     Dynamical RAM for     wfc (w. buffer):     109.97 MB

     Dynamical RAM for           str. fact:       0.91 MB

     Dynamical RAM for           local pot:       0.00 MB

     Dynamical RAM for          nlocal pot:       1.70 MB

     Dynamical RAM for                qrad:      21.66 MB

     Dynamical RAM for          rho,v,vnew:       2.06 MB

     Dynamical RAM for               rhoin:       0.69 MB

     Dynamical RAM for            rho*nmix:       4.86 MB

     Dynamical RAM for           G-vectors:       1.18 MB

     Dynamical RAM for          h,s,v(r/c):       0.09 MB

     Dynamical RAM for          <psi|beta>:       0.12 MB

     Dynamical RAM for      wfcinit/wfcrot:       1.13 MB

     Dynamical RAM for           addusdens:     180.26 MB

     Estimated static dynamical RAM per process >     146.15 MB

     Estimated max dynamical RAM per process >     326.42 MB

     Estimated total dynamical RAM >      12.75 GB

     Initial potential from superposition of free atoms

     starting charge   72.95453, renormalised to   73.00000
     Starting wfcs are   55 randomized atomic wfcs
     Checking if some PAW data can be deallocated... 
       PAW data deallocated on   35 nodes for type:  1
       PAW data deallocated on   25 nodes for type:  2
       PAW data deallocated on   20 nodes for type:  3

     total cpu time spent up to now is       12.6 secs

     Self-consistent Calculation

     iteration #  1     ecut=    90.00 Ry     beta= 0.70
     CG style diagonalization
     ethr =  1.00E-02,  avg # of iterations =  2.1

     total cpu time spent up to now is       56.6 secs

     total energy              =   -2792.40452418 Ry
     estimated scf accuracy    <       4.32513925 Ry

     iteration #  2     ecut=    90.00 Ry     beta= 0.70
     CG style diagonalization
     c_bands:  1 eigenvalues not converged
     c_bands:  3 eigenvalues not converged
     c_bands:  1 eigenvalues not converged
     c_bands:  1 eigenvalues not converged
     c_bands:  2 eigenvalues not converged
     c_bands:  2 eigenvalues not converged
     c_bands:  1 eigenvalues not converged
     c_bands:  1 eigenvalues not converged
     c_bands:  1 eigenvalues not converged
     c_bands:  1 eigenvalues not converged
     c_bands:  1 eigenvalues not converged
     c_bands:  1 eigenvalues not converged
     c_bands:  1 eigenvalues not converged
     c_bands:  1 eigenvalues not converged
     c_bands:  1 eigenvalues not converged
     c_bands:  1 eigenvalues not converged
     c_bands:  1 eigenvalues not converged
     c_bands:  1 eigenvalues not converged
     c_bands:  1 eigenvalues not converged
     c_bands:  1 eigenvalues not converged
     c_bands:  1 eigenvalues not converged
     c_bands:  1 eigenvalues not converged
     c_bands:  1 eigenvalues not converged
     c_bands:  2 eigenvalues not converged
     c_bands:  1 eigenvalues not converged
     c_bands:  1 eigenvalues not converged
     c_bands:  1 eigenvalues not converged
     c_bands:  1 eigenvalues not converged
     c_bands:  1 eigenvalues not converged
     c_bands:  1 eigenvalues not converged
     c_bands:  1 eigenvalues not converged
     c_bands:  1 eigenvalues not converged
     ethr =  5.92E-03,  avg # of iterations =  6.6

     total cpu time spent up to now is      173.8 secs

     total energy              =   -2791.12101889 Ry
     estimated scf accuracy    <      78.15042056 Ry

     iteration #  3     ecut=    90.00 Ry     beta= 0.70
     CG style diagonalization
     c_bands:  1 eigenvalues not converged
     c_bands:  1 eigenvalues not converged
     c_bands:  1 eigenvalues not converged
     c_bands:  1 eigenvalues not converged
     c_bands:  1 eigenvalues not converged
     c_bands:  1 eigenvalues not converged
     c_bands:  1 eigenvalues not converged
     c_bands:  1 eigenvalues not converged
     c_bands:  2 eigenvalues not converged
     ethr =  5.92E-03,  avg # of iterations =  4.8

     total cpu time spent up to now is      258.1 secs

     total energy              =   -2793.64225011 Ry
     estimated scf accuracy    <      19.24647618 Ry

     iteration #  4     ecut=    90.00 Ry     beta= 0.70
     CG style diagonalization
     c_bands:  1 eigenvalues not converged
     ethr =  5.92E-03,  avg # of iterations =  4.0

     total cpu time spent up to now is      324.5 secs

     total energy              =   -2794.87484859 Ry
     estimated scf accuracy    <       6.52554090 Ry

     iteration #  5     ecut=    90.00 Ry     beta= 0.70
     CG style diagonalization
     ethr =  5.92E-03,  avg # of iterations =  3.2

     total cpu time spent up to now is      375.9 secs

     total energy              =   -2795.19660018 Ry
     estimated scf accuracy    <       5.04220171 Ry

     iteration #  6     ecut=    90.00 Ry     beta= 0.70
     CG style diagonalization
     ethr =  5.92E-03,  avg # of iterations =  3.0

     negative rho (up, down):  1.075E-05 0.000E+00

     total cpu time spent up to now is      424.4 secs

     total energy              =   -2794.33143274 Ry
     estimated scf accuracy    <       4.52817995 Ry

     iteration #  7     ecut=    90.00 Ry     beta= 0.70
     CG style diagonalization
     ethr =  5.92E-03,  avg # of iterations =  3.3

     negative rho (up, down):  3.451E-05 0.000E+00

     total cpu time spent up to now is      478.1 secs

     total energy              =   -2794.95302181 Ry
     estimated scf accuracy    <       2.72338122 Ry

     iteration #  8     ecut=    90.00 Ry     beta= 0.70
     CG style diagonalization
     c_bands:  1 eigenvalues not converged
     ethr =  3.73E-03,  avg # of iterations =  4.1

     total cpu time spent up to now is      546.9 secs

     total energy              =   -2795.94901609 Ry
     estimated scf accuracy    <       1.65871937 Ry

     iteration #  9     ecut=    90.00 Ry     beta= 0.70
     CG style diagonalization
     c_bands:  1 eigenvalues not converged
     c_bands:  1 eigenvalues not converged
     c_bands:  1 eigenvalues not converged
     ethr =  2.27E-03,  avg # of iterations =  3.7

     total cpu time spent up to now is      608.7 secs

     total energy              =   -2795.78076914 Ry
     estimated scf accuracy    <       1.48203337 Ry

     iteration # 10     ecut=    90.00 Ry     beta= 0.70
     CG style diagonalization
     c_bands:  1 eigenvalues not converged
     c_bands:  1 eigenvalues not converged
     c_bands:  1 eigenvalues not converged
     ethr =  2.03E-03,  avg # of iterations =  3.4

     total cpu time spent up to now is      665.0 secs

     total energy              =   -2796.07411692 Ry
     estimated scf accuracy    <       0.42299272 Ry

     iteration # 11     ecut=    90.00 Ry     beta= 0.70
     CG style diagonalization
     c_bands:  1 eigenvalues not converged
     c_bands:  2 eigenvalues not converged
     c_bands:  1 eigenvalues not converged
     c_bands:  1 eigenvalues not converged
     c_bands:  1 eigenvalues not converged
     c_bands:  1 eigenvalues not converged
     c_bands:  2 eigenvalues not converged
     c_bands:  1 eigenvalues not converged
     c_bands:  1 eigenvalues not converged
     c_bands:  2 eigenvalues not converged
     c_bands:  1 eigenvalues not converged
     c_bands:  1 eigenvalues not converged
     c_bands:  1 eigenvalues not converged
     c_bands:  1 eigenvalues not converged
     c_bands:  1 eigenvalues not converged
     c_bands:  1 eigenvalues not converged
     c_bands:  1 eigenvalues not converged
     c_bands:  1 eigenvalues not converged
     c_bands:  1 eigenvalues not converged
     c_bands:  1 eigenvalues not converged
     c_bands:  1 eigenvalues not converged
     c_bands:  1 eigenvalues not converged
     c_bands:  1 eigenvalues not converged
     c_bands:  1 eigenvalues not converged
     c_bands:  1 eigenvalues not converged
     c_bands:  1 eigenvalues not converged
     c_bands:  1 eigenvalues not converged
     c_bands:  1 eigenvalues not converged
     c_bands:  1 eigenvalues not converged
     c_bands:  1 eigenvalues not converged
     c_bands:  1 eigenvalues not converged
     c_bands:  1 eigenvalues not converged
     c_bands:  1 eigenvalues not converged
     c_bands:  1 eigenvalues not converged
     c_bands:  1 eigenvalues not converged
     c_bands:  1 eigenvalues not converged
     c_bands:  1 eigenvalues not converged
     c_bands:  1 eigenvalues not converged
     c_bands:  1 eigenvalues not converged
     c_bands:  1 eigenvalues not converged
     c_bands:  2 eigenvalues not converged
     c_bands:  1 eigenvalues not converged
     c_bands:  1 eigenvalues not converged
     c_bands:  1 eigenvalues not converged
     c_bands:  1 eigenvalues not converged
     c_bands:  1 eigenvalues not converged
     c_bands:  1 eigenvalues not converged
     c_bands:  2 eigenvalues not converged
     c_bands:  1 eigenvalues not converged
     c_bands:  1 eigenvalues not converged
     c_bands:  1 eigenvalues not converged
     c_bands:  2 eigenvalues not converged
     c_bands:  1 eigenvalues not converged
     c_bands:  1 eigenvalues not converged
     c_bands:  2 eigenvalues not converged
     c_bands:  1 eigenvalues not converged
     c_bands:  1 eigenvalues not converged
     c_bands:  1 eigenvalues not converged
     c_bands:  1 eigenvalues not converged
     c_bands:  1 eigenvalues not converged
     c_bands:  1 eigenvalues not converged
     c_bands:  1 eigenvalues not converged
     c_bands:  1 eigenvalues not converged
     c_bands:  2 eigenvalues not converged
     c_bands:  1 eigenvalues not converged
     c_bands:  1 eigenvalues not converged
     c_bands:  1 eigenvalues not converged
     c_bands:  1 eigenvalues not converged
     c_bands:  1 eigenvalues not converged
     ethr =  5.79E-04,  avg # of iterations =  4.7

     total cpu time spent up to now is      746.6 secs

     total energy              =   -2796.31665134 Ry
     estimated scf accuracy    <       0.54608287 Ry

     iteration # 12     ecut=    90.00 Ry     beta= 0.70
     CG style diagonalization
     c_bands:  1 eigenvalues not converged
     c_bands:  1 eigenvalues not converged
     c_bands:  1 eigenvalues not converged
     c_bands:  1 eigenvalues not converged
     c_bands:  2 eigenvalues not converged
     c_bands:  1 eigenvalues not converged
     c_bands:  1 eigenvalues not converged
     c_bands:  1 eigenvalues not converged
     c_bands:  2 eigenvalues not converged
     c_bands:  1 eigenvalues not converged
     c_bands:  1 eigenvalues not converged
     c_bands:  1 eigenvalues not converged
     c_bands:  1 eigenvalues not converged
     c_bands:  2 eigenvalues not converged
     c_bands:  2 eigenvalues not converged
     c_bands:  1 eigenvalues not converged
     c_bands:  1 eigenvalues not converged
     c_bands:  3 eigenvalues not converged
     c_bands:  1 eigenvalues not converged
     c_bands:  3 eigenvalues not converged
     c_bands:  1 eigenvalues not converged
     c_bands:  1 eigenvalues not converged
     c_bands:  1 eigenvalues not converged
     c_bands:  1 eigenvalues not converged
     c_bands:  1 eigenvalues not converged
     c_bands:  1 eigenvalues not converged
     c_bands:  1 eigenvalues not converged
     c_bands:  1 eigenvalues not converged
     c_bands:  1 eigenvalues not converged
     c_bands:  1 eigenvalues not converged
     c_bands:  1 eigenvalues not converged
     c_bands:  1 eigenvalues not converged
     c_bands:  2 eigenvalues not converged
     c_bands:  1 eigenvalues not converged
     c_bands:  2 eigenvalues not converged
     c_bands:  1 eigenvalues not converged
     c_bands:  1 eigenvalues not converged
     c_bands:  2 eigenvalues not converged
     c_bands:  1 eigenvalues not converged
     c_bands:  1 eigenvalues not converged
     ethr =  5.79E-04,  avg # of iterations =  4.2

     total cpu time spent up to now is      818.3 secs

     total energy              =   -2796.22950521 Ry
     estimated scf accuracy    <       0.97313073 Ry

     iteration # 13     ecut=    90.00 Ry     beta= 0.70
     CG style diagonalization
     c_bands:  1 eigenvalues not converged
     c_bands:  1 eigenvalues not converged
     c_bands:  1 eigenvalues not converged
     c_bands:  1 eigenvalues not converged
     c_bands:  1 eigenvalues not converged
     c_bands:  1 eigenvalues not converged
     c_bands:  1 eigenvalues not converged
     c_bands:  1 eigenvalues not converged
     c_bands:  1 eigenvalues not converged
     c_bands:  1 eigenvalues not converged
     c_bands:  1 eigenvalues not converged
     c_bands:  1 eigenvalues not converged
     ethr =  5.79E-04,  avg # of iterations =  3.6

     total cpu time spent up to now is      878.1 secs

     total energy              =   -2796.35391071 Ry
     estimated scf accuracy    <       0.74221921 Ry

     iteration # 14     ecut=    90.00 Ry     beta= 0.70
     CG style diagonalization
     c_bands:  1 eigenvalues not converged
     c_bands:  1 eigenvalues not converged
     c_bands:  1 eigenvalues not converged
     ethr =  5.79E-04,  avg # of iterations =  3.5

     total cpu time spent up to now is      936.0 secs

     total energy              =   -2796.66506008 Ry
     estimated scf accuracy    <       1.22771502 Ry

     iteration # 15     ecut=    90.00 Ry     beta= 0.70
     CG style diagonalization
     c_bands:  1 eigenvalues not converged
     c_bands:  1 eigenvalues not converged
     c_bands:  1 eigenvalues not converged
     c_bands:  1 eigenvalues not converged
     c_bands:  1 eigenvalues not converged
     ethr =  5.79E-04,  avg # of iterations =  3.6

     total cpu time spent up to now is      994.8 secs

     total energy              =   -2796.70119062 Ry
     estimated scf accuracy    <       4.32597032 Ry

     iteration # 16     ecut=    90.00 Ry     beta= 0.70
     CG style diagonalization
     c_bands:  1 eigenvalues not converged
     c_bands:  1 eigenvalues not converged
     ethr =  5.79E-04,  avg # of iterations =  3.5

     total cpu time spent up to now is     1052.6 secs

     total energy              =   -2796.59089382 Ry
     estimated scf accuracy    <       4.55747443 Ry

     iteration # 17     ecut=    90.00 Ry     beta= 0.70
     CG style diagonalization
     ethr =  5.79E-04,  avg # of iterations =  3.0

     total cpu time spent up to now is     1101.8 secs

     total energy              =   -2796.12043150 Ry
     estimated scf accuracy    <       3.26999179 Ry

     iteration # 18     ecut=    90.00 Ry     beta= 0.70
     CG style diagonalization
     ethr =  5.79E-04,  avg # of iterations =  3.3

     total cpu time spent up to now is     1155.4 secs

     total energy              =   -2796.20891867 Ry
     estimated scf accuracy    <       0.33736854 Ry

     iteration # 19     ecut=    90.00 Ry     beta= 0.70
     CG style diagonalization
     ethr =  4.62E-04,  avg # of iterations =  3.9

     total cpu time spent up to now is     1221.0 secs

     total energy              =   -2796.30729635 Ry
     estimated scf accuracy    <       0.05569349 Ry

     iteration # 20     ecut=    90.00 Ry     beta= 0.70
     CG style diagonalization
     c_bands:  2 eigenvalues not converged
     c_bands:  1 eigenvalues not converged
     c_bands:  1 eigenvalues not converged
     c_bands:  2 eigenvalues not converged
     c_bands:  1 eigenvalues not converged
     c_bands:  2 eigenvalues not converged
     c_bands:  1 eigenvalues not converged
     c_bands:  2 eigenvalues not converged
     c_bands:  1 eigenvalues not converged
     c_bands:  1 eigenvalues not converged
     c_bands:  2 eigenvalues not converged
     c_bands:  1 eigenvalues not converged
     c_bands:  2 eigenvalues not converged
     c_bands:  1 eigenvalues not converged
     c_bands:  1 eigenvalues not converged
     c_bands:  1 eigenvalues not converged
     c_bands:  1 eigenvalues not converged
     c_bands:  1 eigenvalues not converged
     c_bands:  1 eigenvalues not converged
     c_bands:  2 eigenvalues not converged
     c_bands:  1 eigenvalues not converged
     c_bands:  1 eigenvalues not converged
     c_bands:  1 eigenvalues not converged
     c_bands:  3 eigenvalues not converged
     c_bands:  1 eigenvalues not converged
     c_bands:  1 eigenvalues not converged
     c_bands:  1 eigenvalues not converged
     c_bands:  1 eigenvalues not converged
     c_bands:  1 eigenvalues not converged
     c_bands:  1 eigenvalues not converged
     c_bands:  1 eigenvalues not converged
     c_bands:  1 eigenvalues not converged
     c_bands:  1 eigenvalues not converged
     c_bands:  2 eigenvalues not converged
     c_bands:  1 eigenvalues not converged
     c_bands:  1 eigenvalues not converged
     c_bands:  2 eigenvalues not converged
     c_bands:  1 eigenvalues not converged
     c_bands:  1 eigenvalues not converged
     c_bands:  1 eigenvalues not converged
     c_bands:  1 eigenvalues not converged
     c_bands:  1 eigenvalues not converged
     c_bands:  3 eigenvalues not converged
     c_bands:  1 eigenvalues not converged
     c_bands:  1 eigenvalues not converged
     c_bands:  1 eigenvalues not converged
     c_bands:  1 eigenvalues not converged
     c_bands:  1 eigenvalues not converged
     c_bands:  1 eigenvalues not converged
     c_bands:  1 eigenvalues not converged
     c_bands:  1 eigenvalues not converged
     c_bands:  1 eigenvalues not converged
     ethr =  7.63E-05,  avg # of iterations =  5.7

     total cpu time spent up to now is     1322.0 secs

     total energy              =   -2796.31648879 Ry
     estimated scf accuracy    <       0.20415077 Ry

     iteration # 21     ecut=    90.00 Ry     beta= 0.70
     CG style diagonalization
     c_bands:  3 eigenvalues not converged
     c_bands:  1 eigenvalues not converged
     c_bands:  2 eigenvalues not converged
     c_bands:  1 eigenvalues not converged
     c_bands:  1 eigenvalues not converged
     c_bands:  1 eigenvalues not converged
     c_bands:  1 eigenvalues not converged
     c_bands:  1 eigenvalues not converged
     c_bands:  1 eigenvalues not converged
     c_bands:  3 eigenvalues not converged
     c_bands:  1 eigenvalues not converged
     c_bands:  1 eigenvalues not converged
     c_bands:  1 eigenvalues not converged
     c_bands:  2 eigenvalues not converged
     c_bands:  1 eigenvalues not converged
     c_bands:  1 eigenvalues not converged
     c_bands:  1 eigenvalues not converged
     c_bands:  1 eigenvalues not converged
     c_bands:  1 eigenvalues not converged
     c_bands:  1 eigenvalues not converged
     c_bands:  1 eigenvalues not converged
     c_bands:  1 eigenvalues not converged
     c_bands:  1 eigenvalues not converged
     c_bands:  1 eigenvalues not converged
     c_bands:  1 eigenvalues not converged
     c_bands:  1 eigenvalues not converged
     c_bands:  1 eigenvalues not converged
     c_bands:  2 eigenvalues not converged
     c_bands:  1 eigenvalues not converged
     c_bands:  1 eigenvalues not converged
     c_bands:  1 eigenvalues not converged
     c_bands:  1 eigenvalues not converged
     c_bands:  1 eigenvalues not converged
     c_bands:  1 eigenvalues not converged
     c_bands:  1 eigenvalues not converged
     c_bands:  1 eigenvalues not converged
     c_bands:  1 eigenvalues not converged
     c_bands:  1 eigenvalues not converged
     c_bands:  1 eigenvalues not converged
     c_bands:  1 eigenvalues not converged
     c_bands:  1 eigenvalues not converged
     c_bands:  1 eigenvalues not converged
     c_bands:  1 eigenvalues not converged
     c_bands:  1 eigenvalues not converged
     c_bands:  2 eigenvalues not converged
     c_bands:  1 eigenvalues not converged
     c_bands:  1 eigenvalues not converged
     c_bands:  1 eigenvalues not converged
     c_bands:  1 eigenvalues not converged
     c_bands:  1 eigenvalues not converged
     c_bands:  2 eigenvalues not converged
     c_bands:  1 eigenvalues not converged
     c_bands:  1 eigenvalues not converged
     c_bands:  1 eigenvalues not converged
     c_bands:  1 eigenvalues not converged
     c_bands:  1 eigenvalues not converged
     c_bands:  1 eigenvalues not converged
     c_bands:  1 eigenvalues not converged
     ethr =  7.63E-05,  avg # of iterations =  4.6

     total cpu time spent up to now is     1402.5 secs

     total energy              =   -2796.35980735 Ry
     estimated scf accuracy    <       0.11137892 Ry

     iteration # 22     ecut=    90.00 Ry     beta= 0.70
     CG style diagonalization
     c_bands:  1 eigenvalues not converged
     c_bands:  1 eigenvalues not converged
     c_bands:  1 eigenvalues not converged
     c_bands:  1 eigenvalues not converged
     c_bands:  1 eigenvalues not converged
     c_bands:  1 eigenvalues not converged
     c_bands:  1 eigenvalues not converged
     c_bands:  1 eigenvalues not converged
     c_bands:  1 eigenvalues not converged
     c_bands:  1 eigenvalues not converged
     c_bands:  2 eigenvalues not converged
     c_bands:  1 eigenvalues not converged
     c_bands:  1 eigenvalues not converged
     c_bands:  1 eigenvalues not converged
     c_bands:  1 eigenvalues not converged
     c_bands:  1 eigenvalues not converged
     c_bands:  1 eigenvalues not converged
     c_bands:  1 eigenvalues not converged
     c_bands:  1 eigenvalues not converged
     c_bands:  1 eigenvalues not converged
     c_bands:  1 eigenvalues not converged
     c_bands:  1 eigenvalues not converged
     ethr =  7.63E-05,  avg # of iterations =  3.4

     total cpu time spent up to now is     1459.3 secs

     total energy              =   -2796.32161989 Ry
     estimated scf accuracy    <       0.08656280 Ry

     iteration # 23     ecut=    90.00 Ry     beta= 0.70
     CG style diagonalization
     c_bands:  1 eigenvalues not converged
     c_bands:  1 eigenvalues not converged
     c_bands:  1 eigenvalues not converged
     c_bands:  1 eigenvalues not converged
     c_bands:  1 eigenvalues not converged
     c_bands:  1 eigenvalues not converged
     c_bands:  1 eigenvalues not converged
     c_bands:  1 eigenvalues not converged
     c_bands:  1 eigenvalues not converged
     ethr =  7.63E-05,  avg # of iterations =  3.7

     total cpu time spent up to now is     1521.1 secs

     total energy              =   -2796.34117034 Ry
     estimated scf accuracy    <       0.02649341 Ry

     iteration # 24     ecut=    90.00 Ry     beta= 0.70
     CG style diagonalization
     c_bands:  1 eigenvalues not converged
     c_bands:  2 eigenvalues not converged
     c_bands:  1 eigenvalues not converged
     c_bands:  1 eigenvalues not converged
     c_bands:  1 eigenvalues not converged
     c_bands:  1 eigenvalues not converged
     c_bands:  1 eigenvalues not converged
     c_bands:  1 eigenvalues not converged
     c_bands:  2 eigenvalues not converged
     c_bands:  1 eigenvalues not converged
     c_bands:  1 eigenvalues not converged
     c_bands:  1 eigenvalues not converged
     c_bands:  1 eigenvalues not converged
     c_bands:  1 eigenvalues not converged
     c_bands:  1 eigenvalues not converged
     c_bands:  1 eigenvalues not converged
     c_bands:  3 eigenvalues not converged
     c_bands:  1 eigenvalues not converged
     c_bands:  1 eigenvalues not converged
     c_bands:  2 eigenvalues not converged
     c_bands:  1 eigenvalues not converged
     c_bands:  2 eigenvalues not converged
     c_bands:  1 eigenvalues not converged
     c_bands:  1 eigenvalues not converged
     c_bands:  1 eigenvalues not converged
     c_bands:  1 eigenvalues not converged
     c_bands:  1 eigenvalues not converged
     c_bands:  1 eigenvalues not converged
     c_bands:  1 eigenvalues not converged
     c_bands:  1 eigenvalues not converged
     c_bands:  1 eigenvalues not converged
     c_bands:  1 eigenvalues not converged
     c_bands:  1 eigenvalues not converged
[...]
    -1.9784  -1.9278  -1.7079  -1.6851  -1.3798   2.9069   2.9944   3.5309
     3.7532   4.7849   4.8568   5.0261   5.0261   5.9564   6.0775   6.3322
     6.4646   6.5440   7.0562   7.1228   7.6744   7.8952   8.3920   8.4046
     8.5429   8.8816   8.9177   8.9219

     occupation numbers 
     1.0000   1.0000   1.0000   1.0000   1.0000   1.0000   1.0000   1.0000
     1.0000   1.0000   1.0000   1.0000   1.0000   1.0000   1.0000   1.0000
     1.0000   1.0000   1.0000   1.0000   1.0000   1.0000   1.0000   1.0000
     1.0000   1.0000   1.0000   1.0000   1.0000   1.0000   1.0000   1.0000
     1.0000   1.0000   1.0012   1.0033   0.6804   0.0833  -0.0017  -0.0014
    -0.0001  -0.0000  -0.0000  -0.0000

          k = 0.2778 0.4811 0.2322 ( 25207 PWs)   bands (ev):

   -56.6737 -56.6595 -56.6340 -30.6516 -30.6371 -30.6111 -30.6071 -30.5752
   -30.5133 -30.4656 -30.3831 -30.2448 -15.0845  -2.6387  -2.3637  -2.0609
    -1.9825  -1.9158  -1.7339  -1.6764  -1.3654   2.8999   2.9933   3.5364
     3.7606   4.7962   4.8539   5.0103   5.0323   5.9432   6.0552   6.3400
     6.4650   6.5607   7.0378   7.1250   7.6725   7.8884   8.3980   8.4443
     8.5249   8.8658   8.8920   8.9089

     occupation numbers 
     1.0000   1.0000   1.0000   1.0000   1.0000   1.0000   1.0000   1.0000
     1.0000   1.0000   1.0000   1.0000   1.0000   1.0000   1.0000   1.0000
     1.0000   1.0000   1.0000   1.0000   1.0000   1.0000   1.0000   1.0000
     1.0000   1.0000   1.0000   1.0000   1.0000   1.0000   1.0000   1.0000
     1.0000   1.0000   1.0009   1.0034   0.6859   0.0950  -0.0015  -0.0007
    -0.0002  -0.0000  -0.0000  -0.0000

          k = 0.2778 0.4811-0.2786 ( 25224 PWs)   bands (ev):

   -56.6737 -56.6595 -56.6340 -30.6516 -30.6371 -30.6111 -30.6071 -30.5752
   -30.5133 -30.4656 -30.3831 -30.2448 -15.0845  -2.6325  -2.3750  -2.0564
    -1.9853  -1.9103  -1.7433  -1.6734  -1.3605   2.8973   2.9930   3.5384
     3.7632   4.8008   4.8527   5.0039   5.0346   5.9386   6.0472   6.3425
     6.4652   6.5669   7.0308   7.1257   7.6719   7.8857   8.3960   8.4651
     8.5182   8.8669   8.8841   8.9020

     occupation numbers 
     1.0000   1.0000   1.0000   1.0000   1.0000   1.0000   1.0000   1.0000
     1.0000   1.0000   1.0000   1.0000   1.0000   1.0000   1.0000   1.0000
     1.0000   1.0000   1.0000   1.0000   1.0000   1.0000   1.0000   1.0000
     1.0000   1.0000   1.0000   1.0000   1.0000   1.0000   1.0000   1.0000
     1.0000   1.0000   1.0008   1.0035   0.6876   0.0998  -0.0016  -0.0005
    -0.0002  -0.0000  -0.0000  -0.0000

          k = 0.2778 0.5453 0.0000 ( 25198 PWs)   bands (ev):

   -56.6704 -56.6628 -56.6340 -30.6482 -30.6405 -30.6111 -30.6043 -30.5610
   -30.5310 -30.4430 -30.4024 -30.2475 -15.0844  -2.5135  -2.2410  -2.0830
    -2.0224  -1.9133  -1.7589  -1.6406  -1.6315   2.9499   3.1079   3.3303
     3.6725   4.8141   4.9235   4.9285   5.0442   6.0811   6.3287   6.4635
     6.4697   6.4871   6.8070   7.2567   7.5434   7.9959   8.2543   8.4531
     8.6196   8.9416   8.9871   9.0172

     occupation numbers 
     1.0000   1.0000   1.0000   1.0000   1.0000   1.0000   1.0000   1.0000
     1.0000   1.0000   1.0000   1.0000   1.0000   1.0000   1.0000   1.0000
     1.0000   1.0000   1.0000   1.0000   1.0000   1.0000   1.0000   1.0000
     1.0000   1.0000   1.0000   1.0000   1.0000   1.0000   1.0000   1.0000
     1.0000   1.0000   1.0000   1.0163   0.9599  -0.0208  -0.0105  -0.0006
    -0.0000  -0.0000  -0.0000  -0.0000

          k = 0.2778 0.5453 0.0464 ( 25181 PWs)   bands (ev):

   -56.6704 -56.6628 -56.6340 -30.6482 -30.6405 -30.6111 -30.6043 -30.5610
   -30.5310 -30.4430 -30.4024 -30.2475 -15.0844  -2.5085  -2.2386  -2.0968
    -2.0138  -1.9295  -1.7409  -1.6876  -1.5874   2.9390   3.1123   3.3337
     3.6782   4.8151   4.9188   4.9337   5.0418   6.0709   6.3330   6.4554
     6.4653   6.4988   6.8006   7.2563   7.5431   7.9951   8.2683   8.4490
     8.6107   8.9215   8.9859   9.0202

     occupation numbers 
     1.0000   1.0000   1.0000   1.0000   1.0000   1.0000   1.0000   1.0000
     1.0000   1.0000   1.0000   1.0000   1.0000   1.0000   1.0000   1.0000
     1.0000   1.0000   1.0000   1.0000   1.0000   1.0000   1.0000   1.0000
     1.0000   1.0000   1.0000   1.0000   1.0000   1.0000   1.0000   1.0000
     1.0000   1.0000   1.0000   1.0162   0.9603  -0.0204  -0.0090  -0.0006
    -0.0000  -0.0000  -0.0000  -0.0000

          k = 0.2778 0.5453 0.0929 ( 25176 PWs)   bands (ev):

   -56.6704 -56.6628 -56.6340 -30.6482 -30.6405 -30.6111 -30.6043 -30.5610
   -30.5310 -30.4430 -30.4024 -30.2475 -15.0844  -2.4938  -2.2329  -2.1229
    -2.0161  -1.9463  -1.7421  -1.7017  -1.5447   2.9125   3.1221   3.3425
     3.6937   4.8182   4.9128   4.9410   5.0349   6.0449   6.3422   6.4377
     6.4650   6.5160   6.7827   7.2551   7.5422   7.9929   8.3091   8.4380
     8.5885   8.9164   8.9575   8.9997

     occupation numbers 
     1.0000   1.0000   1.0000   1.0000   1.0000   1.0000   1.0000   1.0000
     1.0000   1.0000   1.0000   1.0000   1.0000   1.0000   1.0000   1.0000
     1.0000   1.0000   1.0000   1.0000   1.0000   1.0000   1.0000   1.0000
     1.0000   1.0000   1.0000   1.0000   1.0000   1.0000   1.0000   1.0000
     1.0000   1.0000   1.0000   1.0160   0.9615  -0.0193  -0.0054  -0.0008
    -0.0000  -0.0000  -0.0000  -0.0000

          k = 0.2778 0.5453 0.1393 ( 25176 PWs)   bands (ev):

   -56.6704 -56.6628 -56.6340 -30.6482 -30.6405 -30.6111 -30.6043 -30.5610
   -30.5310 -30.4430 -30.4024 -30.2475 -15.0844  -2.4701  -2.2306  -2.1463
    -2.0481  -1.9359  -1.7910  -1.6653  -1.5093   2.8810   3.1321   3.3537
     3.7141   4.8228   4.9075   4.9482   5.0250   6.0124   6.3491   6.4234
     6.4650   6.5341   6.7569   7.2533   7.5406   7.9903   8.3696   8.4186
     8.5600   8.8859   8.9473   8.9823

     occupation numbers 
     1.0000   1.0000   1.0000   1.0000   1.0000   1.0000   1.0000   1.0000
     1.0000   1.0000   1.0000   1.0000   1.0000   1.0000   1.0000   1.0000
     1.0000   1.0000   1.0000   1.0000   1.0000   1.0000   1.0000   1.0000
     1.0000   1.0000   1.0000   1.0000   1.0000   1.0000   1.0000   1.0000
     1.0000   1.0000   1.0000   1.0158   0.9634  -0.0180  -0.0023  -0.0011
    -0.0001  -0.0000  -0.0000  -0.0000

          k = 0.2778 0.5453 0.1857 ( 25182 PWs)   bands (ev):

   -56.6704 -56.6628 -56.6340 -30.6482 -30.6405 -30.6111 -30.6043 -30.5610
   -30.5310 -30.4430 -30.4024 -30.2475 -15.0844  -2.4392  -2.2460  -2.1538
    -2.0814  -1.9207  -1.8332  -1.6357  -1.4829   2.8529   3.1401   3.3644
     3.7339   4.8280   4.9031   4.9544   5.0142   5.9822   6.3494   6.4164
     6.4650   6.5526   6.7283   7.2511   7.5389   7.9862   8.3951   8.4367
     8.5342   8.8695   8.9232   8.9704

     occupation numbers 
     1.0000   1.0000   1.0000   1.0000   1.0000   1.0000   1.0000   1.0000
     1.0000   1.0000   1.0000   1.0000   1.0000   1.0000   1.0000   1.0000
     1.0000   1.0000   1.0000   1.0000   1.0000   1.0000   1.0000   1.0000
     1.0000   1.0000   1.0000   1.0000   1.0000   1.0000   1.0000   1.0000
     1.0000   1.0000   1.0000   1.0154   0.9655  -0.0158  -0.0016  -0.0008
    -0.0001  -0.0000  -0.0000  -0.0000

          k = 0.2778 0.5453 0.2322 ( 25190 PWs)   bands (ev):

   -56.6704 -56.6628 -56.6340 -30.6482 -30.6405 -30.6111 -30.6043 -30.5610
   -30.5310 -30.4430 -30.4024 -30.2475 -15.0844  -2.4057  -2.2774  -2.1464
    -2.1043  -1.9117  -1.8613  -1.6169  -1.4666   2.8340   3.1452   3.3719
     3.7479   4.8325   4.9002   4.9587   5.0057   5.9613   6.3457   6.4151
     6.4650   6.5692   6.7038   7.2493   7.5376   7.9835   8.3819   8.4865
     8.5168   8.8601   8.9023   8.9521

     occupation numbers 
     1.0000   1.0000   1.0000   1.0000   1.0000   1.0000   1.0000   1.0000
     1.0000   1.0000   1.0000   1.0000   1.0000   1.0000   1.0000   1.0000
     1.0000   1.0000   1.0000   1.0000   1.0000   1.0000   1.0000   1.0000
     1.0000   1.0000   1.0000   1.0000   1.0000   1.0000   1.0000   1.0000
     1.0000   1.0000   1.0000   1.0152   0.9671  -0.0142  -0.0019  -0.0003
    -0.0002  -0.0000  -0.0000  -0.0000

          k = 0.2778 0.5453-0.2786 ( 25214 PWs)   bands (ev):

   -56.6704 -56.6628 -56.6340 -30.6482 -30.6405 -30.6111 -30.6043 -30.5610
   -30.5310 -30.4430 -30.4024 -30.2475 -15.0844  -2.3865  -2.2971  -2.1401
    -2.1136  -1.9099  -1.8703  -1.6105  -1.4611   2.8273   3.1469   3.3746
     3.7530   4.8342   4.8992   4.9603   5.0024   5.9538   6.3437   6.4152
     6.4650   6.5767   6.6933   7.2487   7.5371   7.9829   8.3773   8.5049
     8.5103   8.8525   8.8998   8.9477

     occupation numbers 
     1.0000   1.0000   1.0000   1.0000   1.0000   1.0000   1.0000   1.0000
     1.0000   1.0000   1.0000   1.0000   1.0000   1.0000   1.0000   1.0000
     1.0000   1.0000   1.0000   1.0000   1.0000   1.0000   1.0000   1.0000
     1.0000   1.0000   1.0000   1.0000   1.0000   1.0000   1.0000   1.0000
     1.0000   1.0000   1.0000   1.0151   0.9678  -0.0139  -0.0021  -0.0002
    -0.0002  -0.0000  -0.0000  -0.0000

          k = 0.3333 0.5774 0.0000 ( 25170 PWs)   bands (ev):

   -56.6666 -56.6666 -56.6340 -30.6444 -30.6444 -30.6111 -30.6007 -30.5482
   -30.5482 -30.4215 -30.4215 -30.2492 -15.0843  -2.3464  -2.3464  -2.1142
    -1.9702  -1.8023  -1.8023  -1.7234  -1.7234   2.9183   3.2902   3.2902
     3.4977   4.8756   4.8756   4.9931   4.9931   6.4000   6.4292   6.4292
     6.4626   6.4748   6.4748   7.4037   7.4037   8.0190   8.2595   8.5517
     8.5520   8.9585   8.9586   9.0702

     occupation numbers 
     1.0000   1.0000   1.0000   1.0000   1.0000   1.0000   1.0000   1.0000
     1.0000   1.0000   1.0000   1.0000   1.0000   1.0000   1.0000   1.0000
     1.0000   1.0000   1.0000   1.0000   1.0000   1.0000   1.0000   1.0000
     1.0000   1.0000   1.0000   1.0000   1.0000   1.0000   1.0000   1.0000
     1.0000   1.0000   1.0000   1.0354   1.0354  -0.0294  -0.0099  -0.0001
    -0.0001  -0.0000  -0.0000  -0.0000

          k = 0.3333 0.5774 0.0464 ( 25176 PWs)   bands (ev):

   -56.6666 -56.6666 -56.6340 -30.6444 -30.6444 -30.6111 -30.6007 -30.5482
   -30.5482 -30.4215 -30.4215 -30.2492 -15.0843  -2.3412  -2.3412  -2.1196
    -1.9643  -1.8398  -1.8398  -1.6908  -1.6908   2.9079   3.2916   3.2916
     3.5087   4.8763   4.8763   4.9914   4.9914   6.3934   6.4183   6.4183
     6.4626   6.4823   6.4823   7.4026   7.4026   8.0190   8.2767   8.5442
     8.5447   8.9499   8.9514   9.0725

     occupation numbers 
     1.0000   1.0000   1.0000   1.0000   1.0000   1.0000   1.0000   1.0000
     1.0000   1.0000   1.0000   1.0000   1.0000   1.0000   1.0000   1.0000
     1.0000   1.0000   1.0000   1.0000   1.0000   1.0000   1.0000   1.0000
     1.0000   1.0000   1.0000   1.0000   1.0000   1.0000   1.0000   1.0000
     1.0000   1.0000   1.0000   1.0354   1.0354  -0.0294  -0.0081  -0.0001
    -0.0001  -0.0000  -0.0000  -0.0000

          k = 0.3333 0.5774 0.0929 ( 25185 PWs)   bands (ev):

   -56.6666 -56.6666 -56.6340 -30.6444 -30.6444 -30.6111 -30.6007 -30.5482
   -30.5482 -30.4215 -30.4215 -30.2492 -15.0843  -2.3258  -2.3258  -2.1324
    -1.9497  -1.9028  -1.9028  -1.6425  -1.6425   2.8812   3.2953   3.2953
     3.5370   4.8785   4.8785   4.9866   4.9866   6.3755   6.3964   6.3964
     6.4626   6.4948   6.4948   7.3997   7.3997   8.0188   8.3222   8.5239
     8.5249   8.9289   8.9295   9.0504

     occupation numbers 
     1.0000   1.0000   1.0000   1.0000   1.0000   1.0000   1.0000   1.0000
     1.0000   1.0000   1.0000   1.0000   1.0000   1.0000   1.0000   1.0000
     1.0000   1.0000   1.0000   1.0000   1.0000   1.0000   1.0000   1.0000
     1.0000   1.0000   1.0000   1.0000   1.0000   1.0000   1.0000   1.0000
     1.0000   1.0000   1.0000   1.0355   1.0355  -0.0293  -0.0046  -0.0002
    -0.0002  -0.0000  -0.0000  -0.0000

          k = 0.3333 0.5774 0.1393 ( 25176 PWs)   bands (ev):

   -56.6666 -56.6666 -56.6340 -30.6444 -30.6444 -30.6111 -30.6007 -30.5482
   -30.5482 -30.4215 -30.4215 -30.2492 -15.0843  -2.3007  -2.3007  -2.1472
    -1.9693  -1.9693  -1.9326  -1.6002  -1.6002   2.8480   3.3005   3.3005
     3.5726   4.8821   4.8821   4.9794   4.9794   6.3518   6.3731   6.3731
     6.4627   6.5054   6.5054   7.3957   7.3957   8.0189   8.3866   8.4968
     8.4976   8.9025   8.9043   8.9982

     occupation numbers 
     1.0000   1.0000   1.0000   1.0000   1.0000   1.0000   1.0000   1.0000
     1.0000   1.0000   1.0000   1.0000   1.0000   1.0000   1.0000   1.0000
     1.0000   1.0000   1.0000   1.0000   1.0000   1.0000   1.0000   1.0000
     1.0000   1.0000   1.0000   1.0000   1.0000   1.0000   1.0000   1.0000
     1.0000   1.0000   1.0000   1.0354   1.0354  -0.0294  -0.0018  -0.0003
    -0.0003  -0.0000  -0.0000  -0.0000

          k = 0.3333 0.5774 0.1857 ( 25185 PWs)   bands (ev):

   -56.6666 -56.6666 -56.6340 -30.6444 -30.6444 -30.6111 -30.6007 -30.5482
   -30.5482 -30.4215 -30.4215 -30.2492 -15.0843  -2.2671  -2.2671  -2.1599
    -2.0341  -2.0341  -1.9176  -1.5680  -1.5680   2.8176   3.3057   3.3057
     3.6053   4.8866   4.8866   4.9711   4.9711   6.3287   6.3532   6.3532
     6.4627   6.5129   6.5129   7.3917   7.3917   8.0182   8.4542   8.4703
     8.4717   8.8798   8.8800   9.0481

     occupation numbers 
     1.0000   1.0000   1.0000   1.0000   1.0000   1.0000   1.0000   1.0000
     1.0000   1.0000   1.0000   1.0000   1.0000   1.0000   1.0000   1.0000
     1.0000   1.0000   1.0000   1.0000   1.0000   1.0000   1.0000   1.0000
     1.0000   1.0000   1.0000   1.0000   1.0000   1.0000   1.0000   1.0000
     1.0000   1.0000   1.0000   1.0353   1.0353  -0.0292  -0.0006  -0.0004
    -0.0004  -0.0000  -0.0000  -0.0000

          k = 0.3333 0.5774 0.2322 ( 25191 PWs)   bands (ev):

   -56.6666 -56.6666 -56.6340 -30.6444 -30.6444 -30.6111 -30.6007 -30.5482
   -30.5482 -30.4215 -30.4215 -30.2492 -15.0843  -2.2282  -2.2282  -2.1684
    -2.0923  -2.0923  -1.9075  -1.5481  -1.5481   2.7968   3.3095   3.3095
     3.6279   4.8907   4.8907   4.9641   4.9641   6.3121   6.3399   6.3399
     6.4627   6.5173   6.5173   7.3886   7.3886   8.0180   8.4518   8.4520
     8.5102   8.8653   8.8654   8.9645

     occupation numbers 
     1.0000   1.0000   1.0000   1.0000   1.0000   1.0000   1.0000   1.0000
     1.0000   1.0000   1.0000   1.0000   1.0000   1.0000   1.0000   1.0000
     1.0000   1.0000   1.0000   1.0000   1.0000   1.0000   1.0000   1.0000
     1.0000   1.0000   1.0000   1.0000   1.0000   1.0000   1.0000   1.0000
     1.0000   1.0000   1.0000   1.0352   1.0352  -0.0291  -0.0006  -0.0006
    -0.0002  -0.0000  -0.0000  -0.0000

          k = 0.3333 0.5774-0.2786 ( 25218 PWs)   bands (ev):

   -56.6666 -56.6666 -56.6340 -30.6444 -30.6444 -30.6111 -30.6007 -30.5482
   -30.5482 -30.4215 -30.4215 -30.2492 -15.0843  -2.2025  -2.2025  -2.1713
    -2.1245  -2.1245  -1.9039  -1.5413  -1.5413   2.7894   3.3109   3.3109
     3.6359   4.8924   4.8924   4.9613   4.9613   6.3061   6.3352   6.3352
     6.4627   6.5187   6.5187   7.3875   7.3875   8.0180   8.4452   8.4454
     8.5244   8.8602   8.8607   9.0824

     occupation numbers 
     1.0000   1.0000   1.0000   1.0000   1.0000   1.0000   1.0000   1.0000
     1.0000   1.0000   1.0000   1.0000   1.0000   1.0000   1.0000   1.0000
     1.0000   1.0000   1.0000   1.0000   1.0000   1.0000   1.0000   1.0000
     1.0000   1.0000   1.0000   1.0000   1.0000   1.0000   1.0000   1.0000
     1.0000   1.0000   1.0000   1.0351   1.0351  -0.0291  -0.0007  -0.0007
    -0.0002  -0.0000  -0.0000  -0.0000

     the Fermi energy is     7.7339 ev

!    total energy              =   -2796.34987839 Ry

     total all-electron energy =    -86086.044433 Ry
     estimated scf accuracy    <          4.9E-11 Ry
     smearing contrib. (-TS)   =      -0.00095964 Ry
     internal energy E=F+TS    =   -2796.34891876 Ry

     The total energy is F=E-TS. E is the sum of the following terms:
     one-electron contribution =    -587.54426703 Ry
     hartree contribution      =     318.95279261 Ry
     xc contribution           =    -143.45876097 Ry
     ewald contribution        =    -170.22688259 Ry
     one-center paw contrib.   =   -2214.07180078 Ry
      -> PAW hartree energy AE =      25.61714350 Ry
      -> PAW hartree energy PS =     -25.50763090 Ry
      -> PAW xc energy AE      =    -383.52644166 Ry
      -> PAW xc energy PS      =      20.51139516 Ry
      -> total E_H with PAW    =     319.06230521 Ry
      -> total E_XC with PAW   =    -506.47380747 Ry

     convergence has been achieved in  62 iterations

     Writing output data file /lscratch/martin/156411/tmp/CsV3Sb5.save/
 
     init_run     :     10.62s CPU     11.34s WALL (       1 calls)
     electrons    :   4475.51s CPU   4605.77s WALL (       1 calls)

     Called by init_run:
     wfcinit      :      8.35s CPU      8.69s WALL (       1 calls)
     wfcinit:atom :      0.10s CPU      0.10s WALL (     259 calls)
     wfcinit:wfcr :      7.49s CPU      7.81s WALL (     259 calls)
     potinit      :      0.40s CPU      0.42s WALL (       1 calls)
     hinit0       :      0.61s CPU      0.83s WALL (       1 calls)

     Called by electrons:
     c_bands      :   4221.48s CPU   4331.01s WALL (      62 calls)
     sum_band     :    215.71s CPU    229.69s WALL (      62 calls)
     v_of_rho     :      2.44s CPU      2.80s WALL (      63 calls)
     v_h          :      0.19s CPU      0.19s WALL (      63 calls)
     v_xc         :      2.26s CPU      2.60s WALL (      63 calls)
     newd         :     23.62s CPU     29.27s WALL (      63 calls)
     PAW_pot      :     11.85s CPU     12.59s WALL (      63 calls)
     mix_rho      :      0.49s CPU      0.53s WALL (      62 calls)

     Called by c_bands:
     init_us_2    :     26.54s CPU     27.13s WALL (   32375 calls)
     ccgdiagg     :   3865.84s CPU   3963.86s WALL (   16066 calls)
     wfcrot       :    340.49s CPU    351.22s WALL (   16066 calls)

     Called by sum_band:
     sum_band:wei :      1.21s CPU      1.25s WALL (      62 calls)
     sum_band:loo :    184.34s CPU    190.18s WALL (      62 calls)
     sum_band:buf :      2.60s CPU      2.64s WALL (   16058 calls)
     sum_band:ini :     14.82s CPU     14.98s WALL (   16058 calls)
     sum_band:cal :     20.46s CPU     21.48s WALL (   16058 calls)
     sum_band:bec :      1.15s CPU      1.16s WALL (   16058 calls)
     addusdens    :     28.90s CPU     36.91s WALL (      62 calls)
     addusd:skk   :      0.05s CPU      0.07s WALL (     186 calls)
     addusd:dgemm :      8.58s CPU     15.96s WALL (     186 calls)
     addusd:qvan2 :     19.42s CPU     19.44s WALL (     186 calls)

     Called by *cgdiagg:
     h_psi        :   2514.52s CPU   2584.03s WALL ( 2397421 calls)
     s_psi        :    851.39s CPU    873.62s WALL ( 4778776 calls)

     Called by h_psi:
     h_psi:calbec :    695.10s CPU    715.79s WALL ( 2397421 calls)
     vloc_psi     :   1281.18s CPU   1316.53s WALL ( 2397421 calls)
     add_vuspsi   :    510.18s CPU    525.20s WALL ( 2397421 calls)
     hs_1psi      :   2670.72s CPU   2740.82s WALL ( 2381355 calls)
     s_1psi       :    862.40s CPU    881.73s WALL ( 2381355 calls)

     General routines
     calbec       :   1139.47s CPU   1173.86s WALL ( 4794834 calls)
     fft          :      1.48s CPU      1.77s WALL (     817 calls)
     ffts         :      0.06s CPU      0.06s WALL (     125 calls)
     fftw         :   1256.32s CPU   1292.07s WALL ( 6888768 calls)
     interpolate  :      0.17s CPU      0.17s WALL (      63 calls)
 
     Parallel routines
     fft_scatt_xy :    207.33s CPU    212.88s WALL ( 6889710 calls)
     fft_scatt_yz :    721.79s CPU    743.48s WALL ( 6889710 calls)

     PAW routines
     PAW_pot      :     11.85s CPU     12.59s WALL (      63 calls)
     PAW_symme    :      0.19s CPU      0.20s WALL (     125 calls)
 
     PWSCF        :      1h14m CPU      1h17m WALL

 
   This run was terminated on:  14: 6:52   4Sep2021            

=------------------------------------------------------------------------------=
   JOB DONE.
=------------------------------------------------------------------------------=
