
     Program PWSCF v.6.7MaX starts on 18May2022 at 15:54: 6 

     This program is part of the open-source Quantum ESPRESSO suite
     for quantum simulation of materials; please cite
         "P. Giannozzi et al., J. Phys.:Condens. Matter 21 395502 (2009);
         "P. Giannozzi et al., J. Phys.:Condens. Matter 29 465901 (2017);
          URL http://www.quantum-espresso.org", 
     in publications or presentations arising from this work. More details at
     http://www.quantum-espresso.org/quote

     Parallel version (MPI), running on    48 processors

     MPI processes distributed on     1 nodes
     R & G space division:  proc/nbgrp/npool/nimage =      48
     Waiting for input...
     Reading input from standard input

     Current dimensions of program PWSCF are:
     Max number of different atomic species (ntypx) = 10
     Max number of k-points (npk) =  40000
     Max angular momentum in pseudopotentials (lmaxx) =  3
     file O.pbe-nl-kjpaw_psl.1.0.0.UPF: wavefunction(s)  2S 2P renormalized
     file Cl.pbe-nl-kjpaw_psl.1.0.0.UPF: wavefunction(s)  3S renormalized
     file Nb.pbe-spn-kjpaw_psl.1.0.0.UPF: wavefunction(s)  4S 4P 4D renormalized

     Subspace diagonalization in iterative solution of the eigenvalue problem:
     a serial algorithm will be used

     Message from routine setup:
     using ibrav=0 with symmetry is DISCOURAGED, use correct ibrav instead
 
     Parallelization info
     --------------------
     sticks:   dense  smooth     PW     G-vecs:    dense   smooth      PW
     Min          75      30     11                 1541      391      85
     Max          76      31     12                 1544      392      87
     Sum        3617    1457    531                74033    18773    4123
 


     bravais-lattice index     =            0
     lattice parameter (alat)  =      12.6717  a.u.
     unit-cell volume          =     547.9313 (a.u.)^3
     number of atoms/cell      =            4
     number of atomic types    =            3
     number of electrons       =        33.00
     number of Kohn-Sham states=           21
     kinetic-energy cutoff     =      40.0000  Ry
     charge density cutoff     =     400.0000  Ry
     scf convergence threshold =      1.0E-10
     mixing beta               =       0.7000
     number of iterations used =            8  plain     mixing
     Exchange-correlation= SLA  PW   PBX  PBC
                           (   1   4   3   4   0   0   0)

     celldm(1)=  12.671676  celldm(2)=   0.000000  celldm(3)=   0.000000
     celldm(4)=   0.000000  celldm(5)=   0.000000  celldm(6)=   0.000000

     crystal axes: (cart. coord. in units of alat)
               a(1) = (  -0.250426   0.291161   0.923316 )  
               a(2) = (   0.250426  -0.291161   0.923316 )  
               a(3) = (   0.250426   0.291161  -0.923316 )  

     reciprocal axes: (cart. coord. in units 2 pi/alat)
               b(1) = (  0.000000  1.717261  0.541527 )  
               b(2) = (  1.996594  0.000000  0.541527 )  
               b(3) = (  1.996594  1.717261  0.000000 )  


     PseudoPot. # 1 for O  read from file:
     /zfs_data/gutierre/Scratch/Cl2NbO/convergence/cutoff/10x10x10/40/pseudo/O.pbe-nl-kjpaw_psl.1.0.0.UPF
     MD5 check sum: df3ddea38124b4e5de5e1084591730e4
     Pseudo is Projector augmented-wave + core cor, Zval =  6.0
     Generated using 'atomic' code by A. Dal Corso  v.6.7MaX
     Shape of augmentation charge: PSQ
     Using radial grid of 1095 points,  4 beta functions with: 
                l(1) =   0
                l(2) =   0
                l(3) =   1
                l(4) =   1
     Q(r) pseudized with 0 coefficients 


     PseudoPot. # 2 for Cl read from file:
     /zfs_data/gutierre/Scratch/Cl2NbO/convergence/cutoff/10x10x10/40/pseudo/Cl.pbe-nl-kjpaw_psl.1.0.0.UPF
     MD5 check sum: 8cf6bde52c08f6236e0f72a8870677af
     Pseudo is Projector augmented-wave + core cor, Zval =  7.0
     Generated using 'atomic' code by A. Dal Corso  v.6.7MaX
     Shape of augmentation charge: PSQ
     Using radial grid of 1157 points,  4 beta functions with: 
                l(1) =   0
                l(2) =   0
                l(3) =   1
                l(4) =   1
     Q(r) pseudized with 0 coefficients 


     PseudoPot. # 3 for Nb read from file:
     /zfs_data/gutierre/Scratch/Cl2NbO/convergence/cutoff/10x10x10/40/pseudo/Nb.pbe-spn-kjpaw_psl.1.0.0.UPF
     MD5 check sum: 1ec1a3aa7bf3cbf7f7e0d720422bce7a
     Pseudo is Projector augmented-wave + core cor, Zval = 13.0
     Generated using 'atomic' code by A. Dal Corso  v.6.7MaX
     Shape of augmentation charge: PSQ
     Using radial grid of 1227 points,  6 beta functions with: 
                l(1) =   0
                l(2) =   0
                l(3) =   1
                l(4) =   1
                l(5) =   2
                l(6) =   2
     Q(r) pseudized with 0 coefficients 


     atomic species   valence    mass     pseudopotential
        O              6.00    15.99940     O ( 1.00)
        Cl             7.00    35.45150     Cl( 1.00)
        Nb            13.00    92.90637     Nb( 1.00)

      8 Sym. Ops., with inversion, found


                                    s                        frac. trans.

      isym =  1     identity                                     

 cryst.   s( 1) = (     1          0          0      )
                  (     0          1          0      )
                  (     0          0          1      )

 cart.    s( 1) = (  1.0000000  0.0000000  0.0000000 )
                  (  0.0000000  1.0000000  0.0000000 )
                  (  0.0000000  0.0000000  1.0000000 )


      isym =  2     180 deg rotation - cart. axis [0,0,1]        

 cryst.   s( 2) = (     0          1          0      )
                  (     1          0          0      )
                  (    -1         -1         -1      )

 cart.    s( 2) = ( -1.0000000  0.0000000  0.0000000 )
                  (  0.0000000 -1.0000000  0.0000000 )
                  (  0.0000000  0.0000000  1.0000000 )


      isym =  3     180 deg rotation - cart. axis [0,1,0]        

 cryst.   s( 3) = (     0          0          1      )
                  (    -1         -1         -1      )
                  (     1          0          0      )

 cart.    s( 3) = ( -1.0000000  0.0000000  0.0000000 )
                  (  0.0000000  1.0000000  0.0000000 )
                  (  0.0000000  0.0000000 -1.0000000 )


      isym =  4     180 deg rotation - cart. axis [1,0,0]        

 cryst.   s( 4) = (    -1         -1         -1      )
                  (     0          0          1      )
                  (     0          1          0      )

 cart.    s( 4) = (  1.0000000  0.0000000  0.0000000 )
                  (  0.0000000 -1.0000000  0.0000000 )
                  (  0.0000000  0.0000000 -1.0000000 )


      isym =  5     inversion                                    

 cryst.   s( 5) = (    -1          0          0      )
                  (     0         -1          0      )
                  (     0          0         -1      )

 cart.    s( 5) = ( -1.0000000  0.0000000  0.0000000 )
                  (  0.0000000 -1.0000000  0.0000000 )
                  (  0.0000000  0.0000000 -1.0000000 )


      isym =  6     inv. 180 deg rotation - cart. axis [0,0,1]   

 cryst.   s( 6) = (     0         -1          0      )
                  (    -1          0          0      )
                  (     1          1          1      )

 cart.    s( 6) = (  1.0000000  0.0000000  0.0000000 )
                  (  0.0000000  1.0000000  0.0000000 )
                  (  0.0000000  0.0000000 -1.0000000 )


      isym =  7     inv. 180 deg rotation - cart. axis [0,1,0]   

 cryst.   s( 7) = (     0          0         -1      )
                  (     1          1          1      )
                  (    -1          0          0      )

 cart.    s( 7) = (  1.0000000  0.0000000  0.0000000 )
                  (  0.0000000 -1.0000000  0.0000000 )
                  (  0.0000000  0.0000000  1.0000000 )


      isym =  8     inv. 180 deg rotation - cart. axis [1,0,0]   

 cryst.   s( 8) = (     1          1          1      )
                  (     0          0         -1      )
                  (     0         -1          0      )

 cart.    s( 8) = ( -1.0000000  0.0000000  0.0000000 )
                  (  0.0000000  1.0000000  0.0000000 )
                  (  0.0000000  0.0000000  1.0000000 )


   Cartesian axes

     site n.     atom                  positions (alat units)
         1           O   tau(   1) = (   0.0000000   0.2911613   0.0000000  )
         2           Cl  tau(   2) = (  -0.0000000   0.2911613   0.6365338  )
         3           Cl  tau(   3) = (   0.2504264  -0.0000000   0.2867819  )
         4           Nb  tau(   4) = (   0.0000000   0.0000000   0.0000000  )

   Crystallographic axes

     site n.     atom                  positions (cryst. coord.)
         1           O   tau(   1) = (  0.5000000  0.0000000  0.5000000  )
         2           Cl  tau(   2) = (  0.8447000  0.3447000  0.5000000  )
         3           Cl  tau(   3) = (  0.1553000  0.6553000  0.5000000  )
         4           Nb  tau(   4) = (  0.0000000  0.0000000  0.0000000  )

     number of k points=   171  Methfessel-Paxton smearing, width (Ry)=  0.0120
                       cart. coord. in units 2pi/alat
        k(    1) = (   0.0000000   0.0000000   0.0000000), wk =   0.0020000
        k(    2) = (   0.1996594   0.1717261   0.0000000), wk =   0.0080000
        k(    3) = (   0.3993189   0.3434523   0.0000000), wk =   0.0080000
        k(    4) = (   0.5989783   0.5151784   0.0000000), wk =   0.0080000
        k(    5) = (   0.7986377   0.6869045   0.0000000), wk =   0.0080000
        k(    6) = (  -0.9982971  -0.8586307   0.0000000), wk =   0.0040000
        k(    7) = (   0.1996594   0.0000000   0.0541527), wk =   0.0080000
        k(    8) = (   0.3993189   0.1717261   0.0541527), wk =   0.0160000
        k(    9) = (   0.5989783   0.3434523   0.0541527), wk =   0.0160000
        k(   10) = (   0.7986377   0.5151784   0.0541527), wk =   0.0160000
        k(   11) = (   0.9982971   0.6869045   0.0541527), wk =   0.0160000
        k(   12) = (  -0.7986377  -0.8586307   0.0541527), wk =   0.0160000
        k(   13) = (  -0.5989783  -0.6869045   0.0541527), wk =   0.0160000
        k(   14) = (  -0.3993189  -0.5151784   0.0541527), wk =   0.0160000
        k(   15) = (  -0.1996594  -0.3434523   0.0541527), wk =   0.0160000
        k(   16) = (   0.0000000  -0.1717261   0.0541527), wk =   0.0080000
        k(   17) = (   0.3993189   0.0000000   0.1083053), wk =   0.0080000
        k(   18) = (   0.5989783   0.1717261   0.1083053), wk =   0.0160000
        k(   19) = (   0.7986377   0.3434523   0.1083053), wk =   0.0160000
        k(   20) = (   0.9982971   0.5151784   0.1083053), wk =   0.0160000
        k(   21) = (   1.1979566   0.6869045   0.1083053), wk =   0.0160000
        k(   22) = (  -0.5989783  -0.8586307   0.1083053), wk =   0.0160000
        k(   23) = (  -0.3993189  -0.6869045   0.1083053), wk =   0.0160000
        k(   24) = (  -0.1996594  -0.5151784   0.1083053), wk =   0.0160000
        k(   25) = (   0.0000000  -0.3434523   0.1083053), wk =   0.0080000
        k(   26) = (   0.1996594  -0.1717261   0.1083053), wk =   0.0160000
        k(   27) = (   0.5989783   0.0000000   0.1624580), wk =   0.0080000
        k(   28) = (   0.7986377   0.1717261   0.1624580), wk =   0.0160000
        k(   29) = (   0.9982971   0.3434523   0.1624580), wk =   0.0160000
        k(   30) = (   1.1979566   0.5151784   0.1624580), wk =   0.0160000
        k(   31) = (   1.3976160   0.6869045   0.1624580), wk =   0.0160000
        k(   32) = (  -0.3993189  -0.8586307   0.1624580), wk =   0.0160000
        k(   33) = (  -0.1996594  -0.6869045   0.1624580), wk =   0.0160000
        k(   34) = (  -0.0000000  -0.5151784   0.1624580), wk =   0.0080000
        k(   35) = (   0.1996594  -0.3434523   0.1624580), wk =   0.0160000
        k(   36) = (   0.3993189  -0.1717261   0.1624580), wk =   0.0160000
        k(   37) = (   0.7986377   0.0000000   0.2166107), wk =   0.0080000
        k(   38) = (   0.9982971   0.1717261   0.2166107), wk =   0.0160000
        k(   39) = (   1.1979566   0.3434523   0.2166107), wk =   0.0160000
        k(   40) = (   1.3976160   0.5151784   0.2166107), wk =   0.0160000
        k(   41) = (   1.5972754   0.6869045   0.2166107), wk =   0.0160000
        k(   42) = (  -0.1996594  -0.8586307   0.2166107), wk =   0.0160000
        k(   43) = (   0.0000000  -0.6869045   0.2166107), wk =   0.0080000
        k(   44) = (   0.1996594  -0.5151784   0.2166107), wk =   0.0160000
        k(   45) = (   0.3993189  -0.3434523   0.2166107), wk =   0.0160000
        k(   46) = (   0.5989783  -0.1717261   0.2166107), wk =   0.0160000
        k(   47) = (  -0.9982971   0.0000000  -0.2707633), wk =   0.0040000
        k(   48) = (  -0.7986377   0.1717261  -0.2707633), wk =   0.0160000
        k(   49) = (  -0.5989783   0.3434523  -0.2707633), wk =   0.0160000
        k(   50) = (  -0.3993189   0.5151784  -0.2707633), wk =   0.0160000
        k(   51) = (  -0.1996594   0.6869045  -0.2707633), wk =   0.0160000
        k(   52) = (  -1.9965943  -0.8586307  -0.2707633), wk =   0.0040000
        k(   53) = (   0.3993189   0.3434523   0.1083053), wk =   0.0160000
        k(   54) = (   0.5989783   0.5151784   0.1083053), wk =   0.0160000
        k(   55) = (   0.7986377   0.6869045   0.1083053), wk =   0.0160000
        k(   56) = (   0.9982971   0.8586307   0.1083053), wk =   0.0080000
        k(   57) = (   0.0000000   0.0000000   0.1083053), wk =   0.0040000
        k(   58) = (   0.5989783   0.3434523   0.1624580), wk =   0.0160000
        k(   59) = (   0.7986377   0.5151784   0.1624580), wk =   0.0160000
        k(   60) = (   0.9982971   0.6869045   0.1624580), wk =   0.0160000
        k(   61) = (   1.1979566   0.8586307   0.1624580), wk =   0.0160000
        k(   62) = (  -0.5989783  -0.6869045   0.1624580), wk =   0.0160000
        k(   63) = (  -0.3993189  -0.5151784   0.1624580), wk =   0.0160000
        k(   64) = (   0.0000000  -0.1717261   0.1624580), wk =   0.0080000
        k(   65) = (   0.1996594   0.0000000   0.1624580), wk =   0.0080000
        k(   66) = (   0.7986377   0.3434523   0.2166107), wk =   0.0160000
        k(   67) = (   0.9982971   0.5151784   0.2166107), wk =   0.0160000
        k(   68) = (   1.1979566   0.6869045   0.2166107), wk =   0.0160000
        k(   69) = (   1.3976160   0.8586307   0.2166107), wk =   0.0160000
        k(   70) = (  -0.3993189  -0.6869045   0.2166107), wk =   0.0160000
        k(   71) = (  -0.0000000  -0.3434523   0.2166107), wk =   0.0080000
        k(   72) = (   0.1996594  -0.1717261   0.2166107), wk =   0.0160000
        k(   73) = (   0.3993189   0.0000000   0.2166107), wk =   0.0080000
        k(   74) = (   0.9982971   0.3434523   0.2707633), wk =   0.0080000
        k(   75) = (   1.1979566   0.5151784   0.2707633), wk =   0.0160000
        k(   76) = (   1.3976160   0.6869045   0.2707633), wk =   0.0160000
        k(   77) = (   1.5972754   0.8586307   0.2707633), wk =   0.0080000
        k(   78) = (   0.0000000  -0.5151784   0.2707633), wk =   0.0080000
        k(   79) = (   0.1996594  -0.3434523   0.2707633), wk =   0.0160000
        k(   80) = (   0.3993189  -0.1717261   0.2707633), wk =   0.0160000
        k(   81) = (   0.5989783   0.0000000   0.2707633), wk =   0.0080000
        k(   82) = (  -0.5989783   0.5151784  -0.2166107), wk =   0.0160000
        k(   83) = (  -1.9965943  -0.6869045  -0.2166107), wk =   0.0080000
        k(   84) = (  -1.7969349  -0.5151784  -0.2166107), wk =   0.0160000
        k(   85) = (  -1.5972754  -0.3434523  -0.2166107), wk =   0.0160000
        k(   86) = (  -1.3976160  -0.1717261  -0.2166107), wk =   0.0160000
        k(   87) = (  -1.1979566   0.0000000  -0.2166107), wk =   0.0080000
        k(   88) = (   0.0000000   0.8586307  -0.1624580), wk =   0.0080000
        k(   89) = (  -1.7969349  -0.6869045  -0.1624580), wk =   0.0160000
        k(   90) = (  -1.5972754  -0.5151784  -0.1624580), wk =   0.0160000
        k(   91) = (  -1.3976160  -0.3434523  -0.1624580), wk =   0.0160000
        k(   92) = (  -1.1979566  -0.1717261  -0.1624580), wk =   0.0160000
        k(   93) = (  -0.9982971   0.0000000  -0.1624580), wk =   0.0080000
        k(   94) = (  -0.0000000   0.6869045  -0.1083053), wk =   0.0080000
        k(   95) = (   0.1996594   0.8586307  -0.1083053), wk =   0.0160000
        k(   96) = (  -1.5972754  -0.6869045  -0.1083053), wk =   0.0160000
        k(   97) = (  -1.3976160  -0.5151784  -0.1083053), wk =   0.0160000
        k(   98) = (  -1.1979566  -0.3434523  -0.1083053), wk =   0.0160000
        k(   99) = (  -0.9982971  -0.1717261  -0.1083053), wk =   0.0160000
        k(  100) = (  -0.7986377   0.0000000  -0.1083053), wk =   0.0080000
        k(  101) = (   0.0000000   0.5151784  -0.0541527), wk =   0.0080000
        k(  102) = (   0.1996594   0.6869045  -0.0541527), wk =   0.0160000
        k(  103) = (   0.3993189   0.8586307  -0.0541527), wk =   0.0160000
        k(  104) = (  -1.3976160  -0.6869045  -0.0541527), wk =   0.0160000
        k(  105) = (  -1.1979566  -0.5151784  -0.0541527), wk =   0.0160000
        k(  106) = (  -0.9982971  -0.3434523  -0.0541527), wk =   0.0160000
        k(  107) = (  -0.7986377  -0.1717261  -0.0541527), wk =   0.0160000
        k(  108) = (  -0.5989783   0.0000000  -0.0541527), wk =   0.0080000
        k(  109) = (   0.0000000   0.3434523   0.0000000), wk =   0.0040000
        k(  110) = (   0.1996594   0.5151784   0.0000000), wk =   0.0080000
        k(  111) = (   0.3993189   0.6869045   0.0000000), wk =   0.0080000
        k(  112) = (   0.5989783   0.8586307   0.0000000), wk =   0.0080000
        k(  113) = (  -1.1979566  -0.6869045   0.0000000), wk =   0.0080000
        k(  114) = (  -0.9982971  -0.5151784   0.0000000), wk =   0.0080000
        k(  115) = (  -0.7986377  -0.3434523   0.0000000), wk =   0.0080000
        k(  116) = (  -0.5989783  -0.1717261   0.0000000), wk =   0.0080000
        k(  117) = (  -0.3993189   0.0000000   0.0000000), wk =   0.0040000
        k(  118) = (   0.7986377   0.6869045   0.2166107), wk =   0.0160000
        k(  119) = (   0.9982971   0.8586307   0.2166107), wk =   0.0080000
        k(  120) = (   0.0000000   0.0000000   0.2166107), wk =   0.0040000
        k(  121) = (   0.9982971   0.6869045   0.2707633), wk =   0.0080000
        k(  122) = (   1.1979566   0.8586307   0.2707633), wk =   0.0080000
        k(  123) = (  -0.0000000  -0.1717261   0.2707633), wk =   0.0080000
        k(  124) = (   0.1996594   0.0000000   0.2707633), wk =   0.0080000
        k(  125) = (   0.0000000  -0.3434523   0.3249160), wk =   0.0080000
        k(  126) = (   0.1996594  -0.1717261   0.3249160), wk =   0.0160000
        k(  127) = (   0.3993189   0.0000000   0.3249160), wk =   0.0080000
        k(  128) = (  -1.9965943  -0.5151784  -0.1624580), wk =   0.0080000
        k(  129) = (  -1.7969349  -0.3434523  -0.1624580), wk =   0.0160000
        k(  130) = (  -1.5972754  -0.1717261  -0.1624580), wk =   0.0160000
        k(  131) = (  -1.3976160   0.0000000  -0.1624580), wk =   0.0080000
        k(  132) = (   0.0000000   1.0303568  -0.1083053), wk =   0.0080000
        k(  133) = (  -1.7969349  -0.5151784  -0.1083053), wk =   0.0160000
        k(  134) = (  -1.5972754  -0.3434523  -0.1083053), wk =   0.0160000
        k(  135) = (  -1.3976160  -0.1717261  -0.1083053), wk =   0.0160000
        k(  136) = (  -1.1979566   0.0000000  -0.1083053), wk =   0.0080000
        k(  137) = (  -0.0000000   0.8586307  -0.0541527), wk =   0.0080000
        k(  138) = (   0.1996594   1.0303568  -0.0541527), wk =   0.0160000
        k(  139) = (  -1.5972754  -0.5151784  -0.0541527), wk =   0.0160000
        k(  140) = (  -1.3976160  -0.3434523  -0.0541527), wk =   0.0160000
        k(  141) = (  -1.1979566  -0.1717261  -0.0541527), wk =   0.0160000
        k(  142) = (  -0.9982971   0.0000000  -0.0541527), wk =   0.0080000
        k(  143) = (   0.0000000   0.6869045   0.0000000), wk =   0.0040000
        k(  144) = (   0.1996594   0.8586307   0.0000000), wk =   0.0080000
        k(  145) = (   0.3993189   1.0303568   0.0000000), wk =   0.0080000
        k(  146) = (  -1.3976160  -0.5151784   0.0000000), wk =   0.0080000
        k(  147) = (  -1.1979566  -0.3434523   0.0000000), wk =   0.0080000
        k(  148) = (  -0.9982971  -0.1717261   0.0000000), wk =   0.0080000
        k(  149) = (  -0.7986377   0.0000000   0.0000000), wk =   0.0040000
        k(  150) = (  -0.0000000   0.0000000   0.3249160), wk =   0.0040000
        k(  151) = (   0.0000000  -0.1717261   0.3790686), wk =   0.0080000
        k(  152) = (   0.1996594   0.0000000   0.3790686), wk =   0.0080000
        k(  153) = (  -1.9965943  -0.3434523  -0.1083053), wk =   0.0080000
        k(  154) = (  -1.7969349  -0.1717261  -0.1083053), wk =   0.0160000
        k(  155) = (  -1.5972754   0.0000000  -0.1083053), wk =   0.0080000
        k(  156) = (   0.0000000   1.2020829  -0.0541527), wk =   0.0080000
        k(  157) = (  -1.7969349  -0.3434523  -0.0541527), wk =   0.0160000
        k(  158) = (  -1.5972754  -0.1717261  -0.0541527), wk =   0.0160000
        k(  159) = (  -1.3976160   0.0000000  -0.0541527), wk =   0.0080000
        k(  160) = (  -0.0000000   1.0303568  -0.0000000), wk =   0.0040000
        k(  161) = (   0.1996594   1.2020829  -0.0000000), wk =   0.0080000
        k(  162) = (  -1.5972754  -0.3434523  -0.0000000), wk =   0.0080000
        k(  163) = (  -1.3976160  -0.1717261  -0.0000000), wk =   0.0080000
        k(  164) = (  -1.1979566   0.0000000  -0.0000000), wk =   0.0040000
        k(  165) = (   0.0000000   0.0000000   0.4332213), wk =   0.0040000
        k(  166) = (  -1.9965943  -0.1717261  -0.0541527), wk =   0.0080000
        k(  167) = (  -1.7969349   0.0000000  -0.0541527), wk =   0.0080000
        k(  168) = (   0.0000000   1.3738091   0.0000000), wk =   0.0040000
        k(  169) = (  -1.7969349  -0.1717261   0.0000000), wk =   0.0080000
        k(  170) = (  -1.5972754   0.0000000   0.0000000), wk =   0.0040000
        k(  171) = (  -1.9965943  -1.7172613  -0.5415266), wk =   0.0020000

                       cryst. coord.
        k(    1) = (   0.0000000   0.0000000   0.0000000), wk =   0.0020000
        k(    2) = (  -0.0000000   0.0000000   0.1000000), wk =   0.0080000
        k(    3) = (  -0.0000000   0.0000000   0.2000000), wk =   0.0080000
        k(    4) = (   0.0000000   0.0000000   0.3000000), wk =   0.0080000
        k(    5) = (  -0.0000000   0.0000000   0.4000000), wk =   0.0080000
        k(    6) = (   0.0000000   0.0000000  -0.5000000), wk =   0.0040000
        k(    7) = (  -0.0000000   0.1000000   0.0000000), wk =   0.0080000
        k(    8) = (  -0.0000000   0.1000000   0.1000000), wk =   0.0160000
        k(    9) = (  -0.0000000   0.1000000   0.2000000), wk =   0.0160000
        k(   10) = (  -0.0000000   0.1000000   0.3000000), wk =   0.0160000
        k(   11) = (  -0.0000000   0.1000000   0.4000000), wk =   0.0160000
        k(   12) = (   0.0000000   0.1000000  -0.5000000), wk =   0.0160000
        k(   13) = (   0.0000000   0.1000000  -0.4000000), wk =   0.0160000
        k(   14) = (   0.0000000   0.1000000  -0.3000000), wk =   0.0160000
        k(   15) = (   0.0000000   0.1000000  -0.2000000), wk =   0.0160000
        k(   16) = (   0.0000000   0.1000000  -0.1000000), wk =   0.0080000
        k(   17) = (  -0.0000000   0.2000000   0.0000000), wk =   0.0080000
        k(   18) = (  -0.0000000   0.2000000   0.1000000), wk =   0.0160000
        k(   19) = (  -0.0000000   0.2000000   0.2000000), wk =   0.0160000
        k(   20) = (   0.0000000   0.2000000   0.3000000), wk =   0.0160000
        k(   21) = (  -0.0000000   0.2000000   0.4000000), wk =   0.0160000
        k(   22) = (   0.0000000   0.2000000  -0.5000000), wk =   0.0160000
        k(   23) = (   0.0000000   0.2000000  -0.4000000), wk =   0.0160000
        k(   24) = (   0.0000000   0.2000000  -0.3000000), wk =   0.0160000
        k(   25) = (   0.0000000   0.2000000  -0.2000000), wk =   0.0080000
        k(   26) = (   0.0000000   0.2000000  -0.1000000), wk =   0.0160000
        k(   27) = (   0.0000000   0.3000000   0.0000000), wk =   0.0080000
        k(   28) = (  -0.0000000   0.3000000   0.1000000), wk =   0.0160000
        k(   29) = (   0.0000000   0.3000000   0.2000000), wk =   0.0160000
        k(   30) = (   0.0000000   0.3000000   0.3000000), wk =   0.0160000
        k(   31) = (  -0.0000000   0.3000000   0.4000000), wk =   0.0160000
        k(   32) = (   0.0000000   0.3000000  -0.5000000), wk =   0.0160000
        k(   33) = (   0.0000000   0.3000000  -0.4000000), wk =   0.0160000
        k(   34) = (   0.0000000   0.3000000  -0.3000000), wk =   0.0080000
        k(   35) = (   0.0000000   0.3000000  -0.2000000), wk =   0.0160000
        k(   36) = (   0.0000000   0.3000000  -0.1000000), wk =   0.0160000
        k(   37) = (  -0.0000000   0.4000000   0.0000000), wk =   0.0080000
        k(   38) = (  -0.0000000   0.4000000   0.1000000), wk =   0.0160000
        k(   39) = (  -0.0000000   0.4000000   0.2000000), wk =   0.0160000
        k(   40) = (  -0.0000000   0.4000000   0.3000000), wk =   0.0160000
        k(   41) = (  -0.0000000   0.4000000   0.4000000), wk =   0.0160000
        k(   42) = (   0.0000000   0.4000000  -0.5000000), wk =   0.0160000
        k(   43) = (   0.0000000   0.4000000  -0.4000000), wk =   0.0080000
        k(   44) = (   0.0000000   0.4000000  -0.3000000), wk =   0.0160000
        k(   45) = (   0.0000000   0.4000000  -0.2000000), wk =   0.0160000
        k(   46) = (  -0.0000000   0.4000000  -0.1000000), wk =   0.0160000
        k(   47) = (   0.0000000  -0.5000000   0.0000000), wk =   0.0040000
        k(   48) = (   0.0000000  -0.5000000   0.1000000), wk =   0.0160000
        k(   49) = (   0.0000000  -0.5000000   0.2000000), wk =   0.0160000
        k(   50) = (   0.0000000  -0.5000000   0.3000000), wk =   0.0160000
        k(   51) = (   0.0000000  -0.5000000   0.4000000), wk =   0.0160000
        k(   52) = (   0.0000000  -0.5000000  -0.5000000), wk =   0.0040000
        k(   53) = (   0.1000000   0.1000000   0.1000000), wk =   0.0160000
        k(   54) = (   0.1000000   0.1000000   0.2000000), wk =   0.0160000
        k(   55) = (   0.1000000   0.1000000   0.3000000), wk =   0.0160000
        k(   56) = (   0.1000000   0.1000000   0.4000000), wk =   0.0080000
        k(   57) = (   0.1000000   0.1000000  -0.1000000), wk =   0.0040000
        k(   58) = (   0.1000000   0.2000000   0.1000000), wk =   0.0160000
        k(   59) = (   0.1000000   0.2000000   0.2000000), wk =   0.0160000
        k(   60) = (   0.1000000   0.2000000   0.3000000), wk =   0.0160000
        k(   61) = (   0.1000000   0.2000000   0.4000000), wk =   0.0160000
        k(   62) = (   0.1000000   0.2000000  -0.5000000), wk =   0.0160000
        k(   63) = (   0.1000000   0.2000000  -0.4000000), wk =   0.0160000
        k(   64) = (   0.1000000   0.2000000  -0.2000000), wk =   0.0080000
        k(   65) = (   0.1000000   0.2000000  -0.1000000), wk =   0.0080000
        k(   66) = (   0.1000000   0.3000000   0.1000000), wk =   0.0160000
        k(   67) = (   0.1000000   0.3000000   0.2000000), wk =   0.0160000
        k(   68) = (   0.1000000   0.3000000   0.3000000), wk =   0.0160000
        k(   69) = (   0.1000000   0.3000000   0.4000000), wk =   0.0160000
        k(   70) = (   0.1000000   0.3000000  -0.5000000), wk =   0.0160000
        k(   71) = (   0.1000000   0.3000000  -0.3000000), wk =   0.0080000
        k(   72) = (   0.1000000   0.3000000  -0.2000000), wk =   0.0160000
        k(   73) = (   0.1000000   0.3000000  -0.1000000), wk =   0.0080000
        k(   74) = (   0.1000000   0.4000000   0.1000000), wk =   0.0080000
        k(   75) = (   0.1000000   0.4000000   0.2000000), wk =   0.0160000
        k(   76) = (   0.1000000   0.4000000   0.3000000), wk =   0.0160000
        k(   77) = (   0.1000000   0.4000000   0.4000000), wk =   0.0080000
        k(   78) = (   0.1000000   0.4000000  -0.4000000), wk =   0.0080000
        k(   79) = (   0.1000000   0.4000000  -0.3000000), wk =   0.0160000
        k(   80) = (   0.1000000   0.4000000  -0.2000000), wk =   0.0160000
        k(   81) = (   0.1000000   0.4000000  -0.1000000), wk =   0.0080000
        k(   82) = (   0.1000000  -0.5000000   0.2000000), wk =   0.0160000
        k(   83) = (   0.1000000  -0.5000000  -0.5000000), wk =   0.0080000
        k(   84) = (   0.1000000  -0.5000000  -0.4000000), wk =   0.0160000
        k(   85) = (   0.1000000  -0.5000000  -0.3000000), wk =   0.0160000
        k(   86) = (   0.1000000  -0.5000000  -0.2000000), wk =   0.0160000
        k(   87) = (   0.1000000  -0.5000000  -0.1000000), wk =   0.0080000
        k(   88) = (   0.1000000  -0.4000000   0.4000000), wk =   0.0080000
        k(   89) = (   0.1000000  -0.4000000  -0.5000000), wk =   0.0160000
        k(   90) = (   0.1000000  -0.4000000  -0.4000000), wk =   0.0160000
        k(   91) = (   0.1000000  -0.4000000  -0.3000000), wk =   0.0160000
        k(   92) = (   0.1000000  -0.4000000  -0.2000000), wk =   0.0160000
        k(   93) = (   0.1000000  -0.4000000  -0.1000000), wk =   0.0080000
        k(   94) = (   0.1000000  -0.3000000   0.3000000), wk =   0.0080000
        k(   95) = (   0.1000000  -0.3000000   0.4000000), wk =   0.0160000
        k(   96) = (   0.1000000  -0.3000000  -0.5000000), wk =   0.0160000
        k(   97) = (   0.1000000  -0.3000000  -0.4000000), wk =   0.0160000
        k(   98) = (   0.1000000  -0.3000000  -0.3000000), wk =   0.0160000
        k(   99) = (   0.1000000  -0.3000000  -0.2000000), wk =   0.0160000
        k(  100) = (   0.1000000  -0.3000000  -0.1000000), wk =   0.0080000
        k(  101) = (   0.1000000  -0.2000000   0.2000000), wk =   0.0080000
        k(  102) = (   0.1000000  -0.2000000   0.3000000), wk =   0.0160000
        k(  103) = (   0.1000000  -0.2000000   0.4000000), wk =   0.0160000
        k(  104) = (   0.1000000  -0.2000000  -0.5000000), wk =   0.0160000
        k(  105) = (   0.1000000  -0.2000000  -0.4000000), wk =   0.0160000
        k(  106) = (   0.1000000  -0.2000000  -0.3000000), wk =   0.0160000
        k(  107) = (   0.1000000  -0.2000000  -0.2000000), wk =   0.0160000
        k(  108) = (   0.1000000  -0.2000000  -0.1000000), wk =   0.0080000
        k(  109) = (   0.1000000  -0.1000000   0.1000000), wk =   0.0040000
        k(  110) = (   0.1000000  -0.1000000   0.2000000), wk =   0.0080000
        k(  111) = (   0.1000000  -0.1000000   0.3000000), wk =   0.0080000
        k(  112) = (   0.1000000  -0.1000000   0.4000000), wk =   0.0080000
        k(  113) = (   0.1000000  -0.1000000  -0.5000000), wk =   0.0080000
        k(  114) = (   0.1000000  -0.1000000  -0.4000000), wk =   0.0080000
        k(  115) = (   0.1000000  -0.1000000  -0.3000000), wk =   0.0080000
        k(  116) = (   0.1000000  -0.1000000  -0.2000000), wk =   0.0080000
        k(  117) = (   0.1000000  -0.1000000  -0.1000000), wk =   0.0040000
        k(  118) = (   0.2000000   0.2000000   0.2000000), wk =   0.0160000
        k(  119) = (   0.2000000   0.2000000   0.3000000), wk =   0.0080000
        k(  120) = (   0.2000000   0.2000000  -0.2000000), wk =   0.0040000
        k(  121) = (   0.2000000   0.3000000   0.2000000), wk =   0.0080000
        k(  122) = (   0.2000000   0.3000000   0.3000000), wk =   0.0080000
        k(  123) = (   0.2000000   0.3000000  -0.3000000), wk =   0.0080000
        k(  124) = (   0.2000000   0.3000000  -0.2000000), wk =   0.0080000
        k(  125) = (   0.2000000   0.4000000  -0.4000000), wk =   0.0080000
        k(  126) = (   0.2000000   0.4000000  -0.3000000), wk =   0.0160000
        k(  127) = (   0.2000000   0.4000000  -0.2000000), wk =   0.0080000
        k(  128) = (   0.2000000  -0.5000000  -0.5000000), wk =   0.0080000
        k(  129) = (   0.2000000  -0.5000000  -0.4000000), wk =   0.0160000
        k(  130) = (   0.2000000  -0.5000000  -0.3000000), wk =   0.0160000
        k(  131) = (   0.2000000  -0.5000000  -0.2000000), wk =   0.0080000
        k(  132) = (   0.2000000  -0.4000000   0.4000000), wk =   0.0080000
        k(  133) = (   0.2000000  -0.4000000  -0.5000000), wk =   0.0160000
        k(  134) = (   0.2000000  -0.4000000  -0.4000000), wk =   0.0160000
        k(  135) = (   0.2000000  -0.4000000  -0.3000000), wk =   0.0160000
        k(  136) = (   0.2000000  -0.4000000  -0.2000000), wk =   0.0080000
        k(  137) = (   0.2000000  -0.3000000   0.3000000), wk =   0.0080000
        k(  138) = (   0.2000000  -0.3000000   0.4000000), wk =   0.0160000
        k(  139) = (   0.2000000  -0.3000000  -0.5000000), wk =   0.0160000
        k(  140) = (   0.2000000  -0.3000000  -0.4000000), wk =   0.0160000
        k(  141) = (   0.2000000  -0.3000000  -0.3000000), wk =   0.0160000
        k(  142) = (   0.2000000  -0.3000000  -0.2000000), wk =   0.0080000
        k(  143) = (   0.2000000  -0.2000000   0.2000000), wk =   0.0040000
        k(  144) = (   0.2000000  -0.2000000   0.3000000), wk =   0.0080000
        k(  145) = (   0.2000000  -0.2000000   0.4000000), wk =   0.0080000
        k(  146) = (   0.2000000  -0.2000000  -0.5000000), wk =   0.0080000
        k(  147) = (   0.2000000  -0.2000000  -0.4000000), wk =   0.0080000
        k(  148) = (   0.2000000  -0.2000000  -0.3000000), wk =   0.0080000
        k(  149) = (   0.2000000  -0.2000000  -0.2000000), wk =   0.0040000
        k(  150) = (   0.3000000   0.3000000  -0.3000000), wk =   0.0040000
        k(  151) = (   0.3000000   0.4000000  -0.4000000), wk =   0.0080000
        k(  152) = (   0.3000000   0.4000000  -0.3000000), wk =   0.0080000
        k(  153) = (   0.3000000  -0.5000000  -0.5000000), wk =   0.0080000
        k(  154) = (   0.3000000  -0.5000000  -0.4000000), wk =   0.0160000
        k(  155) = (   0.3000000  -0.5000000  -0.3000000), wk =   0.0080000
        k(  156) = (   0.3000000  -0.4000000   0.4000000), wk =   0.0080000
        k(  157) = (   0.3000000  -0.4000000  -0.5000000), wk =   0.0160000
        k(  158) = (   0.3000000  -0.4000000  -0.4000000), wk =   0.0160000
        k(  159) = (   0.3000000  -0.4000000  -0.3000000), wk =   0.0080000
        k(  160) = (   0.3000000  -0.3000000   0.3000000), wk =   0.0040000
        k(  161) = (   0.3000000  -0.3000000   0.4000000), wk =   0.0080000
        k(  162) = (   0.3000000  -0.3000000  -0.5000000), wk =   0.0080000
        k(  163) = (   0.3000000  -0.3000000  -0.4000000), wk =   0.0080000
        k(  164) = (   0.3000000  -0.3000000  -0.3000000), wk =   0.0040000
        k(  165) = (   0.4000000   0.4000000  -0.4000000), wk =   0.0040000
        k(  166) = (   0.4000000  -0.5000000  -0.5000000), wk =   0.0080000
        k(  167) = (   0.4000000  -0.5000000  -0.4000000), wk =   0.0080000
        k(  168) = (   0.4000000  -0.4000000   0.4000000), wk =   0.0040000
        k(  169) = (   0.4000000  -0.4000000  -0.5000000), wk =   0.0080000
        k(  170) = (   0.4000000  -0.4000000  -0.4000000), wk =   0.0040000
        k(  171) = (  -0.5000000  -0.5000000  -0.5000000), wk =   0.0020000

     Dense  grid:    74033 G-vectors     FFT dimensions: (  81,  81,  81)

     Smooth grid:    18773 G-vectors     FFT dimensions: (  54,  54,  54)

     Dynamical RAM for                 wfc:       0.02 MB

     Dynamical RAM for     wfc (w. buffer):       2.65 MB

     Dynamical RAM for           str. fact:       0.07 MB

     Dynamical RAM for           local pot:       0.00 MB

     Dynamical RAM for          nlocal pot:       0.03 MB

     Dynamical RAM for                qrad:       4.82 MB

     Dynamical RAM for          rho,v,vnew:       0.37 MB

     Dynamical RAM for               rhoin:       0.12 MB

     Dynamical RAM for            rho*nmix:       0.38 MB

     Dynamical RAM for           G-vectors:       0.09 MB

     Dynamical RAM for          h,s,v(r/c):       0.08 MB

     Dynamical RAM for          <psi|beta>:       0.01 MB

     Dynamical RAM for                 psi:       0.03 MB

     Dynamical RAM for                hpsi:       0.03 MB

     Dynamical RAM for                spsi:       0.03 MB

     Dynamical RAM for      wfcinit/wfcrot:       0.05 MB

     Dynamical RAM for           addusdens:       4.42 MB

     Dynamical RAM for          addusforce:       4.49 MB

     Dynamical RAM for         addusstress:       4.73 MB

     Estimated static dynamical RAM per process >       9.12 MB

     Estimated max dynamical RAM per process >      13.85 MB

     Estimated total dynamical RAM >     664.76 MB

     Check: negative core charge=   -0.000001

     Initial potential from superposition of free atoms

     starting charge   32.99867, renormalised to   33.00000
     Starting wfcs are   25 randomized atomic wfcs
     Checking if some PAW data can be deallocated... 
       PAW data deallocated on   36 nodes for type:  1
       PAW data deallocated on   24 nodes for type:  2
       PAW data deallocated on   36 nodes for type:  3

     total cpu time spent up to now is        2.3 secs

     Self-consistent Calculation

     iteration #  1     ecut=    40.00 Ry     beta= 0.70
     Davidson diagonalization with overlap
     ethr =  1.00E-02,  avg # of iterations =  2.1

     total cpu time spent up to now is        6.5 secs

     total energy              =    -534.52201257 Ry
     estimated scf accuracy    <       0.75857504 Ry

     iteration #  2     ecut=    40.00 Ry     beta= 0.70
     Davidson diagonalization with overlap
     ethr =  2.30E-03,  avg # of iterations =  3.4

     total cpu time spent up to now is       11.3 secs

     total energy              =    -533.58722803 Ry
     estimated scf accuracy    <       8.50284725 Ry

     iteration #  3     ecut=    40.00 Ry     beta= 0.70
     Davidson diagonalization with overlap
     ethr =  2.30E-03,  avg # of iterations =  3.0

     total cpu time spent up to now is       15.8 secs

     total energy              =    -534.96524582 Ry
     estimated scf accuracy    <       0.12348391 Ry

     iteration #  4     ecut=    40.00 Ry     beta= 0.70
     Davidson diagonalization with overlap
     ethr =  3.74E-04,  avg # of iterations =  1.3

     total cpu time spent up to now is       19.4 secs

     total energy              =    -534.95771342 Ry
     estimated scf accuracy    <       0.06064569 Ry

     iteration #  5     ecut=    40.00 Ry     beta= 0.70
     Davidson diagonalization with overlap
     ethr =  1.84E-04,  avg # of iterations =  1.0

     total cpu time spent up to now is       23.0 secs

     total energy              =    -534.95377905 Ry
     estimated scf accuracy    <       0.02380592 Ry

     iteration #  6     ecut=    40.00 Ry     beta= 0.70
     Davidson diagonalization with overlap
     ethr =  7.21E-05,  avg # of iterations =  2.0

     total cpu time spent up to now is       26.7 secs

     total energy              =    -534.95641520 Ry
     estimated scf accuracy    <       0.00062560 Ry

     iteration #  7     ecut=    40.00 Ry     beta= 0.70
     Davidson diagonalization with overlap
     ethr =  1.90E-06,  avg # of iterations =  3.1

     total cpu time spent up to now is       31.5 secs

     total energy              =    -534.95659184 Ry
     estimated scf accuracy    <       0.00011077 Ry

     iteration #  8     ecut=    40.00 Ry     beta= 0.70
     Davidson diagonalization with overlap
     ethr =  3.36E-07,  avg # of iterations =  1.2

     total cpu time spent up to now is       35.2 secs

     total energy              =    -534.95658507 Ry
     estimated scf accuracy    <       0.00003290 Ry

     iteration #  9     ecut=    40.00 Ry     beta= 0.70
     Davidson diagonalization with overlap
     ethr =  9.97E-08,  avg # of iterations =  2.0

     total cpu time spent up to now is       39.2 secs

     total energy              =    -534.95659211 Ry
     estimated scf accuracy    <       0.00000095 Ry

     iteration # 10     ecut=    40.00 Ry     beta= 0.70
     Davidson diagonalization with overlap
     ethr =  2.89E-09,  avg # of iterations =  2.2

     total cpu time spent up to now is       43.3 secs

     total energy              =    -534.95659228 Ry
     estimated scf accuracy    <       0.00000005 Ry

     iteration # 11     ecut=    40.00 Ry     beta= 0.70
     Davidson diagonalization with overlap
     ethr =  1.46E-10,  avg # of iterations =  2.9

     total cpu time spent up to now is       47.9 secs

     total energy              =    -534.95659229 Ry
     estimated scf accuracy    <          5.5E-09 Ry

     iteration # 12     ecut=    40.00 Ry     beta= 0.70
     Davidson diagonalization with overlap
     ethr =  1.67E-11,  avg # of iterations =  2.4

     total cpu time spent up to now is       52.2 secs

     total energy              =    -534.95659230 Ry
     estimated scf accuracy    <          2.6E-10 Ry

     iteration # 13     ecut=    40.00 Ry     beta= 0.70
     Davidson diagonalization with overlap
     ethr =  7.81E-13,  avg # of iterations =  3.0

     total cpu time spent up to now is       56.7 secs

     End of self-consistent calculation

          k = 0.0000 0.0000 0.0000 (  2363 PWs)   bands (ev):

   -49.8470 -26.1454 -25.7892 -25.7082 -12.4410  -9.4948  -8.8047   0.6428
     2.4921   2.7219   2.8786   2.9587   3.4320   3.9421   4.1902   4.2881
     5.5335   7.1816   7.3277   8.6875   9.3661

     occupation numbers 
     1.0000   1.0000   1.0000   1.0000   1.0000   1.0000   1.0000   1.0000
     1.0000   1.0000   1.0000   1.0000   1.0000   1.0000   1.0000   1.0000
     1.0000  -0.0000  -0.0000  -0.0000  -0.0000

          k = 0.1997 0.1717 0.0000 (  2355 PWs)   bands (ev):

   -49.8453 -26.1617 -25.7848 -25.7283 -12.3145  -9.4242  -8.8095   0.7793
     2.2275   2.3512   2.5873   3.1353   3.2709   3.7447   3.8845   4.0619
     5.8319   7.3929   7.4843   8.7468   9.8465

     occupation numbers 
     1.0000   1.0000   1.0000   1.0000   1.0000   1.0000   1.0000   1.0000
     1.0000   1.0000   1.0000   1.0000   1.0000   1.0000   1.0000   1.0000
     1.0000  -0.0000  -0.0000  -0.0000  -0.0000

          k = 0.3993 0.3435 0.0000 (  2349 PWs)   bands (ev):

   -49.8408 -26.2037 -25.7808 -25.7736 -11.9705  -9.2323  -8.8240   1.1457
     1.6430   1.8247   2.0564   2.3876   2.7107   3.1685   3.8735   4.0014
     6.4542   7.8563   7.9326   9.0074  10.7804

     occupation numbers 
     1.0000   1.0000   1.0000   1.0000   1.0000   1.0000   1.0000   1.0000
     1.0000   1.0000   1.0000   1.0000   1.0000   1.0000   1.0000   1.0000
     1.0336  -0.0000  -0.0000  -0.0000  -0.0000

          k = 0.5990 0.5152 0.0000 (  2337 PWs)   bands (ev):

   -49.8352 -26.2539 -25.8445 -25.7596 -11.5144  -8.9785  -8.8453   0.5290
     1.4171   1.6655   1.7285   1.8203   1.8816   2.6951   3.7405   4.0100
     7.2535   8.4236   8.5758   9.3792  11.3476

     occupation numbers 
     1.0000   1.0000   1.0000   1.0000   1.0000   1.0000   1.0000   1.0000
     1.0000   1.0000   1.0000   1.0000   1.0000   1.0000   1.0000   1.0000
    -0.0000  -0.0000  -0.0000  -0.0000  -0.0000

          k = 0.7986 0.6869 0.0000 (  2323 PWs)   bands (ev):

   -49.8308 -26.2933 -25.8954 -25.7483 -11.1131  -8.8654  -8.7561  -0.3107
     0.8203   1.1726   1.6825   1.7864   2.2234   2.3368   3.4493   3.9506
     8.0819   8.9347   9.1416   9.6667  11.4042

     occupation numbers 
     1.0000   1.0000   1.0000   1.0000   1.0000   1.0000   1.0000   1.0000
     1.0000   1.0000   1.0000   1.0000   1.0000   1.0000   1.0000   1.0000
    -0.0000  -0.0000  -0.0000  -0.0000  -0.0000

          k =-0.9983-0.8586 0.0000 (  2324 PWs)   bands (ev):

   -49.8290 -26.3080 -25.9147 -25.7441 -10.9503  -8.8737  -8.6662  -0.6298
     0.5808   0.9710   1.7557   1.8545   1.9639   2.6026   3.2789   3.8777
     8.4872   9.1552   9.3465   9.7910  11.4388

     occupation numbers 
     1.0000   1.0000   1.0000   1.0000   1.0000   1.0000   1.0000   1.0000
     1.0000   1.0000   1.0000   1.0000   1.0000   1.0000   1.0000   1.0000
    -0.0000  -0.0000  -0.0000  -0.0000  -0.0000

          k = 0.1997 0.0000 0.0542 (  2349 PWs)   bands (ev):

   -49.8456 -26.1437 -25.7855 -25.7289 -12.4298  -9.4367  -8.8132   0.7668
     2.3428   2.6838   2.9208   3.0026   3.2293   3.8746   3.9735   4.1365
     5.8202   7.1238   7.2891   8.7360   9.6288

     occupation numbers 
     1.0000   1.0000   1.0000   1.0000   1.0000   1.0000   1.0000   1.0000
     1.0000   1.0000   1.0000   1.0000   1.0000   1.0000   1.0000   1.0000
     1.0000  -0.0003  -0.0000  -0.0000  -0.0000

          k = 0.3993 0.1717 0.0542 (  2349 PWs)   bands (ev):

   -49.8417 -26.1574 -25.7824 -25.7752 -12.2856  -9.2720  -8.8256   1.0799
     2.0487   2.2956   2.5398   2.6192   3.1377   3.2180   3.8539   4.0538
     6.4219   7.2409   7.3691   8.9942  10.2849

     occupation numbers 
     1.0000   1.0000   1.0000   1.0000   1.0000   1.0000   1.0000   1.0000
     1.0000   1.0000   1.0000   1.0000   1.0000   1.0000   1.0000   1.0000
     1.0258  -0.0000  -0.0000  -0.0000  -0.0000

          k = 0.5990 0.3435 0.0542 (  2336 PWs)   bands (ev):

   -49.8363 -26.1980 -25.8467 -25.7617 -11.9357  -9.0315  -8.8447   1.4020
     1.5923   1.7930   1.9313   2.0029   2.2215   2.8051   3.8417   4.1048
     7.1805   7.7089   7.8221   9.4195  10.9772

     occupation numbers 
     1.0000   1.0000   1.0000   1.0000   1.0000   1.0000   1.0000   1.0000
     1.0000   1.0000   1.0000   1.0000   1.0000   1.0000   1.0000   1.0000
    -0.0001  -0.0000  -0.0000  -0.0000  -0.0000

          k = 0.7986 0.5152 0.0542 (  2331 PWs)   bands (ev):

   -49.8316 -26.2491 -25.8973 -25.7500 -11.4873  -8.8721  -8.7937   0.5502
     1.1236   1.1352   1.7030   1.8760   2.3350   2.3631   3.5929   4.0719
     7.9883   8.3450   8.5135   9.7291  11.2654

     occupation numbers 
     1.0000   1.0000   1.0000   1.0000   1.0000   1.0000   1.0000   1.0000
     1.0000   1.0000   1.0000   1.0000   1.0000   1.0000   1.0000   1.0000
    -0.0000  -0.0000  -0.0000  -0.0000  -0.0000

          k = 0.9983 0.6869 0.0542 (  2329 PWs)   bands (ev):

   -49.8294 -26.2914 -25.9154 -25.7447 -11.1031  -8.8816  -8.6749  -0.3029
     0.6800   0.9486   1.6087   1.9534   2.1088   2.6202   3.3267   3.9213
     8.4799   8.8888   9.1131   9.7815  11.3554

     occupation numbers 
     1.0000   1.0000   1.0000   1.0000   1.0000   1.0000   1.0000   1.0000
     1.0000   1.0000   1.0000   1.0000   1.0000   1.0000   1.0000   1.0000
    -0.0000  -0.0000  -0.0000  -0.0000  -0.0000

          k =-0.7986-0.8586 0.0542 (  2332 PWs)   bands (ev):

   -49.8304 -26.3100 -25.8947 -25.7478 -10.9599  -8.8776  -8.7258  -0.6368
     0.7004   1.1614   1.4961   1.8309   2.2996   2.4382   3.3834   3.8464
     8.1180   9.1911   9.3789   9.5995  11.3663

     occupation numbers 
     1.0000   1.0000   1.0000   1.0000   1.0000   1.0000   1.0000   1.0000
     1.0000   1.0000   1.0000   1.0000   1.0000   1.0000   1.0000   1.0000
    -0.0000  -0.0000  -0.0000  -0.0000  -0.0000

          k =-0.5990-0.6869 0.0542 (  2330 PWs)   bands (ev):

   -49.8344 -26.2983 -25.8428 -25.7579 -11.1388  -8.9237  -8.8575  -0.3305
     1.1486   1.4055   1.7375   1.7619   1.9269   2.7266   3.6362   3.8405
     7.3134   9.0374   9.1691   9.3287  11.4665

     occupation numbers 
     1.0000   1.0000   1.0000   1.0000   1.0000   1.0000   1.0000   1.0000
     1.0000   1.0000   1.0000   1.0000   1.0000   1.0000   1.0000   1.0000
    -0.0000  -0.0000  -0.0000  -0.0000  -0.0000

          k =-0.3993-0.5152 0.0542 (  2341 PWs)   bands (ev):

   -49.8397 -26.2599 -25.7787 -25.7714 -11.5476  -9.1715  -8.8351   0.5009
     1.2773   1.4228   1.9114   2.0544   2.6108   3.1601   3.7675   3.8746
     6.5144   8.5930   8.6297   9.0140  11.1593

     occupation numbers 
     1.0000   1.0000   1.0000   1.0000   1.0000   1.0000   1.0000   1.0000
     1.0000   1.0000   1.0000   1.0000   1.0000   1.0000   1.0000   1.0000
     1.0223  -0.0000  -0.0000  -0.0000  -0.0000

          k =-0.1997-0.3435 0.0542 (  2357 PWs)   bands (ev):

   -49.8444 -26.2083 -25.7831 -25.7268 -11.9986  -9.3772  -8.8175   0.8507
     1.6123   1.6814   2.3608   2.7954   3.3767   3.5444   3.8039   3.9132
     5.8772   8.0242   8.0379   8.7716  10.3038

     occupation numbers 
     1.0000   1.0000   1.0000   1.0000   1.0000   1.0000   1.0000   1.0000
     1.0000   1.0000   1.0000   1.0000   1.0000   1.0000   1.0000   1.0000
     1.0000  -0.0000  -0.0000  -0.0000  -0.0000

          k = 0.0000-0.1717 0.0542 (  2355 PWs)   bands (ev):

   -49.8467 -26.1634 -25.7885 -25.7076 -12.3255  -9.4751  -8.8101   0.6770
     2.1957   2.5068   2.5782   3.2948   3.3189   3.8297   3.9982   4.2076
     5.5533   7.4641   7.5287   8.7066   9.5989

     occupation numbers 
     1.0000   1.0000   1.0000   1.0000   1.0000   1.0000   1.0000   1.0000
     1.0000   1.0000   1.0000   1.0000   1.0000   1.0000   1.0000   1.0000
     1.0000  -0.0000  -0.0000  -0.0000  -0.0000

          k = 0.3993 0.0000 0.1083 (  2347 PWs)   bands (ev):

   -49.8420 -26.1395 -25.7830 -25.7759 -12.4006  -9.2806  -8.8337   1.0656
     2.0628   2.4209   2.6495   2.9807   3.1888   3.5202   3.8286   3.9886
     6.4320   6.9863   7.1652   8.9573  10.0148

     occupation numbers 
     1.0000   1.0000   1.0000   1.0000   1.0000   1.0000   1.0000   1.0000
     1.0000   1.0000   1.0000   1.0000   1.0000   1.0000   1.0000   1.0000
     1.0286  -0.0104  -0.0001  -0.0000  -0.0000

          k = 0.5990 0.1717 0.1083 (  2349 PWs)   bands (ev):

   -49.8372 -26.1520 -25.8485 -25.7633 -12.2499  -9.0704  -8.8479   1.3261
     1.6862   1.8972   2.2360   2.6561   2.9558   3.1350   3.8222   4.0005
     7.0175   7.1884   7.2811   9.4034  10.3989

     occupation numbers 
     1.0000   1.0000   1.0000   1.0000   1.0000   1.0000   1.0000   1.0000
     1.0000   1.0000   1.0000   1.0000   1.0000   1.0000   1.0000   1.0000
    -0.0056  -0.0000  -0.0000  -0.0000  -0.0000

          k = 0.7986 0.3435 0.1083 (  2328 PWs)   bands (ev):

   -49.8327 -26.1934 -25.8995 -25.7520 -11.9075  -8.9034  -8.8153   1.0297
     1.4293   1.6276   1.7898   1.9628   2.4991   2.7808   3.7571   4.1002
     7.4745   7.7156   8.0890   9.7492  10.8405

     occupation numbers 
     1.0000   1.0000   1.0000   1.0000   1.0000   1.0000   1.0000   1.0000
     1.0000   1.0000   1.0000   1.0000   1.0000   1.0000   1.0000   1.0000
    -0.0000  -0.0000  -0.0000  -0.0000  -0.0000

          k = 0.9983 0.5152 0.1083 (  2336 PWs)   bands (ev):

   -49.8302 -26.2472 -25.9173 -25.7464 -11.4769  -8.9021  -8.6977   0.5523
     0.8678   1.0071   1.4836   1.9741   2.4618   2.7020   3.4664   4.0112
     8.2042   8.4850   8.4935   9.7704  11.1041

     occupation numbers 
     1.0000   1.0000   1.0000   1.0000   1.0000   1.0000   1.0000   1.0000
     1.0000   1.0000   1.0000   1.0000   1.0000   1.0000   1.0000   1.0000
    -0.0000  -0.0000  -0.0000  -0.0000  -0.0000

          k = 1.1980 0.6869 0.1083 (  2328 PWs)   bands (ev):

   -49.8307 -26.2933 -25.8954 -25.7484 -11.1129  -8.9027  -8.7155  -0.3108
     0.7852   1.1029   1.3869   1.9073   2.4486   2.5751   3.4207   3.8271
     8.1337   8.9260   9.1442   9.5400  11.2421

     occupation numbers 
     1.0000   1.0000   1.0000   1.0000   1.0000   1.0000   1.0000   1.0000
     1.0000   1.0000   1.0000   1.0000   1.0000   1.0000   1.0000   1.0000
    -0.0000  -0.0000  -0.0000  -0.0000  -0.0000

          k =-0.5990-0.8586 0.1083 (  2329 PWs)   bands (ev):

   -49.8341 -26.3151 -25.8421 -25.7573 -10.9848  -8.8881  -8.8764  -0.6549
     1.0066   1.2869   1.6889   1.7093   2.1134   2.8030   3.6124   3.6953
     7.3554   9.1519   9.3440   9.4505  11.4545

     occupation numbers 
     1.0000   1.0000   1.0000   1.0000   1.0000   1.0000   1.0000   1.0000
     1.0000   1.0000   1.0000   1.0000   1.0000   1.0000   1.0000   1.0000
    -0.0000  -0.0000  -0.0000  -0.0000  -0.0000

          k =-0.3993-0.6869 0.1083 (  2340 PWs)   bands (ev):

   -49.8389 -26.3046 -25.7771 -25.7697 -11.1701  -9.1047  -8.8639  -0.3544
     1.1135   1.4243   1.6223   1.9888   2.5803   3.1227   3.5887   3.8346
     6.5726   8.8918   9.2151   9.2991  11.3683

     occupation numbers 
     1.0000   1.0000   1.0000   1.0000   1.0000   1.0000   1.0000   1.0000
     1.0000   1.0000   1.0000   1.0000   1.0000   1.0000   1.0000   1.0000
     0.9279  -0.0000  -0.0000  -0.0000  -0.0000

          k =-0.1997-0.5152 0.1083 (  2340 PWs)   bands (ev):

   -49.8434 -26.2647 -25.7809 -25.7249 -11.5743  -9.3077  -8.8412   0.4768
     0.9593   1.2762   2.3030   2.4417   3.1120   3.5169   3.6422   3.9298
     5.9325   8.6868   8.7745   8.8382  10.7276

     occupation numbers 
     1.0000   1.0000   1.0000   1.0000   1.0000   1.0000   1.0000   1.0000
     1.0000   1.0000   1.0000   1.0000   1.0000   1.0000   1.0000   1.0000
     1.0000  -0.0000  -0.0000  -0.0000  -0.0000

          k = 0.0000-0.3435 0.1083 (  2350 PWs)   bands (ev):

   -49.8458 -26.2100 -25.7867 -25.7060 -12.0092  -9.4207  -8.8279   0.7649
     1.5940   1.6520   2.5462   3.0275   3.2864   3.5862   3.9179   4.0829
     5.5943   8.0584   8.1241   8.7567  10.0780

     occupation numbers 
     1.0000   1.0000   1.0000   1.0000   1.0000   1.0000   1.0000   1.0000
     1.0000   1.0000   1.0000   1.0000   1.0000   1.0000   1.0000   1.0000
     1.0000  -0.0000  -0.0000  -0.0000  -0.0000

          k = 0.1997-0.1717 0.1083 (  2348 PWs)   bands (ev):

   -49.8453 -26.1617 -25.7848 -25.7283 -12.3143  -9.4110  -8.8257   0.8208
     2.2376   2.3522   2.5896   3.1157   3.2451   3.6652   3.9143   4.0609
     5.8468   7.3893   7.4978   8.7442   9.8989

     occupation numbers 
     1.0000   1.0000   1.0000   1.0000   1.0000   1.0000   1.0000   1.0000
     1.0000   1.0000   1.0000   1.0000   1.0000   1.0000   1.0000   1.0000
     1.0000  -0.0000  -0.0000  -0.0000  -0.0000

          k = 0.5990 0.0000 0.1625 (  2351 PWs)   bands (ev):

   -49.8375 -26.1342 -25.8492 -25.7640 -12.3646  -9.0855  -8.8481   1.2699
     1.6064   1.9610   2.3395   3.0581   3.3874   3.4669   3.7157   3.7922
     6.8466   6.9466   7.2317   9.3410  10.0597

     occupation numbers 
     1.0000   1.0000   1.0000   1.0000   1.0000   1.0000   1.0000   1.0000
     1.0000   1.0000   1.0000   1.0000   1.0000   1.0000   1.0000   1.0000
    -0.0303  -0.0198  -0.0000  -0.0000  -0.0000

          k = 0.7986 0.1717 0.1625 (  2336 PWs)   bands (ev):

   -49.8335 -26.1476 -25.9014 -25.7537 -12.2210  -8.9429  -8.8173   0.9610
     1.4244   1.8738   2.0051   2.7895   2.9283   3.3140   3.8014   3.9443
     6.9468   7.0083   8.0509   9.7029  10.2534

     occupation numbers 
     1.0000   1.0000   1.0000   1.0000   1.0000   1.0000   1.0000   1.0000
     1.0000   1.0000   1.0000   1.0000   1.0000   1.0000   1.0000   1.0000
    -0.0197  -0.0068  -0.0000  -0.0000  -0.0000

          k = 0.9983 0.3435 0.1625 (  2338 PWs)   bands (ev):

   -49.8313 -26.1917 -25.9196 -25.7484 -11.8967  -8.9272  -8.7253   0.7626
     1.3473   1.4706   1.7634   1.9724   2.7362   3.0244   3.6672   4.0355
     7.4598   7.6703   8.4672   9.7490  10.6788

     occupation numbers 
     1.0000   1.0000   1.0000   1.0000   1.0000   1.0000   1.0000   1.0000
     1.0000   1.0000   1.0000   1.0000   1.0000   1.0000   1.0000   1.0000
    -0.0000  -0.0000  -0.0000  -0.0000  -0.0000

          k = 1.1980 0.5152 0.1625 (  2337 PWs)   bands (ev):

   -49.8316 -26.2491 -25.8973 -25.7501 -11.4871  -8.9339  -8.7266   0.5481
     0.9994   1.1076   1.3262   2.0343   2.6066   2.7259   3.5588   3.9064
     8.1200   8.2786   8.5194   9.5125  11.0147

     occupation numbers 
     1.0000   1.0000   1.0000   1.0000   1.0000   1.0000   1.0000   1.0000
     1.0000   1.0000   1.0000   1.0000   1.0000   1.0000   1.0000   1.0000
    -0.0000  -0.0000  -0.0000  -0.0000  -0.0000

          k = 1.3976 0.6869 0.1625 (  2336 PWs)   bands (ev):

   -49.8344 -26.2983 -25.8428 -25.7580 -11.1385  -8.9329  -8.8467  -0.3311
     1.0738   1.2941   1.6189   1.7122   2.2991   2.8713   3.6296   3.7123
     7.3689   8.9749   9.2021   9.2342  11.3599

     occupation numbers 
     1.0000   1.0000   1.0000   1.0000   1.0000   1.0000   1.0000   1.0000
     1.0000   1.0000   1.0000   1.0000   1.0000   1.0000   1.0000   1.0000
    -0.0000  -0.0000  -0.0000  -0.0000  -0.0000

          k =-0.3993-0.8586 0.1625 (  2338 PWs)   bands (ev):

   -49.8385 -26.3214 -25.7765 -25.7691 -11.0150  -9.0534  -8.9024  -0.6772
     1.0226   1.3717   1.6987   1.8865   2.5934   3.0576   3.5027   3.8530
     6.6088   8.8718   9.4596   9.5137  11.4333

     occupation numbers 
     1.0000   1.0000   1.0000   1.0000   1.0000   1.0000   1.0000   1.0000
     1.0000   1.0000   1.0000   1.0000   1.0000   1.0000   1.0000   1.0000
     0.8082  -0.0000  -0.0000  -0.0000  -0.0000

          k =-0.1997-0.6869 0.1625 (  2338 PWs)   bands (ev):

   -49.8425 -26.3096 -25.7792 -25.7233 -11.1951  -9.2354  -8.8800  -0.3735
     0.8576   1.2574   2.0335   2.3356   2.8938   3.4659   3.5388   3.9561
     5.9792   8.8136   9.3128   9.3723  11.0172

     occupation numbers 
     1.0000   1.0000   1.0000   1.0000   1.0000   1.0000   1.0000   1.0000
     1.0000   1.0000   1.0000   1.0000   1.0000   1.0000   1.0000   1.0000
     1.0000  -0.0000  -0.0000  -0.0000  -0.0000

          k =-0.0000-0.5152 0.1625 (  2351 PWs)   bands (ev):

   -49.8448 -26.2666 -25.7846 -25.7041 -11.5844  -9.3454  -8.8594   0.4651
     0.8647   1.2695   2.5966   2.7040   2.7650   3.5337   3.9622   3.9944
     5.6414   8.7344   8.8156   8.8680  10.5380

     occupation numbers 
     1.0000   1.0000   1.0000   1.0000   1.0000   1.0000   1.0000   1.0000
     1.0000   1.0000   1.0000   1.0000   1.0000   1.0000   1.0000   1.0000
     1.0000  -0.0000  -0.0000  -0.0000  -0.0000

          k = 0.1997-0.3435 0.1625 (  2350 PWs)   bands (ev):

   -49.8444 -26.2082 -25.7831 -25.7268 -11.9983  -9.3525  -8.8474   0.9171
     1.6056   1.7359   2.3504   2.7914   3.1608   3.5589   3.7253   4.0425
     5.8961   8.0322   8.0384   8.7728  10.3977

     occupation numbers 
     1.0000   1.0000   1.0000   1.0000   1.0000   1.0000   1.0000   1.0000
     1.0000   1.0000   1.0000   1.0000   1.0000   1.0000   1.0000   1.0000
     1.0000  -0.0000  -0.0000  -0.0000  -0.0000

          k = 0.3993-0.1717 0.1625 (  2345 PWs)   bands (ev):

   -49.8417 -26.1574 -25.7824 -25.7752 -12.2854  -9.2548  -8.8451   1.1088
     2.0639   2.2437   2.4999   2.6233   3.1115   3.2901   3.8532   4.0531
     6.4579   7.2207   7.3880   8.9199  10.2929

     occupation numbers 
     1.0000   1.0000   1.0000   1.0000   1.0000   1.0000   1.0000   1.0000
     1.0000   1.0000   1.0000   1.0000   1.0000   1.0000   1.0000   1.0000
     1.0342  -0.0000  -0.0000  -0.0000  -0.0000

          k = 0.7986 0.0000 0.2166 (  2334 PWs)   bands (ev):

   -49.8338 -26.1300 -25.9021 -25.7543 -12.3356  -8.9697  -8.8051   0.9130
     1.3397   2.0111   2.0567   3.1706   3.4388   3.5123   3.7094   3.8138
     6.6951   6.7558   8.0490   9.5959   9.9555

     occupation numbers 
     1.0000   1.0000   1.0000   1.0000   1.0000   1.0000   1.0000   1.0000
     1.0000   1.0000   1.0000   1.0000   1.0000   1.0000   1.0000   1.0000
     0.3895   0.1279  -0.0000  -0.0000  -0.0000

          k = 0.9983 0.1717 0.2166 (  2342 PWs)   bands (ev):

   -49.8321 -26.1460 -25.9215 -25.7500 -12.2100  -8.9473  -8.7474   0.7072
     1.3407   1.8403   1.9532   2.8592   2.9839   3.4814   3.8526   3.8582
     6.8909   6.9359   8.4498   9.6652  10.2019

     occupation numbers 
     1.0000   1.0000   1.0000   1.0000   1.0000   1.0000   1.0000   1.0000
     1.0000   1.0000   1.0000   1.0000   1.0000   1.0000   1.0000   1.0000
    -0.0339  -0.0228  -0.0000  -0.0000  -0.0000

          k = 1.1980 0.3435 0.2166 (  2339 PWs)   bands (ev):

   -49.8327 -26.1934 -25.8996 -25.7521 -11.9073  -8.9615  -8.7520   0.9294
     1.2804   1.4796   1.7746   2.1231   2.7503   2.9923   3.7365   3.9981
     7.4992   7.7154   8.1117   9.5267  10.6402

     occupation numbers 
     1.0000   1.0000   1.0000   1.0000   1.0000   1.0000   1.0000   1.0000
     1.0000   1.0000   1.0000   1.0000   1.0000   1.0000   1.0000   1.0000
    -0.0000  -0.0000  -0.0000  -0.0000  -0.0000

          k = 1.3976 0.5152 0.2166 (  2337 PWs)   bands (ev):

   -49.8352 -26.2539 -25.8446 -25.7596 -11.5140  -8.9869  -8.8343   0.5249
     1.3101   1.3437   1.5750   1.8578   2.4280   2.9273   3.6750   3.8998
     7.3473   8.3919   8.5925   9.1728  11.1590

     occupation numbers 
     1.0000   1.0000   1.0000   1.0000   1.0000   1.0000   1.0000   1.0000
     1.0000   1.0000   1.0000   1.0000   1.0000   1.0000   1.0000   1.0000
    -0.0000  -0.0000  -0.0000  -0.0000  -0.0000

          k = 1.5973 0.6869 0.2166 (  2340 PWs)   bands (ev):

   -49.8389 -26.3046 -25.7771 -25.7698 -11.1697  -9.0620  -8.9092  -0.3552
     1.0968   1.4550   1.6725   1.9574   2.5834   3.0806   3.4926   3.9322
     6.6104   8.8401   9.2418   9.2734  11.3714

     occupation numbers 
     1.0000   1.0000   1.0000   1.0000   1.0000   1.0000   1.0000   1.0000
     1.0000   1.0000   1.0000   1.0000   1.0000   1.0000   1.0000   1.0000
     0.8018  -0.0000  -0.0000  -0.0000  -0.0000

          k =-0.1997-0.8586 0.2166 (  2337 PWs)   bands (ev):

   -49.8422 -26.3265 -25.7786 -25.7227 -11.0391  -9.1901  -8.9147  -0.6951
     0.7774   1.4024   1.8554   2.2605   2.8226   3.4296   3.5078   3.9739
     6.0018   8.8302   9.5400   9.5981  11.1384

     occupation numbers 
     1.0000   1.0000   1.0000   1.0000   1.0000   1.0000   1.0000   1.0000
     1.0000   1.0000   1.0000   1.0000   1.0000   1.0000   1.0000   1.0000
     1.0000  -0.0000  -0.0000  -0.0000  -0.0000

          k = 0.0000-0.6869 0.2166 (  2340 PWs)   bands (ev):

   -49.8439 -26.3115 -25.7829 -25.7026 -11.2044  -9.2734  -8.8986  -0.3810
     0.7548   1.2624   2.3271   2.4696   2.6424   3.4644   3.9404   3.9757
     5.6796   8.8691   9.3109   9.4431  10.8534

     occupation numbers 
     1.0000   1.0000   1.0000   1.0000   1.0000   1.0000   1.0000   1.0000
     1.0000   1.0000   1.0000   1.0000   1.0000   1.0000   1.0000   1.0000
     1.0000  -0.0000  -0.0000  -0.0000  -0.0000

          k = 0.1997-0.5152 0.2166 (  2346 PWs)   bands (ev):

   -49.8434 -26.2647 -25.7810 -25.7249 -11.5740  -9.2757  -8.8787   0.4730
     0.9963   1.4075   2.1852   2.4775   2.9438   3.5255   3.5695   4.0364
     5.9515   8.7176   8.7637   8.8259  10.8253

     occupation numbers 
     1.0000   1.0000   1.0000   1.0000   1.0000   1.0000   1.0000   1.0000
     1.0000   1.0000   1.0000   1.0000   1.0000   1.0000   1.0000   1.0000
     1.0000  -0.0000  -0.0000  -0.0000  -0.0000

          k = 0.3993-0.3435 0.2166 (  2345 PWs)   bands (ev):

   -49.8408 -26.2037 -25.7807 -25.7735 -11.9701  -9.1995  -8.8606   1.1793
     1.6161   1.9071   2.0261   2.3384   2.6378   3.2678   3.7241   4.1091
     6.5140   7.8395   7.9562   8.8972  10.7960

     occupation numbers 
     1.0000   1.0000   1.0000   1.0000   1.0000   1.0000   1.0000   1.0000
     1.0000   1.0000   1.0000   1.0000   1.0000   1.0000   1.0000   1.0000
     1.0226  -0.0000  -0.0000  -0.0000  -0.0000

          k = 0.5990-0.1717 0.2166 (  2344 PWs)   bands (ev):

   -49.8372 -26.1520 -25.8485 -25.7633 -12.2497  -9.0736  -8.8431   1.2573
     1.5463   1.9283   2.3101   2.6868   3.0230   3.2138   3.8051   4.0172
     7.0196   7.1848   7.2968   9.2642  10.3120

     occupation numbers 
     1.0000   1.0000   1.0000   1.0000   1.0000   1.0000   1.0000   1.0000
     1.0000   1.0000   1.0000   1.0000   1.0000   1.0000   1.0000   1.0000
    -0.0053  -0.0000  -0.0000  -0.0000  -0.0000

          k =-0.9983 0.0000-0.2708 (  2346 PWs)   bands (ev):

   -49.8324 -26.1284 -25.9222 -25.7506 -12.3245  -8.9550  -8.7558   0.6853
     1.3284   1.9199   2.0354   3.3107   3.3417   3.4783   3.7599   3.9322
     6.5741   6.7255   8.4409   9.5418  10.0292

     occupation numbers 
     1.0000   1.0000   1.0000   1.0000   1.0000   1.0000   1.0000   1.0000
     1.0000   1.0000   1.0000   1.0000   1.0000   1.0000   1.0000   1.0000
     0.9242   0.2451  -0.0000  -0.0000  -0.0000

          k =-0.7986 0.1717-0.2708 (  2345 PWs)   bands (ev):

   -49.8335 -26.1476 -25.9014 -25.7537 -12.2209  -8.9757  -8.7814   0.9035
     1.2910   1.8745   2.1127   2.7994   3.0048   3.3977   3.7775   3.9621
     6.9309   7.0015   8.0761   9.5603  10.1680

     occupation numbers 
     1.0000   1.0000   1.0000   1.0000   1.0000   1.0000   1.0000   1.0000
     1.0000   1.0000   1.0000   1.0000   1.0000   1.0000   1.0000   1.0000
    -0.0242  -0.0078  -0.0000  -0.0000  -0.0000

          k =-0.5990 0.3435-0.2708 (  2338 PWs)   bands (ev):

   -49.8363 -26.1980 -25.8467 -25.7617 -11.9354  -9.0378  -8.8359   1.2762
     1.4571   1.6395   1.8496   2.1279   2.5762   3.0026   3.7818   4.0619
     7.2830   7.6573   7.8320   9.2006  10.8009

     occupation numbers 
     1.0000   1.0000   1.0000   1.0000   1.0000   1.0000   1.0000   1.0000
     1.0000   1.0000   1.0000   1.0000   1.0000   1.0000   1.0000   1.0000
    -0.0000  -0.0000  -0.0000  -0.0000  -0.0000

          k =-0.3993 0.5152-0.2708 (  2340 PWs)   bands (ev):

   -49.8397 -26.2599 -25.7787 -25.7714 -11.5471  -9.1272  -8.8834   0.4959
     1.2401   1.6202   1.7381   2.1394   2.5351   3.2068   3.5541   4.0416
     6.5749   8.5659   8.6723   8.9087  11.1710

     occupation numbers 
     1.0000   1.0000   1.0000   1.0000   1.0000   1.0000   1.0000   1.0000
     1.0000   1.0000   1.0000   1.0000   1.0000   1.0000   1.0000   1.0000
     0.9220  -0.0000  -0.0000  -0.0000  -0.0000

          k =-0.1997 0.6869-0.2708 (  2346 PWs)   bands (ev):

   -49.8425 -26.3096 -25.7793 -25.7233 -11.1948  -9.2077  -8.9111  -0.3741
     0.8537   1.4247   1.9065   2.3206   2.8361   3.4413   3.5282   4.0031
     5.9917   8.8255   9.3034   9.3746  11.0776

     occupation numbers 
     1.0000   1.0000   1.0000   1.0000   1.0000   1.0000   1.0000   1.0000
     1.0000   1.0000   1.0000   1.0000   1.0000   1.0000   1.0000   1.0000
     1.0000  -0.0000  -0.0000  -0.0000  -0.0000

          k =-1.9966-0.8586-0.2708 (  2352 PWs)   bands (ev):

   -49.8436 -26.3285 -25.7822 -25.7021 -11.0482  -9.2410  -8.9197  -0.7019
     0.6806   1.3386   2.1358   2.3871   2.6595   3.4377   3.9215   3.9728
     5.6943   8.8884   9.5411   9.6634  10.9653

     occupation numbers 
     1.0000   1.0000   1.0000   1.0000   1.0000   1.0000   1.0000   1.0000
     1.0000   1.0000   1.0000   1.0000   1.0000   1.0000   1.0000   1.0000
     1.0000  -0.0000  -0.0000  -0.0000  -0.0000

          k = 0.3993 0.3435 0.1083 (  2343 PWs)   bands (ev):

   -49.8408 -26.2037 -25.7807 -25.7735 -11.9704  -9.2238  -8.8334   1.1529
     1.6360   1.8493   2.0484   2.3918   2.6570   3.2115   3.8196   4.0438
     6.4702   7.8496   7.9416   8.9747  10.7879

     occupation numbers 
     1.0000   1.0000   1.0000   1.0000   1.0000   1.0000   1.0000   1.0000
     1.0000   1.0000   1.0000   1.0000   1.0000   1.0000   1.0000   1.0000
     1.0354  -0.0000  -0.0000  -0.0000  -0.0000

          k = 0.5990 0.5152 0.1083 (  2331 PWs)   bands (ev):

   -49.8352 -26.2539 -25.8445 -25.7596 -11.5143  -8.9798  -8.8436   0.5284
     1.3981   1.6036   1.6931   1.7685   2.0415   2.7362   3.7314   3.9946
     7.2667   8.4138   8.5794   9.3537  11.3254

     occupation numbers 
     1.0000   1.0000   1.0000   1.0000   1.0000   1.0000   1.0000   1.0000
     1.0000   1.0000   1.0000   1.0000   1.0000   1.0000   1.0000   1.0000
    -0.0000  -0.0000  -0.0000  -0.0000  -0.0000

          k = 0.7986 0.6869 0.1083 (  2330 PWs)   bands (ev):

   -49.8308 -26.2933 -25.8954 -25.7484 -11.1131  -8.8705  -8.7507  -0.3107
     0.8200   1.1521   1.6959   1.7456   2.2501   2.3797   3.4411   3.9407
     8.0881   8.9289   9.1420   9.6550  11.3957

     occupation numbers 
     1.0000   1.0000   1.0000   1.0000   1.0000   1.0000   1.0000   1.0000
     1.0000   1.0000   1.0000   1.0000   1.0000   1.0000   1.0000   1.0000
    -0.0000  -0.0000  -0.0000  -0.0000  -0.0000

          k = 0.9983 0.8586 0.1083 (  2326 PWs)   bands (ev):

   -49.8290 -26.3080 -25.9147 -25.7441 -10.9503  -8.8737  -8.6662  -0.6298
     0.5887   0.9526   1.7725   1.8762   1.9402   2.6100   3.2480   3.8978
     8.4884   9.1561   9.3518   9.7728  11.4266

     occupation numbers 
     1.0000   1.0000   1.0000   1.0000   1.0000   1.0000   1.0000   1.0000
     1.0000   1.0000   1.0000   1.0000   1.0000   1.0000   1.0000   1.0000
    -0.0000  -0.0000  -0.0000  -0.0000  -0.0000

          k = 0.0000 0.0000 0.1083 (  2365 PWs)   bands (ev):

   -49.8470 -26.1454 -25.7892 -25.7082 -12.4408  -9.4801  -8.8234   0.6932
     2.5077   2.7053   2.8462   3.0096   3.4247   3.8603   4.1593   4.2637
     5.5457   7.1817   7.3473   8.7209   9.4262

     occupation numbers 
     1.0000   1.0000   1.0000   1.0000   1.0000   1.0000   1.0000   1.0000
     1.0000   1.0000   1.0000   1.0000   1.0000   1.0000   1.0000   1.0000
     1.0000  -0.0000  -0.0000  -0.0000  -0.0000

          k = 0.5990 0.3435 0.1625 (  2341 PWs)   bands (ev):

   -49.8363 -26.1980 -25.8467 -25.7617 -11.9356  -9.0340  -8.8413   1.3510
     1.5415   1.7110   1.8865   2.0551   2.3832   2.8868   3.8197   4.0894
     7.2177   7.6864   7.8272   9.3376  10.9116

     occupation numbers 
     1.0000   1.0000   1.0000   1.0000   1.0000   1.0000   1.0000   1.0000
     1.0000   1.0000   1.0000   1.0000   1.0000   1.0000   1.0000   1.0000
    -0.0000  -0.0000  -0.0000  -0.0000  -0.0000

          k = 0.7986 0.5152 0.1625 (  2329 PWs)   bands (ev):

   -49.8316 -26.2491 -25.8973 -25.7500 -11.4873  -8.8931  -8.7713   0.5496
     1.0946   1.1168   1.6058   1.8948   2.4110   2.4738   3.5800   4.0391
     8.0190   8.3264   8.5146   9.6774  11.2108

     occupation numbers 
     1.0000   1.0000   1.0000   1.0000   1.0000   1.0000   1.0000   1.0000
     1.0000   1.0000   1.0000   1.0000   1.0000   1.0000   1.0000   1.0000
    -0.0000  -0.0000  -0.0000  -0.0000  -0.0000

          k = 0.9983 0.6869 0.1625 (  2325 PWs)   bands (ev):

   -49.8294 -26.2913 -25.9154 -25.7447 -11.1031  -8.8816  -8.6749  -0.3029
     0.6959   0.9169   1.6609   1.8990   2.1227   2.6440   3.2818   3.9479
     8.4845   8.8874   9.1188   9.7563  11.3447

     occupation numbers 
     1.0000   1.0000   1.0000   1.0000   1.0000   1.0000   1.0000   1.0000
     1.0000   1.0000   1.0000   1.0000   1.0000   1.0000   1.0000   1.0000
    -0.0000  -0.0000  -0.0000  -0.0000  -0.0000

          k = 1.1980 0.8586 0.1625 (  2327 PWs)   bands (ev):

   -49.8304 -26.3100 -25.8947 -25.7478 -10.9599  -8.8775  -8.7258  -0.6368
     0.7061   1.1350   1.5597   1.7687   2.3085   2.4568   3.3698   3.8517
     8.1192   9.1766   9.3827   9.6050  11.3886

     occupation numbers 
     1.0000   1.0000   1.0000   1.0000   1.0000   1.0000   1.0000   1.0000
     1.0000   1.0000   1.0000   1.0000   1.0000   1.0000   1.0000   1.0000
    -0.0000  -0.0000  -0.0000  -0.0000  -0.0000

          k =-0.5990-0.6869 0.1625 (  2328 PWs)   bands (ev):

   -49.8344 -26.2983 -25.8428 -25.7579 -11.1387  -8.9261  -8.8547  -0.3307
     1.1207   1.4307   1.6280   1.7209   2.0814   2.7651   3.6323   3.8106
     7.3262   8.9940   9.1889   9.3256  11.4600

     occupation numbers 
     1.0000   1.0000   1.0000   1.0000   1.0000   1.0000   1.0000   1.0000
     1.0000   1.0000   1.0000   1.0000   1.0000   1.0000   1.0000   1.0000
    -0.0000  -0.0000  -0.0000  -0.0000  -0.0000

          k =-0.3993-0.5152 0.1625 (  2339 PWs)   bands (ev):

   -49.8397 -26.2599 -25.7787 -25.7714 -11.5474  -9.1563  -8.8518   0.4990
     1.2434   1.5140   1.8288   2.1290   2.5425   3.1966   3.6577   3.9658
     6.5370   8.5755   8.6558   8.9694  11.1668

     occupation numbers 
     1.0000   1.0000   1.0000   1.0000   1.0000   1.0000   1.0000   1.0000
     1.0000   1.0000   1.0000   1.0000   1.0000   1.0000   1.0000   1.0000
     0.9988  -0.0000  -0.0000  -0.0000  -0.0000

          k = 0.0000-0.1717 0.1625 (  2354 PWs)   bands (ev):

   -49.8467 -26.1634 -25.7885 -25.7075 -12.3251  -9.4464  -8.8462   0.7729
     2.2152   2.5361   2.5748   3.2190   3.3093   3.6607   4.0446   4.1593
     5.5670   7.4638   7.5500   8.7670   9.7199

     occupation numbers 
     1.0000   1.0000   1.0000   1.0000   1.0000   1.0000   1.0000   1.0000
     1.0000   1.0000   1.0000   1.0000   1.0000   1.0000   1.0000   1.0000
     1.0000  -0.0000  -0.0000  -0.0000  -0.0000

          k = 0.1997 0.0000 0.1625 (  2354 PWs)   bands (ev):

   -49.8456 -26.1437 -25.7855 -25.7289 -12.4295  -9.4103  -8.8457   0.8522
     2.3569   2.6417   2.8638   3.0951   3.1957   3.7463   4.0015   4.0843
     5.8541   7.1135   7.3240   8.7334   9.7177

     occupation numbers 
     1.0000   1.0000   1.0000   1.0000   1.0000   1.0000   1.0000   1.0000
     1.0000   1.0000   1.0000   1.0000   1.0000   1.0000   1.0000   1.0000
     1.0000  -0.0005  -0.0000  -0.0000  -0.0000

          k = 0.7986 0.3435 0.2166 (  2332 PWs)   bands (ev):

   -49.8327 -26.1934 -25.8995 -25.7521 -11.9074  -8.9355  -8.7809   0.9759
     1.3730   1.5568   1.7775   2.0201   2.6316   2.8763   3.7441   4.0602
     7.4875   7.7151   8.0951   9.6461  10.7563

     occupation numbers 
     1.0000   1.0000   1.0000   1.0000   1.0000   1.0000   1.0000   1.0000
     1.0000   1.0000   1.0000   1.0000   1.0000   1.0000   1.0000   1.0000
    -0.0000  -0.0000  -0.0000  -0.0000  -0.0000

          k = 0.9983 0.5152 0.2166 (  2328 PWs)   bands (ev):

   -49.8302 -26.2472 -25.9173 -25.7463 -11.4769  -8.9021  -8.6977   0.5517
     0.8631   0.9982   1.5532   1.8934   2.4488   2.7613   3.4311   4.0263
     8.2191   8.4794   8.4895   9.7473  11.1139

     occupation numbers 
     1.0000   1.0000   1.0000   1.0000   1.0000   1.0000   1.0000   1.0000
     1.0000   1.0000   1.0000   1.0000   1.0000   1.0000   1.0000   1.0000
    -0.0000  -0.0000  -0.0000  -0.0000  -0.0000

          k = 1.1980 0.6869 0.2166 (  2326 PWs)   bands (ev):

   -49.8308 -26.2933 -25.8954 -25.7484 -11.1130  -8.8941  -8.7249  -0.3108
     0.8031   1.0923   1.4896   1.8457   2.3925   2.5379   3.4136   3.8701
     8.1214   8.9165   9.1449   9.5785  11.3053

     occupation numbers 
     1.0000   1.0000   1.0000   1.0000   1.0000   1.0000   1.0000   1.0000
     1.0000   1.0000   1.0000   1.0000   1.0000   1.0000   1.0000   1.0000
    -0.0000  -0.0000  -0.0000  -0.0000  -0.0000

          k = 1.3976 0.8586 0.2166 (  2328 PWs)   bands (ev):

   -49.8341 -26.3151 -25.8421 -25.7573 -10.9848  -8.8881  -8.8764  -0.6549
     0.9974   1.3318   1.6400   1.6861   2.1563   2.8006   3.6317   3.6714
     7.3551   9.1122   9.3940   9.4438  11.4831

     occupation numbers 
     1.0000   1.0000   1.0000   1.0000   1.0000   1.0000   1.0000   1.0000
     1.0000   1.0000   1.0000   1.0000   1.0000   1.0000   1.0000   1.0000
    -0.0000  -0.0000  -0.0000  -0.0000  -0.0000

          k =-0.3993-0.6869 0.2166 (  2338 PWs)   bands (ev):

   -49.8389 -26.3046 -25.7771 -25.7697 -11.1699  -9.0879  -8.8818  -0.3548
     1.0929   1.4820   1.6094   1.9881   2.5667   3.1013   3.5509   3.8823
     6.5895   8.8676   9.2359   9.2785  11.3704

     occupation numbers 
     1.0000   1.0000   1.0000   1.0000   1.0000   1.0000   1.0000   1.0000
     1.0000   1.0000   1.0000   1.0000   1.0000   1.0000   1.0000   1.0000
     0.8782  -0.0000  -0.0000  -0.0000  -0.0000

          k =-0.0000-0.3435 0.2166 (  2351 PWs)   bands (ev):

   -49.8458 -26.2100 -25.7867 -25.7060 -12.0087  -9.3807  -8.8768   0.8802
     1.5942   1.7258   2.5829   2.9735   3.0230   3.4784   4.0182   4.0816
     5.6043   8.0578   8.1233   8.8276  10.2454

     occupation numbers 
     1.0000   1.0000   1.0000   1.0000   1.0000   1.0000   1.0000   1.0000
     1.0000   1.0000   1.0000   1.0000   1.0000   1.0000   1.0000   1.0000
     1.0000  -0.0000  -0.0000  -0.0000  -0.0000

          k = 0.1997-0.1717 0.2166 (  2342 PWs)   bands (ev):

   -49.8453 -26.1617 -25.7848 -25.7283 -12.3139  -9.3727  -8.8721   0.9414
     2.2453   2.3613   2.5923   3.0374   3.1928   3.5709   3.8912   4.0625
     5.8832   7.3831   7.5284   8.7548  10.0174

     occupation numbers 
     1.0000   1.0000   1.0000   1.0000   1.0000   1.0000   1.0000   1.0000
     1.0000   1.0000   1.0000   1.0000   1.0000   1.0000   1.0000   1.0000
     1.0000  -0.0000  -0.0000  -0.0000  -0.0000

          k = 0.3993 0.0000 0.2166 (  2342 PWs)   bands (ev):

   -49.8420 -26.1395 -25.7830 -25.7759 -12.4003  -9.2553  -8.8621   1.1139
     2.0801   2.2652   2.6847   2.9264   3.2878   3.5408   3.8703   3.9420
     6.4828   6.9544   7.1911   8.8557  10.0130

     occupation numbers 
     1.0000   1.0000   1.0000   1.0000   1.0000   1.0000   1.0000   1.0000
     1.0000   1.0000   1.0000   1.0000   1.0000   1.0000   1.0000   1.0000
     1.0349  -0.0177  -0.0000  -0.0000  -0.0000

          k = 0.9983 0.3435 0.2708 (  2342 PWs)   bands (ev):

   -49.8313 -26.1917 -25.9196 -25.7484 -11.8967  -8.9272  -8.7253   0.7520
     1.3500   1.5288   1.7565   1.9114   2.7310   3.0595   3.6524   4.0381
     7.4644   7.6710   8.4638   9.7297  10.6997

     occupation numbers 
     1.0000   1.0000   1.0000   1.0000   1.0000   1.0000   1.0000   1.0000
     1.0000   1.0000   1.0000   1.0000   1.0000   1.0000   1.0000   1.0000
    -0.0000  -0.0000  -0.0000  -0.0000  -0.0000

          k = 1.1980 0.5152 0.2708 (  2324 PWs)   bands (ev):

   -49.8316 -26.2490 -25.8973 -25.7500 -11.4872  -8.9162  -8.7462   0.5488
     1.0414   1.1089   1.4579   1.9640   2.5034   2.6224   3.5633   3.9795
     8.0703   8.2987   8.5169   9.5946  11.1177

     occupation numbers 
     1.0000   1.0000   1.0000   1.0000   1.0000   1.0000   1.0000   1.0000
     1.0000   1.0000   1.0000   1.0000   1.0000   1.0000   1.0000   1.0000
    -0.0000  -0.0000  -0.0000  -0.0000  -0.0000

          k = 1.3976 0.6869 0.2708 (  2331 PWs)   bands (ev):

   -49.8344 -26.2983 -25.8428 -25.7579 -11.1386  -8.9297  -8.8505  -0.3309
     1.0914   1.3786   1.6390   1.6660   2.2138   2.8205   3.6291   3.7618
     7.3472   8.9640   9.2021   9.2956  11.4242

     occupation numbers 
     1.0000   1.0000   1.0000   1.0000   1.0000   1.0000   1.0000   1.0000
     1.0000   1.0000   1.0000   1.0000   1.0000   1.0000   1.0000   1.0000
    -0.0000  -0.0000  -0.0000  -0.0000  -0.0000

          k = 1.5973 0.8586 0.2708 (  2346 PWs)   bands (ev):

   -49.8386 -26.3215 -25.7765 -25.7691 -11.0150  -9.0534  -8.9024  -0.6772
     1.0126   1.3914   1.6990   1.8774   2.6003   3.0313   3.5272   3.8473
     6.6090   8.8705   9.4680   9.5053  11.4326

     occupation numbers 
     1.0000   1.0000   1.0000   1.0000   1.0000   1.0000   1.0000   1.0000
     1.0000   1.0000   1.0000   1.0000   1.0000   1.0000   1.0000   1.0000
     0.8072  -0.0000  -0.0000  -0.0000  -0.0000

          k = 0.0000-0.5152 0.2708 (  2345 PWs)   bands (ev):

   -49.8448 -26.2665 -25.7846 -25.7041 -11.5839  -9.3002  -8.9125   0.4607
     0.9438   1.4170   2.4756   2.6290   2.7041   3.4084   3.9348   4.1118
     5.6502   8.7226   8.8547   8.8889  10.6938

     occupation numbers 
     1.0000   1.0000   1.0000   1.0000   1.0000   1.0000   1.0000   1.0000
     1.0000   1.0000   1.0000   1.0000   1.0000   1.0000   1.0000   1.0000
     1.0000  -0.0000  -0.0000  -0.0000  -0.0000

          k = 0.1997-0.3435 0.2708 (  2345 PWs)   bands (ev):

   -49.8444 -26.2082 -25.7831 -25.7268 -11.9978  -9.3049  -8.9033   1.0408
     1.6077   1.8226   2.2882   2.7826   2.9776   3.4719   3.6500   4.1633
     5.9268   8.0378   8.0400   8.7965  10.5331

     occupation numbers 
     1.0000   1.0000   1.0000   1.0000   1.0000   1.0000   1.0000   1.0000
     1.0000   1.0000   1.0000   1.0000   1.0000   1.0000   1.0000   1.0000
     1.0000  -0.0000  -0.0000  -0.0000  -0.0000

          k = 0.3993-0.1717 0.2708 (  2346 PWs)   bands (ev):

   -49.8417 -26.1574 -25.7824 -25.7752 -12.2850  -9.2229  -8.8806   1.1699
     1.9901   2.2276   2.4611   2.6333   3.1439   3.3310   3.8229   4.0665
[...]

   -49.8467 -26.1634 -25.7885 -25.7075 -12.3239  -9.3144  -9.0020   1.1915
     2.2439   2.5498   2.6496   2.7562   3.2619   3.4996   3.9931   4.0051
     5.5941   7.4636   7.6308   8.9615  10.0775

     occupation numbers 
     1.0000   1.0000   1.0000   1.0000   1.0000   1.0000   1.0000   1.0000
     1.0000   1.0000   1.0000   1.0000   1.0000   1.0000   1.0000   1.0000
     1.0000  -0.0000  -0.0000  -0.0000  -0.0000

          k = 0.1997 0.0000 0.3791 (  2347 PWs)   bands (ev):

   -49.8456 -26.1437 -25.7855 -25.7289 -12.4284  -9.2911  -8.9845   1.2407
     2.1410   2.6348   2.7946   3.0659   3.3230   3.5802   3.8730   3.9062
     5.9324   7.0956   7.4200   8.8105   9.9019

     occupation numbers 
     1.0000   1.0000   1.0000   1.0000   1.0000   1.0000   1.0000   1.0000
     1.0000   1.0000   1.0000   1.0000   1.0000   1.0000   1.0000   1.0000
     1.0000  -0.0008  -0.0000  -0.0000  -0.0000

          k =-1.9966-0.3435-0.1083 (  2342 PWs)   bands (ev):

   -49.8458 -26.2099 -25.7868 -25.7060 -12.0076  -9.2351  -9.0421   1.2164
     1.6572   1.9033   2.3621   2.6813   3.0054   3.1698   3.8676   4.2750
     5.6252   8.0835   8.1223   8.9852  10.5980

     occupation numbers 
     1.0000   1.0000   1.0000   1.0000   1.0000   1.0000   1.0000   1.0000
     1.0000   1.0000   1.0000   1.0000   1.0000   1.0000   1.0000   1.0000
     1.0000  -0.0000  -0.0000  -0.0000  -0.0000

          k =-1.7969-0.1717-0.1083 (  2346 PWs)   bands (ev):

   -49.8453 -26.1617 -25.7848 -25.7283 -12.3128  -9.2387  -9.0240   1.3584
     1.9991   2.4572   2.5474   2.9328   3.0954   3.4873   3.7597   4.0302
     5.9492   7.3750   7.5858   8.8444  10.2019

     occupation numbers 
     1.0000   1.0000   1.0000   1.0000   1.0000   1.0000   1.0000   1.0000
     1.0000   1.0000   1.0000   1.0000   1.0000   1.0000   1.0000   1.0000
     1.0000  -0.0000  -0.0000  -0.0000  -0.0000

          k =-1.5973 0.0000-0.1083 (  2345 PWs)   bands (ev):

   -49.8420 -26.1395 -25.7830 -25.7759 -12.3995  -9.1786  -8.9460   1.3113
     1.7495   2.3135   2.6753   2.8588   3.5153   3.6472   3.7778   3.8647
     6.6056   6.9034   7.2290   8.6963   9.9429

     occupation numbers 
     1.0000   1.0000   1.0000   1.0000   1.0000   1.0000   1.0000   1.0000
     1.0000   1.0000   1.0000   1.0000   1.0000   1.0000   1.0000   1.0000
     0.8208  -0.0315  -0.0000  -0.0000  -0.0000

          k = 0.0000 1.2021-0.0542 (  2348 PWs)   bands (ev):

   -49.8448 -26.2666 -25.7846 -25.7041 -11.5830  -9.1681  -9.0574   0.4552
     1.2479   1.4294   2.3358   2.6902   2.7013   2.9347   3.8336   4.3495
     5.6601   8.7282   8.8628   8.9773  10.8997

     occupation numbers 
     1.0000   1.0000   1.0000   1.0000   1.0000   1.0000   1.0000   1.0000
     1.0000   1.0000   1.0000   1.0000   1.0000   1.0000   1.0000   1.0000
     1.0000  -0.0000  -0.0000  -0.0000  -0.0000

          k =-1.7969-0.3435-0.0542 (  2345 PWs)   bands (ev):

   -49.8444 -26.2082 -25.7831 -25.7267 -11.9969  -9.1617  -9.0598   1.3206
     1.7065   1.9027   2.0018   2.7142   2.9590   3.2690   3.5060   4.2892
     5.9754   8.0377   8.0414   8.8769  10.7152

     occupation numbers 
     1.0000   1.0000   1.0000   1.0000   1.0000   1.0000   1.0000   1.0000
     1.0000   1.0000   1.0000   1.0000   1.0000   1.0000   1.0000   1.0000
     1.0000  -0.0000  -0.0000  -0.0000  -0.0000

          k =-1.5973-0.1717-0.0542 (  2349 PWs)   bands (ev):

   -49.8417 -26.1574 -25.7824 -25.7753 -12.2843  -9.1486  -8.9607   1.3808
     1.6460   2.2777   2.4974   2.6155   3.2886   3.3326   3.6980   4.1020
     6.6254   7.1759   7.4194   8.7025  10.2187

     occupation numbers 
     1.0000   1.0000   1.0000   1.0000   1.0000   1.0000   1.0000   1.0000
     1.0000   1.0000   1.0000   1.0000   1.0000   1.0000   1.0000   1.0000
     0.7381  -0.0001  -0.0000  -0.0000  -0.0000

          k =-1.3976 0.0000-0.0542 (  2341 PWs)   bands (ev):

   -49.8375 -26.1342 -25.8492 -25.7640 -12.3640  -9.0947  -8.8336   1.1149
     1.2844   2.0558   2.5493   2.9656   3.6160   3.6355   3.7910   3.8755
     6.7380   6.9366   7.3840   8.8819   9.8015

     occupation numbers 
     1.0000   1.0000   1.0000   1.0000   1.0000   1.0000   1.0000   1.0000
     1.0000   1.0000   1.0000   1.0000   1.0000   1.0000   1.0000   1.0000
     0.1932  -0.0225  -0.0000  -0.0000  -0.0000

          k =-0.0000 1.0304-0.0000 (  2344 PWs)   bands (ev):

   -49.8439 -26.3115 -25.7829 -25.7026 -11.2038  -9.1867  -8.9951  -0.3824
     0.9830   1.1678   2.4685   2.5280   2.6857   2.7902   3.8668   4.2850
     5.6821   8.9401   9.3130   9.4418  10.9543

     occupation numbers 
     1.0000   1.0000   1.0000   1.0000   1.0000   1.0000   1.0000   1.0000
     1.0000   1.0000   1.0000   1.0000   1.0000   1.0000   1.0000   1.0000
     1.0000  -0.0000  -0.0000  -0.0000  -0.0000

          k = 0.1997 1.2021-0.0000 (  2349 PWs)   bands (ev):

   -49.8434 -26.2647 -25.7810 -25.7248 -11.5729  -9.1028  -9.0657   0.4651
     1.3870   1.4016   2.0371   2.4031   2.9645   3.1288   3.4053   4.3120
     5.9968   8.6474   8.7871   8.9335  11.0363

     occupation numbers 
     1.0000   1.0000   1.0000   1.0000   1.0000   1.0000   1.0000   1.0000
     1.0000   1.0000   1.0000   1.0000   1.0000   1.0000   1.0000   1.0000
     1.0000  -0.0000  -0.0000  -0.0000  -0.0000

          k =-1.5973-0.3435-0.0000 (  2351 PWs)   bands (ev):

   -49.8408 -26.2037 -25.7807 -25.7736 -11.9692  -9.0983  -8.9690   1.4150
     1.4332   1.8253   2.1043   2.1564   2.9359   3.1761   3.5234   4.2187
     6.6399   7.8430   7.9438   8.7524  10.7495

     occupation numbers 
     1.0000   1.0000   1.0000   1.0000   1.0000   1.0000   1.0000   1.0000
     1.0000   1.0000   1.0000   1.0000   1.0000   1.0000   1.0000   1.0000
     0.6703  -0.0000  -0.0000  -0.0000  -0.0000

          k =-1.3976-0.1717-0.0000 (  2345 PWs)   bands (ev):

   -49.8372 -26.1520 -25.8485 -25.7634 -12.2492  -9.0814  -8.8310   1.1284
     1.2958   1.9244   2.4749   2.7054   3.1985   3.4621   3.7416   4.0505
     6.9925   7.1909   7.3957   8.8876  10.0732

     occupation numbers 
     1.0000   1.0000   1.0000   1.0000   1.0000   1.0000   1.0000   1.0000
     1.0000   1.0000   1.0000   1.0000   1.0000   1.0000   1.0000   1.0000
    -0.0093  -0.0000  -0.0000  -0.0000  -0.0000

          k =-1.1980 0.0000-0.0000 (  2342 PWs)   bands (ev):

   -49.8338 -26.1299 -25.9021 -25.7544 -12.3354  -9.0235  -8.7438   0.8319
     1.0561   1.9937   2.3476   3.1177   3.4871   3.6406   3.7771   3.9455
     6.6723   6.6797   8.1286   9.3538   9.6810

     occupation numbers 
     1.0000   1.0000   1.0000   1.0000   1.0000   1.0000   1.0000   1.0000
     1.0000   1.0000   1.0000   1.0000   1.0000   1.0000   1.0000   1.0000
     0.5064   0.4681  -0.0000  -0.0000  -0.0000

          k = 0.0000 0.0000 0.4332 (  2352 PWs)   bands (ev):

   -49.8470 -26.1454 -25.7892 -25.7081 -12.4392  -9.2848  -9.0528   1.3268
     2.2674   2.6731   2.7610   3.3247   3.3273   3.3464   3.8280   4.0698
     5.5858   7.1826   7.5094   9.0019   9.8665

     occupation numbers 
     1.0000   1.0000   1.0000   1.0000   1.0000   1.0000   1.0000   1.0000
     1.0000   1.0000   1.0000   1.0000   1.0000   1.0000   1.0000   1.0000
     1.0000  -0.0000  -0.0000  -0.0000  -0.0000

          k =-1.9966-0.1717-0.0542 (  2342 PWs)   bands (ev):

   -49.8467 -26.1633 -25.7885 -25.7075 -12.3236  -9.2272  -9.0965   1.4100
     2.1639   2.5109   2.6324   2.6937   3.2385   3.4803   3.9585   3.9653
     5.5982   7.4636   7.6586   9.0214  10.1754

     occupation numbers 
     1.0000   1.0000   1.0000   1.0000   1.0000   1.0000   1.0000   1.0000
     1.0000   1.0000   1.0000   1.0000   1.0000   1.0000   1.0000   1.0000
     1.0000  -0.0000  -0.0000  -0.0000  -0.0000

          k =-1.7969 0.0000-0.0542 (  2348 PWs)   bands (ev):

   -49.8456 -26.1437 -25.7855 -25.7289 -12.4281  -9.2198  -9.0618   1.4876
     1.8956   2.6929   2.7814   3.0117   3.4224   3.5549   3.7712   3.8620
     5.9485   7.0924   7.4469   8.8543   9.9334

     occupation numbers 
     1.0000   1.0000   1.0000   1.0000   1.0000   1.0000   1.0000   1.0000
     1.0000   1.0000   1.0000   1.0000   1.0000   1.0000   1.0000   1.0000
     1.0000  -0.0009  -0.0000  -0.0000  -0.0000

          k = 0.0000 1.3738 0.0000 (  2330 PWs)   bands (ev):

   -49.8458 -26.2099 -25.7867 -25.7060 -12.0074  -9.1508  -9.1296   1.2889
     1.7164   1.9123   2.2364   2.7017   3.0004   3.1063   3.8407   4.2984
     5.6286   8.0910   8.1222   9.0121  10.6555

     occupation numbers 
     1.0000   1.0000   1.0000   1.0000   1.0000   1.0000   1.0000   1.0000
     1.0000   1.0000   1.0000   1.0000   1.0000   1.0000   1.0000   1.0000
     1.0000  -0.0000  -0.0000  -0.0000  -0.0000

          k =-1.7969-0.1717 0.0000 (  2346 PWs)   bands (ev):

   -49.8453 -26.1617 -25.7849 -25.7283 -12.3127  -9.1862  -9.0796   1.5178
     1.8493   2.4921   2.5228   2.9572   3.0589   3.4765   3.7344   4.0212
     5.9583   7.3740   7.5949   8.8670  10.2237

     occupation numbers 
     1.0000   1.0000   1.0000   1.0000   1.0000   1.0000   1.0000   1.0000
     1.0000   1.0000   1.0000   1.0000   1.0000   1.0000   1.0000   1.0000
     1.0000  -0.0000  -0.0000  -0.0000  -0.0000

          k =-1.5973 0.0000 0.0000 (  2340 PWs)   bands (ev):

   -49.8420 -26.1394 -25.7830 -25.7759 -12.3994  -9.1590  -8.9668   1.3966
     1.6327   2.3401   2.6674   2.8501   3.5909   3.6828   3.7101   3.8420
     6.6274   6.8963   7.2340   8.6775   9.9236

     occupation numbers 
     1.0000   1.0000   1.0000   1.0000   1.0000   1.0000   1.0000   1.0000
     1.0000   1.0000   1.0000   1.0000   1.0000   1.0000   1.0000   1.0000
     0.7288  -0.0330  -0.0000  -0.0000  -0.0000

          k =-1.9966-1.7173-0.5415 (  2366 PWs)   bands (ev):

   -49.8470 -26.1454 -25.7892 -25.7081 -12.4390  -9.2201  -9.1215   1.4842
     2.1150   2.6990   2.7556   3.3054   3.3108   3.3854   3.7644   4.0488
     5.5858   7.1826   7.5280   9.0349   9.9087

     occupation numbers 
     1.0000   1.0000   1.0000   1.0000   1.0000   1.0000   1.0000   1.0000
     1.0000   1.0000   1.0000   1.0000   1.0000   1.0000   1.0000   1.0000
     1.0000  -0.0000  -0.0000  -0.0000  -0.0000

     the Fermi energy is     6.6736 ev

!    total energy              =    -534.95659230 Ry

     total all-electron energy =     -9636.846835 Ry
     estimated scf accuracy    <          1.7E-11 Ry
     smearing contrib. (-TS)   =      -0.00010409 Ry
     internal energy E=F+TS    =    -534.95648821 Ry

     The total energy is F=E-TS. E is the sum of the following terms:
     one-electron contribution =     -93.90697466 Ry
     hartree contribution      =      61.19465080 Ry
     xc contribution           =     -39.53754263 Ry
     ewald contribution        =    -135.48921389 Ry
     one-center paw contrib.   =    -327.21740782 Ry
      -> PAW hartree energy AE =      28.88074258 Ry
      -> PAW hartree energy PS =     -28.85062147 Ry
      -> PAW xc energy AE      =     -17.01084961 Ry
      -> PAW xc energy PS      =       7.38603188 Ry
      -> total E_H with PAW    =      61.22477191 Ry
      -> total E_XC with PAW   =     -49.16236036 Ry

     convergence has been achieved in  13 iterations

     Forces acting on atoms (cartesian axes, Ry/au):

     atom    1 type  1   force =     0.00000000    0.00000000    0.00000000
     atom    2 type  2   force =     0.00000000    0.00000000    0.03503382
     atom    3 type  2   force =     0.00000000    0.00000000   -0.03503382
     atom    4 type  3   force =     0.00000000    0.00000000    0.00000000
     The non-local contrib.  to forces
     atom    1 type  1   force =     0.00000000    0.00000000    0.00000000
     atom    2 type  2   force =     0.00000000    0.00000000    0.14597286
     atom    3 type  2   force =     0.00000000    0.00000000   -0.14597286
     atom    4 type  3   force =     0.00000000    0.00000000    0.00000000
     The ionic contribution  to forces
     atom    1 type  1   force =    -0.00000000   -0.00000000    0.00000000
     atom    2 type  2   force =     0.00000001    0.00000000  -10.07462875
     atom    3 type  2   force =    -0.00000001   -0.00000000   10.07462875
     atom    4 type  3   force =    -0.00000000   -0.00000000    0.00000000
     The local contribution  to forces
     atom    1 type  1   force =     0.00000000    0.00000000    0.00000000
     atom    2 type  2   force =     0.00000002   -0.00000003    9.96349394
     atom    3 type  2   force =    -0.00000002    0.00000003   -9.96349394
     atom    4 type  3   force =     0.00000000    0.00000000    0.00000000
     The core correction contribution to forces
     atom    1 type  1   force =     0.00000000    0.00000000    0.00000000
     atom    2 type  2   force =    -0.00000000    0.00000000    0.00019154
     atom    3 type  2   force =     0.00000000   -0.00000000   -0.00019154
     atom    4 type  3   force =     0.00000000    0.00000000    0.00000000
     The Hubbard contrib.    to forces
     atom    1 type  1   force =     0.00000000    0.00000000    0.00000000
     atom    2 type  2   force =     0.00000000    0.00000000    0.00000000
     atom    3 type  2   force =     0.00000000    0.00000000    0.00000000
     atom    4 type  3   force =     0.00000000    0.00000000    0.00000000
     The SCF correction term to forces
     atom    1 type  1   force =     0.00000000    0.00000000    0.00000000
     atom    2 type  2   force =    -0.00000000    0.00000000    0.00000424
     atom    3 type  2   force =     0.00000000   -0.00000000   -0.00000424
     atom    4 type  3   force =     0.00000000    0.00000000    0.00000000

     Total force =     0.049545     Total SCF correction =     0.000006


     Computing stress (Cartesian axis) and pressure

          total   stress  (Ry/bohr**3)                   (kbar)     P=      -40.12
  -0.00028937  -0.00000000   0.00000000          -42.57       -0.00        0.00
   0.00000000  -0.00026674  -0.00000000            0.00      -39.24       -0.00
   0.00000000  -0.00000000  -0.00026200            0.00       -0.00      -38.54

     kinetic stress (kbar)  14776.18     -0.00      0.00
                               -0.00  14770.55     -0.00
                                0.00     -0.00  14791.46

     local   stress (kbar) -18920.41     -0.00      0.00
                               -0.00 -24131.62      0.00
                                0.00      0.00   4077.47

     nonloc. stress (kbar)   8001.63      0.00      0.00
                                0.00   7927.93      0.00
                                0.00      0.00   7999.89

     hartree stress (kbar)   8384.18      0.00      0.00
                                0.00  10085.01      0.00
                                0.00      0.00  -2040.04

     exc-cor stress (kbar)  -1129.82      0.00     -0.00
                                0.00  -1121.13      0.00
                               -0.00      0.00  -1129.41

     corecor stress (kbar)  -2029.19      0.00      0.00
                                0.00  -2028.53      0.00
                                0.00      0.00  -2029.21

     ewald   stress (kbar)  -9125.13     -0.00     -0.00
                               -0.00  -5541.44     -0.00
                               -0.00     -0.00 -21708.70

     hubbard stress (kbar)      0.00      0.00      0.00
                                0.00      0.00      0.00
                                0.00      0.00      0.00

     DFT-D   stress (kbar)      0.00      0.00      0.00
                                0.00      0.00      0.00
                                0.00      0.00      0.00

     XDM     stress (kbar)      0.00      0.00      0.00
                                0.00      0.00      0.00
                                0.00      0.00      0.00

     dft-nl  stress (kbar)      0.00      0.00      0.00
                                0.00      0.00      0.00
                                0.00      0.00      0.00

     TS-vdW  stress (kbar)      0.00      0.00      0.00
                                0.00      0.00      0.00
                                0.00      0.00      0.00



     Writing output data file /zfs_data/gutierre/Scratch/Cl2NbO/convergence/cutoff/10x10x10/40/tmp/Cl2NbO.save/
 
     init_run     :      1.90s CPU      2.05s WALL (       1 calls)
     electrons    :     52.66s CPU     54.43s WALL (       1 calls)
     forces       :      0.22s CPU      0.23s WALL (       1 calls)
     stress       :      0.47s CPU      0.48s WALL (       1 calls)

     Called by init_run:
     wfcinit      :      1.61s CPU      1.68s WALL (       1 calls)
     wfcinit:atom :      0.01s CPU      0.01s WALL (     171 calls)
     wfcinit:wfcr :      1.58s CPU      1.65s WALL (     171 calls)
     potinit      :      0.11s CPU      0.12s WALL (       1 calls)
     hinit0       :      0.13s CPU      0.20s WALL (       1 calls)

     Called by electrons:
     c_bands      :     42.73s CPU     44.17s WALL (      13 calls)
     sum_band     :      8.75s CPU      9.04s WALL (      13 calls)
     v_of_rho     :      0.16s CPU      0.17s WALL (      14 calls)
     v_h          :      0.01s CPU      0.01s WALL (      14 calls)
     v_xc         :      0.17s CPU      0.18s WALL (      16 calls)
     newd         :      0.21s CPU      0.21s WALL (      14 calls)
     PAW_pot      :      0.83s CPU      0.85s WALL (      14 calls)
     mix_rho      :      0.02s CPU      0.02s WALL (      13 calls)

     Called by c_bands:
     init_us_2    :      0.25s CPU      0.26s WALL (    4959 calls)
     cegterg      :     41.99s CPU     43.38s WALL (    2223 calls)

     Called by sum_band:
     sum_band:wei :      0.08s CPU      0.08s WALL (      13 calls)
     sum_band:loo :      8.46s CPU      8.74s WALL (      13 calls)
     sum_band:buf :      0.02s CPU      0.02s WALL (    2223 calls)
     sum_band:ini :      0.11s CPU      0.11s WALL (    2223 calls)
     sum_band:cal :      0.17s CPU      0.17s WALL (    2223 calls)
     sum_band:bec :      0.04s CPU      0.05s WALL (    2223 calls)
     addusdens    :      0.19s CPU      0.19s WALL (      13 calls)
     addusd:skk   :      0.00s CPU      0.00s WALL (      39 calls)
     addusd:dgemm :      0.04s CPU      0.04s WALL (      39 calls)
     addusd:qvan2 :      0.14s CPU      0.14s WALL (      39 calls)

     Called by *egterg:
     cdiaghg      :      3.87s CPU      3.98s WALL (    7275 calls)
     cegterg:over :      0.43s CPU      0.45s WALL (    5052 calls)
     cegterg:upda :      0.10s CPU      0.10s WALL (    5052 calls)
     cegterg:last :      0.14s CPU      0.14s WALL (    4021 calls)
     h_psi        :     38.14s CPU     39.44s WALL (    7446 calls)
     s_psi        :      0.17s CPU      0.17s WALL (    7446 calls)
     g_psi        :      0.03s CPU      0.03s WALL (    5052 calls)

     Called by h_psi:
     h_psi:calbec :      0.53s CPU      0.55s WALL (    7446 calls)
     vloc_psi     :     37.28s CPU     38.55s WALL (    7446 calls)
     add_vuspsi   :      0.22s CPU      0.23s WALL (    7446 calls)

     General routines
     calbec       :      0.70s CPU      0.72s WALL (   10524 calls)
     fft          :      0.14s CPU      0.21s WALL (     205 calls)
     ffts         :      0.01s CPU      0.01s WALL (      27 calls)
     fftw         :     42.56s CPU     44.04s WALL (  274163 calls)
     interpolate  :      0.02s CPU      0.02s WALL (      14 calls)
 
     Parallel routines
     fft_scatt_xy :      3.69s CPU      3.79s WALL (  274395 calls)
     fft_scatt_yz :     20.16s CPU     20.82s WALL (  274395 calls)

     PAW routines
     PAW_pot      :      0.83s CPU      0.85s WALL (      14 calls)
     PAW_symme    :      0.01s CPU      0.01s WALL (      27 calls)
 
     PWSCF        :     56.27s CPU     58.82s WALL

 
   This run was terminated on:  15:55: 4  18May2022            

=------------------------------------------------------------------------------=
   JOB DONE.
=------------------------------------------------------------------------------=
